/*--------------------------------*- C++ -*----------------------------------*\
  =========                 |
  \\      /  F ield         | OpenFOAM: The Open Source CFD Toolbox
   \\    /   O peration     | Website:  https://openfoam.org
    \\  /    A nd           | Version:  8
     \\/     M anipulation  |
\*---------------------------------------------------------------------------*/
FoamFile
{
    version     2.0;
    format      ascii;
    class       volScalarField;
    location    "14640";
    object      Hclip;
}
// * * * * * * * * * * * * * * * * * * * * * * * * * * * * * * * * * * * * * //

dimensions      [0 1 0 0 0 0 0];

internalField   nonuniform List<scalar> 
526318
(
0.862764
0.819762
0.890208
0.804045
0.880529
0.830314
0.848558
0.762273
0.82454
0.700969
0.681527
0.807177
0.750495
0.792623
0.74935
0.775331
0.752987
0.952201
0.855468
0.903943
0.895874
0.854233
0.60756
0.851433
0.741636
0.606737
0.877581
0.875326
0.875334
0.888453
0.918201
0.965628
0.945378
0.825978
0.826562
0.791914
0.801708
0.891193
0.819032
0.776702
0.826754
0.80276
0.460446
0.522038
0.427031
0.469274
0.449656
0.565571
0.74669
0.650981
0.735292
0.730171
0.691092
0.650608
0.151102
0.39163
0.384353
0.185264
0.90017
0.91583
0.935738
0.890627
0.833704
0.964366
0.958192
0.913162
0.907679
0.905962
0.810164
0.800995
0.913369
0.687874
0.746972
0.639651
0.596905
0.585087
0.686484
0.680989
0.594011
0.63202
0.711435
0.719566
0.671317
0.628167
0.65366
0.720776
0.721948
0.700195
0.648711
0.722712
0.625501
0.575614
0.570742
0.502718
0.497918
0.500816
0.502073
0.496645
0.495347
0.496432
0.001
0.001
0.001
0.001
0.0605536
0.001
0.410403
0.211139
0.528084
0.491655
0.536471
0.647797
0.873514
0.771152
0.87752
0.890206
0.950045
0.933672
0.972005
0.492598
0.490312
0.493797
0.498057
0.454727
0.491114
0.40303
0.446023
0.357057
0.404163
0.353881
0.355486
0.345019
0.31958
0.311702
0.337676
0.280968
0.334841
0.284426
0.302604
0.250425
0.25376
0.275934
0.305678
0.291192
0.246589
0.249001
0.263954
0.252815
0.247317
0.253662
0.267646
0.253936
0.256931
0.259075
0.258855
0.221871
0.258648
0.257832
0.22593
0.185656
0.255961
0.211476
0.265887
0.765115
0.849957
0.801608
0.781757
0.586074
0.653509
0.590749
0.587192
0.585961
0.587917
0.606915
0.586577
0.523382
0.491976
0.458539
0.400587
0.459936
0.498827
0.501738
0.498882
0.387566
0.439655
0.327914
0.335463
0.344192
0.33618
0.337767
0.340177
0.330159
0.331867
0.328187
0.317944
0.297924
0.321109
0.314932
0.286831
0.267427
0.293864
0.276748
0.270577
0.287209
0.278691
0.280723
0.243264
0.265353
0.293465
0.291931
0.745926
0.760242
0.78489
0.747365
0.746106
0.744208
0.744764
0.618721
0.660522
0.406421
0.386044
0.383551
0.505732
0.645554
0.513538
0.554556
0.555181
0.501574
0.483439
0.001
0.001
0.115327
0.330658
0.001
0.001
0.001
0.001
0.001
0.001
0.95177
0.941492
0.980964
0.98509
0.944279
0.941746
0.844022
0.935628
0.781623
0.723583
0.722437
0.713785
0.727439
0.724549
0.70309
0.706207
0.627397
0.692695
0.508242
0.560059
0.492728
0.506366
0.00100536
0.001
0.001
0.00100202
0.001
0.001
0.001
0.119131
0.501841
0.319154
0.548779
0.553895
0.667611
0.764157
0.888817
0.885308
0.923029
0.908932
0.971619
1.00078
0.473072
0.470348
0.430198
0.404742
0.300861
0.337824
0.264353
0.274799
0.266129
0.259015
0.246552
0.252355
0.182744
0.203946
0.237626
0.273804
0.327475
0.297905
0.259416
0.254031
0.189396
0.187628
0.23475
0.287833
0.214443
0.246951
0.248812
0.217729
0.213595
0.180835
0.17904
0.139766
0.140774
0.146522
0.130071
0.256102
0.291655
0.259026
0.299295
0.656969
0.617846
0.509101
0.604508
0.523372
0.575492
0.585803
0.57643
0.584899
0.58898
0.498988
0.410163
0.339859
0.323363
0.398279
0.340431
0.327288
0.438911
0.3283
0.378739
0.318665
0.317513
0.326351
0.318815
0.332102
0.326623
0.325353
0.328373
0.328628
0.326092
0.33564
0.330237
0.341153
0.340987
0.344077
0.322667
0.336227
0.318258
0.293908
0.292159
0.318298
0.349548
0.340547
0.321414
0.301661
0.327741
0.368663
0.366814
0.380988
0.337652
0.370941
0.39069
0.428624
0.381393
0.388382
0.41051
0.441704
0.560543
0.639641
0.562143
0.605279
0.671986
0.727274
0.65289
0.513298
0.621904
0.520015
0.543769
0.278423
0.216008
0.253142
0.233919
0.362429
0.477142
0.408403
0.47466
0.479042
0.499662
0.477377
0.001
0.001
0.047749
0.001
0.147475
0.0220331
0.001
0.00100998
0.001
0.00100962
0.001
0.00100889
0.001
0.001
0.001
0.001
0.978067
0.975483
1.00351
1.0018
0.976607
0.944474
0.871859
0.787462
0.715549
0.733935
0.711923
0.71175
0.684355
0.68951
0.669031
0.671842
0.619192
0.661254
0.584677
0.528949
0.474028
0.431072
0.001
0.00107344
0.00107345
0.001
0.001
0.001
0.001
0.00107347
0.00107354
0.00107346
0.00100999
0.00100984
0.001
0.00100942
0.001
0.001
0.001
0.001
0.001
0.001
0.001
0.001
0.034883
0.011164
0.197221
0.0581172
0.418831
0.570557
0.592898
0.676894
0.898664
0.797376
0.917436
0.910451
0.9258
0.959244
0.985643
1.00629
0.389319
0.391622
0.345522
0.368819
0.308635
0.273056
0.266692
0.265278
0.258565
0.267276
0.216828
0.210035
0.158666
0.172517
0.22805
0.200397
0.175092
0.222945
0.215931
0.235423
0.140368
0.131499
0.153192
0.167034
0.169201
0.123596
0.129536
0.121923
0.130536
0.112946
0.11076
0.407955
0.38456
0.387812
0.389484
0.403917
0.520101
0.467495
0.445636
0.335114
0.376621
0.361512
0.367249
0.264751
0.20548
0.381129
0.499378
0.381448
0.39103
0.366519
0.450284
0.430086
0.502948
0.533177
0.460908
0.440025
0.476073
0.352499
0.322693
0.322461
0.325299
0.241938
0.292375
0.218843
0.172436
0.151796
0.269824
0.271133
0.317585
0.317129
0.318357
0.318816
0.318737
0.322622
0.319885
0.330835
0.32325
0.340262
0.334693
0.342991
0.342178
0.368735
0.354381
0.379021
0.382325
0.329681
0.316828
0.379425
0.361801
0.352683
0.365915
0.353012
0.337692
0.390301
0.366457
0.468472
0.474304
0.429537
0.466951
0.478846
0.447268
0.542255
0.508546
0.571143
0.602937
0.61634
0.533493
0.542624
0.537766
0.500708
0.475942
0.449658
0.541079
0.391909
0.370924
0.417682
0.443212
0.117208
0.176895
0.254857
0.372165
0.404111
0.43826
0.345905
0.306721
0.277293
0.216574
0.001
0.001
0.001
0.001
0.0467114
0.117706
0.001
0.001
0.00100979
0.001
0.001
0.001
0.001
0.001
0.001
0.001
0.001
0.001
0.001
0.001
0.001
0.00101
0.001
0.001
0.001
0.001
0.00118997
0.001
0.001
0.001
0.0011898
0.0011895
0.001
0.001
0.001
0.001
0.001
0.001
0.001
0.001
0.00100959
0.001
0.00100965
0.001
0.001
0.001
0.973462
0.987098
1.00795
0.996431
0.972832
0.903865
0.723013
0.803091
0.691078
0.694207
0.676557
0.665791
0.664772
0.660699
0.654688
0.65433
0.601393
0.572912
0.472629
0.515522
0.371356
0.410841
0.00106479
0.001
0.001
0.001
0.001
0.001
0.001
0.001
0.00101
0.001
0.001
0.001
0.001
0.001
0.001
0.001
0.001
0.00100737
0.001
0.001
0.001
0.001
0.001
0.001
0.001
0.001
0.00101
0.001
0.001
0.001
0.0782585
0.001
0.0968347
0.0887741
0.383165
0.225498
0.594013
0.561094
0.625564
0.727566
0.835764
0.912598
0.927404
0.912808
0.951261
0.987236
0.970627
0.972192
0.00115492
0.001
0.001
0.001
0.001
0.001
0.001
0.001
0.001
0.001
0.001
0.001
0.001
0.001
0.001
0.00101
0.001
0.369049
0.371738
0.369923
0.334259
0.255391
0.291223
0.218521
0.210487
0.175967
0.167946
0.121947
0.120798
0.156357
0.141638
0.103909
0.147366
0.138236
0.189204
0.176147
0.168012
0.0949423
0.060794
0.062536
0.107338
0.111435
0.114298
0.0922386
0.0953002
0.0568816
0.04468
0.00623389
0.012209
0.605906
0.581917
0.615618
0.629833
0.573057
0.536757
0.705153
0.727026
0.790224
0.797046
0.343343
0.390807
0.432923
0.519884
0.342812
0.286842
0.327175
0.32348
0.163914
0.208891
0.266848
0.149897
0.365397
0.36529
0.368694
0.366628
0.384486
0.367358
0.381796
0.395373
0.275913
0.269353
0.169894
0.253153
0.246559
0.206338
0.153375
0.178734
0.11906
0.137708
0.118935
0.203697
0.266534
0.198552
0.264733
0.318409
0.315872
0.317423
0.319385
0.322574
0.341709
0.33441
0.352531
0.347135
0.370451
0.364687
0.385695
0.38551
0.388982
0.385229
0.394243
0.391796
0.427877
0.398942
0.369006
0.367554
0.434421
0.399853
0.409425
0.444562
0.489657
0.489513
0.493521
0.488654
0.52458
0.574931
0.636571
0.657259
0.662598
0.642012
0.783333
0.726093
0.85268
0.893433
0.881548
0.919232
0.977579
0.842397
0.928048
0.949184
1.02453
1.07333
1.0999
1.11987
1.15059
1.09505
1.14917
1.10627
1.1879
1.18985
1.23427
1.20177
1.26726
1.29459
1.28899
1.23299
1.30124
1.32269
1.28961
1.28544
1.35186
1.32878
1.36108
1.29877
1.29946
1.36495
1.33151
1.2842
1.2857
1.31889
1.3504
0.337788
0.308222
0.474685
0.469064
0.440744
0.43752
0.435808
0.205122
0.338731
0.0398018
0.0654754
0.163971
0.155003
0.025499
0.110334
0.0842098
0.278632
0.178376
0.172487
0.0861329
0.0809388
0.0937401
0.108952
0.001
0.00101
0.001
0.001
0.001
0.001
0.00101
0.001
0.001
0.001
0.001
0.00169325
0.001
0.001
0.001
0.001
0.001
0.001
0.001
0.001
0.00136993
0.001
0.001
0.001
0.001
0.001
0.001
0.001
0.001
0.001
0.00100829
0.001
0.001
0.001
0.00100928
0.001
0.001
0.00104717
0.001
0.00100665
0.001
0.001
0.00101
0.001
0.00105057
0.001
0.00105055
0.001
0.00100234
0.001
0.00101
0.00101
0.001
0.001
0.001
0.001
0.001
0.001
0.001
0.001
0.0010078
0.001
0.001
0.001
0.001
0.001
0.001
0.001
0.001
0.00101
0.001
0.001
0.962192
0.954757
0.928752
0.923749
0.846408
0.912527
0.740676
0.66969
0.66123
0.662567
0.663234
0.661239
0.600011
0.60673
0.452605
0.410404
0.372988
0.544959
0.543242
0.492942
0.495675
0.493871
0.001
0.001
0.00109209
0.00109189
0.001
0.001
0.001
0.001
0.00109175
0.001
0.001
0.00100893
0.001
0.001
0.001
0.001
0.001
0.001
0.001
0.001
0.001
0.001
0.00139971
0.00139983
0.001
0.001
0.001
0.0973116
0.220839
0.0933955
0.388482
0.55182
0.589259
0.613968
0.699916
0.811314
0.877366
0.851884
0.897141
0.834831
0.885021
0.925421
0.882096
0.880023
0.00102195
0.001
0.00101
0.001
0.001
0.00119341
0.001
0.001
0.00119341
0.001
0.001
0.001
0.001
0.001
0.001
0.001
0.001
0.001
0.00101
0.001
0.001
0.001
0.001
0.001
0.00205777
0.00100846
0.34569
0.344696
0.260665
0.280982
0.158737
0.182656
0.12015
0.119103
0.119593
0.119518
0.0936865
0.0936667
0.0686442
0.071302
0.0470783
0.0772469
0.167953
0.112418
0.167963
0.156096
0.001
0.00281114
0.0415952
0.0216955
0.0341636
0.0356665
0.001
0.001
0.001
0.001
0.0012045
0.001
0.831794
0.83306
0.661013
0.576617
0.559974
0.549645
0.830252
0.743966
0.990586
1.06235
0.957058
0.887362
1.07519
1.0599
1.1238
1.17293
1.20326
1.20092
1.23013
1.20244
1.25914
1.2836
1.28206
1.28076
1.30152
1.2864
1.28395
1.33148
1.27579
1.27106
0.396485
0.324134
0.466117
0.535818
0.324645
0.262627
0.324152
0.32533
0.155321
0.205116
0.0396072
0.20328
0.0951103
0.365545
0.307715
0.363383
0.356432
0.368825
0.262064
0.16338
0.0839291
0.0689043
0.0847311
0.121624
0.049473
0.033582
0.001
0.0438425
0.131535
0.124311
0.0457393
0.144823
0.214659
0.157177
0.265799
0.210943
0.253125
0.310772
0.348216
0.322856
0.356761
0.357877
0.370246
0.358743
0.3919
0.404429
0.40212
0.4172
0.42033
0.420533
0.455628
0.468284
0.459168
0.45178
0.453295
0.450016
0.465004
0.481307
0.529537
0.518017
0.492786
0.5208
0.515404
0.551924
0.586016
0.645606
0.674076
0.676295
0.689009
0.752268
0.841278
0.909238
0.926005
1.04857
0.921907
0.974275
1.12641
1.14835
1.15303
1.18513
1.24006
1.28426
1.29789
1.29974
1.32675
1.35557
1.38158
1.3826
1.38433
1.38361
1.38254
1.3663
1.29914
1.36482
1.33559
1.28877
1.2863
1.32005
1.35028
1.36017
1.28896
1.34744
1.3083
0.13306
0.128364
0.199005
0.26949
0.166622
0.227628
0.360814
0.300143
0.329492
0.158767
0.0639473
0.0301689
0.0296396
0.131031
0.122887
0.001
0.00102495
0.0797473
0.001
0.077726
0.0823449
0.0899189
0.0771532
0.093383
0.110632
0.001
0.001
0.001
0.001
0.00148787
0.0014941
0.001
0.001
0.001
0.00169312
0.001
0.001
0.001
0.001
0.001
0.00101
0.001
0.00136955
0.001
0.00101
0.001
0.001
0.001
0.001
0.001
0.001
0.00105198
0.001
0.001
0.001
0.001
0.001
0.001
0.001
0.001
0.001
0.001
0.001
0.001
0.001
0.001
0.00102289
0.001
0.001
0.001
0.001
0.001
0.001
0.001
0.00101
0.001
0.00100962
0.001
0.001
0.001
0.001
0.001
0.001
0.001
0.001
0.875351
0.875807
0.857898
0.86122
0.78684
0.861977
0.66696
0.725953
0.618781
0.622692
0.565886
0.550382
0.492948
0.494234
0.409746
0.305031
0.282428
0.449581
0.494534
0.494977
0.495306
0.495031
0.00109186
0.001
0.00109226
0.001
0.001
0.001
0.001
0.001
0.00100548
0.001
0.001
0.001
0.001
0.001
0.001
0.00100999
0.001
0.001
0.001
0.001
0.001
0.001
0.001
0.00101
0.001
0.001
0.0575413
0.096356
0.288379
0.119961
0.425907
0.560151
0.531993
0.642918
0.814354
0.708924
0.789343
0.789485
0.784769
0.811241
0.868902
0.863068
0.871756
0.840184
0.001
0.001
0.001
0.001
0.001
0.001
0.001
0.001
0.001
0.001
0.001
0.001
0.001
0.001
0.001
0.001
0.001
0.001
0.001
0.00100999
0.001
0.001
0.00193483
0.001
0.00101
0.001
0.001
0.001
0.001
0.001
0.001
0.219584
0.220442
0.18256
0.163407
0.120748
0.142093
0.105688
0.106381
0.263053
0.201147
0.18384
0.0358757
0.0456026
0.001
0.001
0.0418763
0.0424088
0.0344427
0.0800531
0.129536
0.0931378
0.128308
0.104845
0.0029033
0.001
0.00106195
0.0170434
0.001
0.00100971
0.001
0.001
0.001
0.001
0.001
0.001
1.40332
1.41594
1.44365
1.41778
1.4649
1.4487
1.47263
1.46637
1.52034
1.50669
1.4743
1.5259
1.49254
1.5419
1.37416
1.32804
1.34722
1.39511
1.37636
1.34617
1.34745
1.39976
1.4066
1.38094
1.36371
1.41222
1.39607
1.40289
1.42986
1.28662
1.28511
1.28682
1.28542
1.30481
1.32806
0.875038
0.824736
0.722009
0.6228
0.532774
0.613675
0.813448
0.798015
1.03826
1.05637
0.949097
1.02228
1.06558
1.11198
1.16043
1.20185
1.19919
1.19999
1.19843
1.22845
1.24082
1.26822
1.25534
1.2597
1.26283
1.27318
1.2499
1.25179
0.445248
0.377094
0.315503
0.301968
0.370377
0.537141
0.515257
0.237183
0.308656
0.166578
0.113277
1.39039
1.41124
1.42414
1.43294
1.43877
1.44876
1.4559
1.47968
1.47014
1.48512
1.48512
1.53387
1.55676
1.5782
1.57607
1.58078
1.59853
1.62008
0.0855732
0.0290432
0.0312173
0.290748
0.180004
0.348599
0.253974
0.169051
0.0709381
0.071197
0.0688982
0.0718376
0.001
0.001
0.001
0.001
0.001
0.001
0.13676
0.0691932
0.001
0.159611
0.160127
0.162096
0.215503
0.175327
0.300501
0.247909
0.335422
0.299202
0.334043
0.359967
0.381466
0.405557
0.427036
0.426122
0.433378
0.427564
0.485375
0.47549
0.463143
0.46385
0.517811
0.493345
0.560677
0.523601
0.505574
0.546856
0.591679
0.582597
0.607338
0.643051
0.643722
0.587842
0.694004
0.726765
0.697905
0.683515
0.770463
0.849262
0.924911
0.988436
0.936374
0.953679
1.08444
1.14206
1.18933
1.16639
1.23587
1.26379
1.30586
1.32193
1.31371
1.33606
1.39348
1.37142
1.38689
1.39365
1.38211
1.38324
1.38589
1.38387
1.38218
1.3808
1.38126
0.12015
0.105234
0.123732
0.0523323
0.0711508
0.0904339
0.0241211
0.166817
0.0696145
0.00676493
0.0252837
0.00795661
0.001
0.001
0.0312161
0.001
0.001
0.001
0.001
0.078609
0.00108801
0.001
0.00100684
0.001
0.001
0.001
0.001
0.001
0.00112592
0.00112591
0.00148249
0.001
0.00101
0.001
0.001
0.001
0.001
0.001
0.001
0.001
0.00100984
0.001
0.00112585
0.001
0.001
0.001
0.00101
0.001
0.001
0.001
0.001
0.00241227
0.001
0.001
0.001
0.001
0.001
0.001
0.00100993
0.001
0.001
0.001
0.001
0.001
0.00101492
0.001
0.001
0.001
0.001
0.00101487
0.001
0.001
0.001
0.001
0.001
0.001
0.001
0.001
0.00101
0.001
0.001
0.001
0.001
0.001
0.001
0.001
0.001
0.001
0.001
0.00209391
0.001
0.001
0.001
0.001
0.00209387
1.56766
1.53651
1.51069
1.61718
1.65047
1.64434
0.851274
0.859088
0.846654
0.836803
0.764462
0.822019
0.663099
0.581963
0.508477
0.5201
0.493909
0.493925
0.493584
0.495339
0.368787
0.290243
0.380203
0.459008
0.458901
0.001
0.001
0.001
0.001
0.001
0.001
0.001
0.001
0.001
0.001
0.00100943
0.001
0.001
0.0542557
0.0906486
0.11993
0.00100998
0.001
0.001
0.001
0.001
0.001
0.001
0.001
0.001
0.001
0.001
0.262628
0.401572
0.515504
0.513653
0.834095
0.753406
0.765354
0.551374
0.646947
0.727741
0.784829
0.789488
0.779657
0.796257
0.829044
0.82755
0.001
0.00116028
0.001
0.001
0.001
0.001
0.00100904
0.001
0.001
0.001
0.001
0.001
0.001
0.001
0.001
0.001
0.001
0.00100504
0.001
0.001
0.001
0.001
0.001
0.001
0.001
0.001
0.001
0.001
0.001
0.001
0.00101
0.001
0.001
0.001
0.001
0.001
0.001
0.220222
0.252504
0.243315
0.186228
0.183956
0.15573
0.176407
0.0459309
0.0726253
0.001
0.001
0.186303
0.173725
0.001
0.001
0.001
0.001
0.001
0.001
0.0145882
0.001
0.0852488
0.034695
0.0830664
0.091229
0.001
0.001
0.001
0.001
0.001
0.001
0.001
0.001
0.001
0.001
0.001
0.001
1.40439
1.4187
1.44065
1.46527
1.46992
1.47352
1.5054
1.48928
1.34132
1.34019
1.32421
1.34286
1.37432
1.33668
1.38124
1.3556
1.2746
1.2603
1.25803
1.29321
1.32156
1.29509
0.879801
0.809106
0.699266
0.793103
0.640092
0.546557
0.803354
0.804153
1.04673
1.04247
1.05994
0.962464
1.03139
1.14515
1.09316
1.04039
1.07645
1.17852
1.19093
1.18102
1.18852
1.19496
1.21997
1.24838
1.23585
1.25117
1.24433
1.24996
1.24565
1.24649
1.24999
0.281988
0.297982
0.431407
0.511613
0.288472
0.36876
0.53201
0.545918
0.29037
0.22624
0.137798
0.20056
1.4175
1.37971
1.39887
1.44198
1.44168
1.44471
1.45608
1.47717
1.5025
1.51472
1.51095
1.51401
1.53963
1.57862
1.55954
1.58053
1.59876
1.64362
1.62142
1.45048
1.46234
1.48065
1.65459
1.6492
1.65083
0.030805
0.0289705
0.0308746
0.001
0.10128
0.113907
0.001
0.001
0.001
0.001
0.001
0.001
0.001
0.00101
0.001
0.00100987
0.001
0.001
0.0149292
0.001
0.00188288
0.0900483
0.167291
0.0787717
0.23359
0.264367
0.195552
0.236084
0.29861
0.262505
0.390049
0.329628
0.402133
0.417411
0.424549
0.413224
0.465458
0.505902
0.542595
0.540555
0.550121
0.531989
0.559475
0.539882
0.589287
0.59507
0.620651
0.616423
0.593776
0.598546
0.715376
0.761583
0.658562
0.725865
0.772768
0.733848
0.834208
0.877957
0.977931
1.01541
0.992972
1.08506
1.14007
1.2415
1.22582
1.28536
1.26025
1.35368
1.36097
1.35465
1.38102
1.41
1.41122
1.46534
1.43174
1.45467
1.42
1.42186
1.4539
1.38318
1.41837
1.38453
0.001
0.001
0.001
0.001
0.0466418
0.0267285
0.0269954
0.00788566
0.0259532
0.001
0.001
0.001
0.001
0.001
0.001
0.001
0.001
0.001
0.001
0.001
0.001
0.001
0.001
0.001
0.001
0.00102979
0.001
0.001
0.0011259
0.0011259
0.001
0.001
0.001
0.001
0.00101
0.001
0.0010004
0.001
0.001
0.001
0.001
0.001
0.00219457
0.001
0.001
0.001
0.001
0.001
0.00101
0.001
0.001
0.00219788
0.001
0.001
0.001
0.00100982
0.00130584
0.001
0.00100983
0.001
0.001
0.001
0.00101
0.001
0.00101435
0.00101394
0.001
0.001
0.0010147
0.00101418
0.001
0.001
0.001
0.001
0.00160116
0.001
0.00160104
0.001
0.001
0.001
0.001
0.00100984
0.00101
0.00100994
0.001
0.001
0.001
0.001
0.001
0.001
0.001
0.001
0.001
0.001
0.00130578
0.001
0.00100958
0.00100997
0.001
0.001
0.001
0.001
0.00101
1.53875
1.54525
1.55523
1.54846
1.58616
1.69338
1.66226
1.66623
1.69549
1.62906
0.761649
0.755012
0.689523
0.692904
0.641164
0.671923
0.589215
0.540978
0.524957
0.491877
0.468238
0.468905
0.380095
0.392272
0.259243
0.29814
0.299007
0.001
0.001
0.001
0.00101
0.001
0.001
0.001
0.0885748
0.23396
0.0915921
0.001
0.001
0.001
0.001
0.001
0.001
0.00101
0.001
0.001
0.00102151
0.001
0.001
0.001
0.001
0.001
0.624444
0.625463
0.681787
0.375174
0.515037
0.514079
0.550922
0.679699
0.738002
0.703447
0.614172
0.694647
0.721368
0.726617
0.647889
0.680094
0.001
0.001
0.00116031
0.00101
0.001
0.001
0.00101
0.00117463
0.001
0.001
0.001
0.001
0.001
0.001
0.001
0.00102815
0.001
0.00102827
0.00102818
0.00101
0.001
0.001
0.001
0.001
0.001
0.00100577
0.001
0.001
0.001
0.001
0.00108659
0.001
0.00100563
0.001
0.001
0.001
0.001
0.001
0.001
0.001
0.001
0.001
0.001
0.001
0.00102821
0.236291
0.2493
0.257196
0.126593
0.146368
0.106452
0.107063
0.0325977
0.0231594
0.00130189
0.001
0.001
0.00130229
0.0385978
0.0327824
0.001
0.001
0.001
0.001
0.001
0.00102484
0.001
0.001
0.0770265
0.0428978
0.105483
0.0577485
0.001
0.00119944
0.001
0.0010248
0.001
0.001
0.001
0.001
0.00101
0.001
0.001
0.00119942
1.40834
1.35831
1.44485
1.40555
1.41187
1.46597
1.45348
1.50745
1.47745
1.52065
1.48277
1.45664
1.52591
1.48243
1.30666
1.30738
1.29701
1.31068
1.32227
1.33411
1.32964
1.33865
1.24829
1.24679
1.27204
1.25521
1.28539
1.29316
0.886173
0.810261
0.723091
0.806209
0.594863
0.695134
0.800612
0.812095
1.04004
1.03139
1.03542
0.967365
1.12519
1.16906
1.07892
1.03813
1.17535
1.176
1.19093
1.17594
1.21067
1.237
1.24235
1.24145
1.24045
1.24227
1.24806
1.24925
1.2452
1.24095
0.288062
0.273304
0.456154
0.524631
0.42733
0.349299
0.585441
0.526392
0.258856
0.28267
0.251975
0.180714
1.42209
1.4558
1.43574
1.46388
1.48565
1.47343
1.50712
1.52119
1.49977
1.51318
1.49964
1.50946
1.51587
1.53855
1.5624
1.57859
1.58065
1.63373
1.61098
1.6608
1.66626
1.53378
1.54613
1.66191
1.67019
0.001
0.001
0.001
0.001
0.001
0.001
0.001
0.001
0.00101
0.001
0.001
0.001
0.001
0.001
0.001
0.001
0.00188284
0.001
0.001
0.001
0.001
0.0169694
0.164734
0.064289
0.251647
0.252386
0.215984
0.170935
0.291511
0.331368
0.390775
0.378879
0.403325
0.3885
0.510264
0.455883
0.55766
0.550563
0.578812
0.580476
0.560631
0.612448
0.65905
0.630171
0.616566
0.641654
0.692282
0.680032
0.656677
0.704803
0.787457
0.789057
0.779723
0.804626
0.930732
0.845983
1.01394
1.04171
1.04073
1.1105
1.18555
1.26231
1.26985
1.28197
1.32685
1.37717
1.41056
1.41368
1.45132
1.4247
1.47893
1.49197
1.49228
1.49206
1.49011
1.49185
1.45848
1.48573
1.45989
0.001
0.001
0.00722431
0.00102496
0.001
0.001
0.001
0.001
0.001
0.001
0.001
0.00145387
0.001
0.00145985
0.00145168
0.00145424
0.00146032
0.001
0.00145752
0.0070886
0.001
0.001
0.001
0.00102993
0.001
0.00102979
0.0010298
0.001
0.001
0.00100217
0.001
0.001
0.001
0.001
0.00101
0.00128624
0.001
0.001
0.00100986
0.001
0.001
0.001
0.00186939
0.001
0.001
0.001
0.001
0.001
0.001
0.001
0.001
0.001
0.00100941
0.001
0.001
0.001
0.00100992
0.001
0.001
0.001
0.00101
0.001
0.001
0.001
0.001
0.001
0.001
0.0010008
0.001
0.001
0.001
0.00100949
0.001
0.001
0.001
0.001
0.001
0.001
0.001
0.001
0.001
0.001
0.00101
0.001
0.001
0.001
0.001
0.001
0.001
0.001
0.001
0.001
0.001
0.001
0.001
0.001
0.001
0.001
0.001
0.001
0.001
0.001
0.001
0.001
0.001
0.001
0.001
0.001
0.001
0.001
0.001
0.001
0.0010637
0.001
0.001
0.001
0.001
1.71319
1.70772
1.72002
1.71397
1.72248
1.71779
1.56324
1.54773
1.63466
1.59273
1.70368
1.7229
1.68641
1.59722
1.52475
0.631308
0.62393
0.628065
0.614811
0.622541
0.555706
0.604302
0.387687
0.444106
0.309997
0.311375
0.259171
0.258133
0.258015
0.001
0.001
0.001
0.001
0.0654925
0.258925
0.0858215
0.001
0.001
0.0416501
0.001
0.001
0.001
0.001
0.001
0.001
0.001
0.00103192
0.00103203
0.001
0.00103195
0.001
0.001
0.001
0.629285
0.627213
0.628977
0.635334
0.624259
0.343695
0.454887
0.404566
0.519859
0.582263
0.602369
0.536122
0.622814
0.569529
0.568702
0.556905
0.001
0.00109671
0.001
0.001
0.001
0.001
0.001
0.00101457
0.001
0.001
0.00101252
0.001
0.001
0.001
0.00102005
0.001
0.001
0.001
0.001
0.001
0.001
0.001
0.001
0.001
0.001
0.00100955
0.001
0.001
0.001
0.001
0.001
0.001
0.001
0.001
0.001
0.001
0.00108695
0.001
0.00108664
0.001
0.001
0.001
0.001
0.001
0.00100037
0.001
0.001
0.001
0.001
0.001
0.00101
0.001
0.001
0.001
0.001
0.001
0.001
0.237999
0.162008
0.154763
0.082153
0.0741696
0.001
0.001
0.001
0.001
0.001
0.00100615
0.001
0.001
0.001
0.001
0.001
0.001
0.001
0.001
0.001
0.001
0.0400986
0.098606
0.0209829
0.001
0.001
0.001
0.001
0.00100112
0.001
0.001
0.001
0.001
0.00184202
0.00183867
0.001
0.001
0.001
0.001
0.00100972
0.001
1.37308
1.35928
1.3725
1.37048
1.38814
1.3894
1.41655
1.4616
1.45003
1.45845
1.53228
1.4864
1.45173
1.29578
1.29565
1.32366
1.30918
1.33421
1.33467
1.35511
1.34101
1.24674
1.25405
1.27518
1.26199
1.27656
1.2846
0.925984
0.845729
0.762418
0.808711
0.755026
0.65624
0.844126
0.800081
1.0417
1.03652
1.00012
1.043
1.13226
1.17812
1.04135
1.08598
1.18067
1.17927
1.20006
1.18136
1.22298
1.24011
1.23531
1.24739
1.23354
1.24315
1.2438
1.24287
1.23938
1.23914
0.281943
0.335786
0.523138
0.510835
0.43387
0.502569
0.52788
0.602949
0.272742
0.270925
0.265563
0.182628
0.0175949
0.0560495
0.150758
1.49274
1.49238
1.52258
1.51535
1.53945
1.55109
1.54919
1.54908
1.58526
1.56336
1.57649
1.54314
1.57619
1.58485
1.61054
1.62976
1.64508
1.64363
1.69208
1.69462
1.71646
1.69332
1.60447
1.61135
1.72683
1.72014
0.001
0.001
0.00101
0.001
0.001
0.00124845
0.00124859
0.001
0.001
0.001
0.001
0.00207803
0.00102515
0.001
0.001
0.001
0.00100232
0.001
0.00474099
0.001
0.001
0.0565016
0.0975797
0.117803
0.0989805
0.200666
0.271524
0.153263
0.372526
0.317298
0.383829
0.385869
0.472957
0.415177
0.537008
0.568412
0.565627
0.571529
0.694704
0.66019
0.631788
0.683671
0.708003
0.702426
0.697542
0.685473
0.702473
0.704587
0.780087
0.828326
0.86368
0.818374
0.864237
0.887675
1.03031
0.960031
1.05301
1.04478
1.12316
1.20031
1.28562
1.2815
1.3142
1.35461
1.43026
1.41676
1.44169
1.44666
1.47752
1.48355
1.50553
1.49432
1.50619
1.50211
1.4922
1.50247
1.49018
1.49222
0.001
0.001
0.00101
0.001
0.001
0.001
0.001
0.001
0.001
0.00145674
0.001
0.001
0.001
0.00145196
0.00145475
0.00145465
0.00145803
0.00145814
0.00145564
0.001
0.001
0.00100126
0.001
0.001
0.001
0.00100179
0.001
0.001
0.001
0.001
0.001
0.00101
0.001
0.001
0.00100863
0.00128657
0.001
0.001
0.001
0.00367415
0.001
0.001
0.001
0.00100989
0.001
0.001
0.001
0.00100983
0.001
0.001
0.00100647
0.001
0.00100976
0.001
0.001
0.001
0.001
0.001
0.00361697
0.001
0.001
0.001
0.001
0.001
0.00125648
0.00125639
0.00125641
0.001
0.001
0.001
0.001
0.001
0.001
0.001
0.001
0.001
0.001
0.001
0.001
0.001
0.001
0.001
0.001
0.001
0.001
0.001
0.001
0.001
0.001
0.001
0.001
0.001
0.001
0.001
0.001
0.001
0.001
0.001
0.001
0.001
0.001
0.001
0.001
0.001
0.001
0.001
0.00101
0.001
0.00144253
0.001
0.00111214
0.001
0.00110616
0.001
0.001
0.001
1.73344
1.75485
1.76401
1.72165
1.72869
1.71189
1.7233
1.62838
1.64292
1.64917
1.65339
1.68491
1.70309
1.71619
1.56194
1.5739
1.51266
1.57347
1.55699
0.622916
0.617485
0.524617
0.483209
0.585052
0.515676
0.524611
0.394943
0.421406
0.2853
0.257977
0.257334
0.258031
0.234855
0.001
0.001
0.172928
0.285777
0.0626669
0.001
0.001
0.0195702
0.0124434
0.001
0.001
0.001
0.001
0.001
0.001
0.001
0.001
0.00101
0.001
0.001
0.001
0.001
0.001
0.001
0.582112
0.630159
0.603183
0.580999
0.344389
0.346602
0.370337
0.438733
0.560033
0.553822
0.508839
0.555479
0.555502
0.00100999
0.001
0.001
0.001
0.001
0.001
0.00113279
0.00113365
0.001
0.001
0.00101
0.00100946
0.001
0.001
0.00100846
0.001
0.0010099
0.00385912
0.001
0.001
0.001
0.001
0.001
0.001
0.001
0.00108657
0.001
0.001
0.00104913
0.001
0.001
0.001
0.001
0.001
0.001
0.001
0.001
0.001
0.001
0.001
0.001
0.001
0.001
0.001
0.001
0.001
0.001
0.001
0.001
0.001
0.001
0.0020354
0.001
0.001
0.001
0.001
0.001
0.001
0.001
0.001
0.001
0.001
0.001
0.151949
0.068108
0.067426
0.00932529
0.001
0.001
0.001
0.001
0.00532939
0.001
0.001
0.001
0.001
0.001
0.001
0.001
0.001
0.001
0.001
0.001
0.001
0.001
0.001
0.001
0.00676359
0.001
0.001
0.001
0.001
0.0658818
0.0226855
0.001
0.001
0.001
0.00122228
0.00101
0.001
0.001
0.001
0.001
0.00100999
0.001
0.001
1.37621
1.35743
1.42447
1.38284
1.385
1.40783
1.43324
1.41424
1.43464
1.48667
1.44032
1.5163
1.48879
1.55257
1.27401
1.29882
1.29474
1.31866
1.29799
1.32263
1.35036
1.31523
1.24435
1.25415
1.25715
1.26491
1.26686
1.26685
0.979169
0.89761
0.783827
0.808672
0.707534
0.802481
0.808734
0.869851
1.04434
1.04551
1.04521
1.02365
1.13532
1.18256
1.10188
1.05567
1.18342
1.1835
1.19035
1.20958
1.22767
1.22478
1.22537
1.24478
1.24086
1.23785
1.23853
1.23999
1.24214
1.23657
0.356737
0.274826
0.530706
0.539402
0.448829
0.541144
0.541263
0.640108
0.267978
0.265706
0.243481
0.226714
0.169365
0.266402
1.50694
1.52428
1.54561
1.57942
1.57189
1.59594
1.60482
1.61603
1.62151
1.61107
1.61913
1.64292
1.66217
1.6777
1.67465
1.6855
1.70657
1.72143
1.73345
1.73454
1.74225
1.62187
1.61299
1.76317
1.78375
0.001
0.001
0.001
0.001
0.001
0.001
0.001
0.001
0.001
0.00207796
0.001
0.001
0.001
0.001
0.001
0.00105227
0.00105227
0.001
0.001
0.001
0.001
0.0502317
0.137148
0.130399
0.0423713
0.193686
0.20869
0.292321
0.352001
0.326462
0.40087
0.344329
0.537285
0.458531
0.566858
0.570617
0.587367
0.643836
0.773458
0.779141
0.723409
0.748714
0.781853
0.729788
0.838547
0.760995
0.738796
0.77973
0.906124
0.919907
0.981234
1.03815
0.918691
1.01123
1.15222
1.10755
1.1768
1.14082
1.33786
1.30135
1.36996
1.38388
1.45335
1.46938
1.52694
1.49543
1.5431
1.5236
1.54231
1.58026
1.54751
1.5818
1.58805
1.54574
1.5359
1.57856
1.57722
1.547
0.001
0.001
0.00101
0.001
0.001
0.001
0.001
0.001
0.001
0.0010751
0.001
0.001
0.001
0.001
0.001
0.001
0.001
0.00147152
0.001
0.001
0.00142761
0.00100976
0.001
0.001
0.00120405
0.001
0.001
0.001
0.001
0.001
0.00148964
0.00100995
0.001
0.001
0.001
0.001
0.001
0.001
0.001
0.001
0.001
0.001
0.001
0.001
0.001
0.001
0.00101364
0.00101368
0.00101379
0.001
0.001
0.001
0.001
0.00121199
0.001
0.001
0.00121191
0.001
0.001
0.001
0.00100996
0.00144247
0.001
0.00115986
0.001
0.001
0.001
0.001
0.00101
0.001
0.001
0.001
0.001
0.001
0.001
0.001
0.001
0.001
0.001
0.001
0.001
0.001
0.001
0.001
0.001
0.001
0.001
0.001
0.001
0.001
0.001
0.001
0.001
0.001
0.001
0.001
0.001
0.001
0.001
0.001
0.001
0.001
0.001
0.001
0.001
0.001
0.001
0.001
0.001
0.001
0.001
0.001
0.001
0.001
0.001
0.001
0.001
0.00111214
0.001
0.001
0.001
0.00115986
0.001
0.001
1.78815
1.77287
1.78684
1.76266
1.7551
1.77647
1.76408
1.73948
1.75948
1.62559
1.64987
1.63825
1.65049
1.71818
1.77039
1.78109
1.67898
1.56372
1.60438
1.55806
1.5432
1.55215
1.60231
1.47648
0.383335
0.486989
0.389248
0.426526
0.428537
0.335323
0.330208
0.337831
0.338469
0.339198
0.312031
0.23217
0.204266
0.123597
0.123879
0.234056
0.346834
0.001
0.001
0.0126915
0.0122973
0.001
0.00100999
0.001
0.001
0.00100155
0.001
0.00104361
0.001
0.001
0.001
0.001
0.00102965
0.001
0.00102924
0.001
0.00100507
0.492642
0.41842
0.396799
0.47891
0.344627
0.371139
0.508038
0.434896
0.481318
0.55554
0.55205
0.00110047
0.001
0.001
0.00114992
0.001
0.001
0.00113346
0.001
0.001
0.001
0.00100995
0.001
0.001
0.001
0.001
0.001
0.00385794
0.003858
0.001
0.001
0.00386001
0.001
0.00203543
0.001
0.001
0.001
0.001
0.00357819
0.001
0.00104922
0.00359856
0.001
0.001
0.001
0.001
0.001
0.001
0.001
0.001
0.001
0.001
0.001
0.001
0.00101
0.001
0.001
0.001
0.001
0.001
0.001187
0.001
0.001
0.001
0.00101
0.001
0.001
0.001
0.001
0.001
0.001
0.001
0.001
0.001
0.001
0.001
0.001
0.001
0.001
0.001
0.001
0.001
0.001
0.001
0.00854403
0.00847185
0.0390204
0.00330831
0.00611182
0.001
0.001
0.001
0.001
0.001
0.001
0.001
0.001
0.00162201
0.001
0.001
0.001
0.001
0.001
0.001
0.00162201
0.001
0.001
0.001
0.001
0.001
0.001
0.001
0.0158161
0.001
0.045618
0.139049
0.064962
0.001
0.00101
0.00101
0.001
0.00101
0.001
0.001
0.001
0.001
0.001
0.001
0.001
1.33054
1.32822