/*--------------------------------*- C++ -*----------------------------------*\
  =========                 |
  \\      /  F ield         | OpenFOAM: The Open Source CFD Toolbox
   \\    /   O peration     | Website:  https://openfoam.org
    \\  /    A nd           | Version:  8
     \\/     M anipulation  |
\*---------------------------------------------------------------------------*/
FoamFile
{
    version     2.0;
    format      ascii;
    class       volScalarField;
    location    "14640";
    object      nut;
}
// * * * * * * * * * * * * * * * * * * * * * * * * * * * * * * * * * * * * * //

dimensions      [0 2 -1 0 0 0 0];

internalField   nonuniform List<scalar> 
526318
(
0.000220435
0.000150463
0.000141598
0.000120747
0.000185647
0.000120754
0.000236093
0.000244905
0.000114721
0.000228901
0.000200422
0.000260036
0.000255527
0.000210475
0.000184675
9.15711e-05
0.000180631
0.000217154
0.000108925
0.00010956
0.000150988
0.000150781
0.000275773
0.000105457
0.00031325
2.31877e-05
0.000143232
0.000170539
8.34732e-05
0.000130172
0.000118057
0.000136187
0.000174043
0.00020601
0.000186633
0.000182317
0.000148354
0.000103136
0.000204899
0.000163085
2.4064e-05
0.000233868
0.000208873
0.000560447
0.000164486
0.000426802
0.000134909
0.000201227
0.000235962
0.000104269
8.67233e-05
0.000165073
6.61249e-05
0.000134986
0.000311535
0.000659865
0.000409895
0.00027824
0.000121507
0.000187272
0.000170424
0.000183324
0.000163348
0.000149133
0.000253415
0.000113306
0.000130937
0.000157623
6.93155e-05
0.000147945
6.17583e-05
5.1758e-05
0.000179547
1.43066e-05
7.91252e-05
9.64915e-05
0.000177157
0.000111997
3.02905e-05
8.3445e-05
8.26161e-05
0.000153802
0.000101113
5.91011e-05
4.85272e-05
9.56365e-05
0.000125108
0.000126202
0.000106467
0.00019041
4.16562e-05
9.03852e-05
7.24309e-05
7.46759e-05
0.000200458
0.000110275
9.35837e-05
0.00011397
0.00012207
0.000129607
0
0
0
0
8.98689e-05
0
0.000344732
0.000300529
0.000379199
0.000220856
0.000242462
0.000343067
0.000120817
0.000340598
0.000143081
7.5016e-05
0.000107971
0.000130829
0.000218559
0.000158929
0.000137901
0.000166786
0.000122228
0.000149929
0.000148081
0.000155669
0.000153669
0.000146431
0.000125577
0.000124115
0.000169585
0.000162812
0.000114723
0.000151174
0.000118589
0.000137273
0.000156345
9.14445e-05
0.000123691
0.000104742
9.71965e-05
0.000110128
0.000143737
0.000135356
0.000114174
0.000123262
0.000108378
0.000110366
8.93503e-05
0.00010247
0.000110956
0.000107724
0.000107985
0.000124328
9.55507e-05
9.49046e-05
9.68584e-05
0.000114317
9.64202e-05
5.94375e-05
5.50057e-05
8.82901e-05
6.49358e-05
0.000151276
0.000112378
0.000180506
9.38434e-05
5.34209e-05
2.25819e-05
4.09121e-05
2.96736e-05
2.16756e-05
5.57598e-05
8.72422e-05
4.48289e-05
8.71091e-05
9.63752e-05
8.58828e-05
6.54783e-05
5.14019e-05
0.000100442
6.54261e-05
0.000144631
0.00018257
0.000106856
0.000161269
0.00013759
0.000127212
0.000166055
0.000134101
0.00016365
0.000135032
0.000163917
0.000156097
0.000110616
0.000115958
0.00012902
0.000101155
9.28937e-05
8.93528e-05
0.000120833
0.000111048
7.8529e-05
5.69136e-05
0.00011234
0.000107779
6.2855e-05
8.71286e-05
8.96563e-05
0.000109622
0.000200408
0.000157161
0.000128279
0.000162664
0.000120218
3.8493e-05
0.000125843
8.39277e-05
1.71774e-05
0.000302857
9.52824e-05
3.56827e-05
0.000129406
0.000100809
0.000127607
8.64267e-05
4.26252e-05
4.32304e-05
8.94072e-05
0
0
0.000178519
0.00031811
0
0
0
0
0
0
0.00017423
0.000141043
0.000221211
0.000153878
0.000131784
4.91603e-05
8.56567e-05
0.000234756
0.000215729
0.00014262
9.1281e-05
0.000131175
0.000187332
0.000150116
0.000124213
0.000150686
0.000115297
0.000151158
0.000121333
0.000126221
0.000128659
0.000156162
0
0
0
0
0
0
0
9.68263e-05
0.000198395
0.000165193
0.000338944
0.000189771
0.000331497
0.000447424
0.000382617
0.000240858
7.39213e-05
0.000212698
0.000187255
6.76124e-05
0.000144747
0.000160103
0.000121003
0.000132457
0.000120809
9.51291e-05
0.000119236
0.000100951
8.00986e-05
9.75912e-05
0.000101649
9.66932e-05
5.77505e-05
8.056e-05
3.46434e-05
2.7988e-05
5.67267e-05
7.41035e-05
5.49214e-05
1.29299e-05
5.28014e-05
0.000119818
0.000114161
7.61753e-05
7.25484e-05
8.4754e-05
9.94386e-05
8.56734e-05
6.65157e-05
8.03976e-05
4.07491e-05
2.83718e-05
5.22674e-05
3.2414e-05
3.7446e-05
3.10202e-05
5.45631e-05
2.93914e-05
5.59675e-05
3.70584e-05
8.76881e-05
8.589e-05
0.000122224
8.44716e-05
0.000132421
6.28777e-05
6.63755e-05
5.71608e-05
4.72272e-05
4.37549e-05
9.26945e-05
9.14927e-05
7.23911e-05
9.04219e-05
3.92822e-05
7.49792e-05
6.54713e-05
5.95388e-05
0.000126426
0.000107869
0.000162477
0.000121424
0.000178068
0.000117564
0.000148842
0.000154727
0.00013288
0.000120862
0.000143559
0.000141246
0.000130449
0.000136254
0.000122305
0.00012607
0.000127592
0.000126948
0.000123266
9.01246e-05
0.000100134
0.000121755
9.35959e-05
0.000133504
6.7788e-05
7.80626e-05
0.000124759
9.34019e-05
7.21362e-05
6.13014e-05
4.62361e-05
7.2907e-05
9.22201e-05
8.99518e-05
1.27035e-05
4.62346e-05
6.51436e-05
6.0795e-05
8.08943e-05
0.000120393
0.000147076
0.000103693
0.000241434
0.0002047
0.000115239
7.47978e-05
0.000136999
3.82953e-05
7.0473e-05
0.000129292
0.000158553
8.83217e-05
5.55846e-05
3.97176e-05
2.29044e-05
0.000145302
8.34764e-05
9.31513e-05
5.47651e-05
3.56814e-05
0
0
0.000117755
0
0.000159843
2.06436e-05
0
0
0
0
0
0
0
0
0
0
0.000177232
3.85393e-05
0.000189601
3.92982e-05
0.000172083
7.93605e-05
0.00015714
0.000142627
0.000115759
0.000139192
0.00020159
0.000155186
0.000192192
0.000143879
0.000170229
0.000137638
0.000139633
0.000117102
0.000162065
0.00010313
0.000170778
0.000124316
0
6.69106e-10
5.45006e-11
0
0
0
0
1.01494e-10
6.97036e-10
5.93764e-10
0
0
0
0
0
0
0
0
0
0
0
0
2.73795e-05
5.08631e-06
9.76852e-05
5.40881e-05
0.000223676
0.00016839
0.000211091
0.00031968
0.000392508
0.000214736
0.00033708
0.00021553
0.000137341
0.000143354
0.000111887
2.41513e-05
0.000118686
0.000120846
0.000115144
7.94955e-05
6.54381e-05
0.000100401
7.75685e-05
8.07081e-05
8.2899e-05
7.82923e-05
6.51895e-05
9.06059e-05
1.61303e-05
8.55164e-05
5.20263e-05
3.11563e-05
0.000119413
5.21798e-05
1.71198e-05
5.43637e-05
2.29877e-06
3.13966e-05
5.12551e-06
5.73483e-05
3.66094e-05
3.07078e-05
2.98163e-05
2.20368e-06
4.15317e-05
3.70468e-05
2.09275e-05
3.05743e-05
2.53168e-06
5.75865e-05
4.29617e-05
2.13289e-05
2.20061e-05
6.24266e-05
4.5541e-05
2.58442e-05
8.7547e-06
1.72521e-05
4.15034e-05
1.63109e-05
7.57147e-05
5.41976e-05
0.000113973
4.52295e-05
9.05999e-05
6.67567e-05
9.13275e-05
4.84425e-05
5.14302e-05
4.38221e-05
7.09246e-05
4.61181e-05
5.85438e-05
6.84176e-05
8.81383e-05
8.94978e-05
0.000100872
9.4832e-05
8.20889e-05
7.78813e-05
0.000110609
4.88558e-05
0.000107109
0.000115142
0.000132875
9.86681e-05
0.000183214
0.000115748
0.000145555
0.000124266
0.00011857
0.00013723
0.000112215
0.000133085
0.000129956
0.000108881
0.000100066
0.000109386
0.000123149
0.000134358
0.000128
8.64802e-05
0.00011309
0.00012653
0.000113413
0.000108411
9.26641e-05
0.000110821
0.000124758
9.95712e-05
7.77143e-05
6.59365e-05
5.56238e-05
5.43648e-05
1.54618e-05
1.50809e-05
5.10367e-05
0.000105719
4.2677e-05
0.00010723
8.13485e-05
6.87936e-05
6.43208e-05
9.01646e-05
6.07183e-05
5.47157e-05
0.000115704
9.90637e-05
0.000231107
6.368e-05
8.86718e-05
0.000100952
3.33914e-05
7.23151e-05
5.47521e-05
0.000172894
3.34851e-05
0.000128518
0.000104348
6.09173e-05
0.00010941
0.000108675
0.000105821
0
0
0
0
5.11755e-05
0.000140552
0
0
0
0
0
0
0
0
0
0
0
0
0
0
0
0
0
0
0
0
1.89e-09
0
0
0
1.55601e-09
1.7596e-09
0
0
0
0
0
0
0
0
0
0
0
0
0
0
8.91903e-05
0.000112183
0.00012381
8.18178e-05
0.000118183
0.000170573
8.75691e-05
4.16685e-05
0.000139337
0.000269578
0.000138054
0.000153601
0.00016393
0.000180176
0.000132155
0.000135376
0.000121584
0.000105479
8.14711e-05
0.00013288
8.91659e-05
0.000128343
6.60612e-09
0
0
0
0
0
0
0
0
0
0
0
0
0
0
0
0
0
0
0
0
0
0
0
0
0
0
0
0
0
2.23305e-05
0
5.10808e-05
1.01013e-05
8.42354e-05
0.000125303
0.000121529
0.000240783
0.000218576
0.000271408
0.000220317
0.000282389
0.00016891
0.000214973
7.92072e-05
3.5711e-05
0.000109524
8.10086e-05
8.2465e-10
0
0
0
0
0
0
0
0
0
0
0
0
0
0
0
0
8.5216e-05
0.000102824
6.50623e-05
0.00010266
7.8826e-05
6.28677e-05
2.71228e-05
3.78302e-05
5.43293e-05
4.17022e-05
2.23052e-05
4.44586e-05
8.6506e-05
0.000100996
8.90345e-05
4.44055e-05
5.37226e-05
2.51075e-05
5.82796e-05
3.53838e-05
3.44065e-05
1.08694e-05
2.56364e-05
5.80637e-05
2.54634e-05
4.11263e-05
9.97624e-06
1.15309e-05
1.32763e-05
1.32672e-05
2.5476e-06
4.2216e-06
4.18879e-05
6.35205e-06
5.03e-05
8.02989e-05
3.24069e-05
4.44155e-05
7.37922e-05
4.27656e-05
4.60497e-05
0.000120592
4.15254e-05
7.64661e-05
5.18103e-05
1.86029e-05
0.000104684
7.47473e-05
7.68539e-05
5.10294e-05
1.70509e-05
8.02358e-05
2.85244e-05
1.50623e-05
4.62382e-05
3.92771e-05
1.63329e-05
5.08996e-05
2.22482e-05
4.31945e-05
7.55733e-05
4.89753e-05
5.56509e-05
2.82678e-05
4.46101e-05
0.000104594
6.55916e-05
9.02778e-05
0.000133868
0.000133814
0.000307132
0.000119522
7.89187e-05
0.000143791
9.60319e-05
0.000203087
0.00010374
9.44296e-05
0.000111249
9.08568e-05
9.24892e-05
0.000138999
0.000128324
0.000149328
0.00012607
9.65397e-05
9.37439e-05
0.000118961
0.000132487
0.00010588
0.000158947
0.000141912
0.000126475
0.000101025
0.00011244
9.58218e-05
0.000120604
8.95627e-05
0.000175789
8.87753e-05
6.98712e-05
4.17897e-05
7.96491e-05
5.66437e-05
0.000120263
0.000108273
9.21463e-05
6.11041e-05
0.000117279
0.000101632
9.86649e-05
9.96227e-05
0.000140698
9.03784e-05
0.000103986
9.95971e-05
0.000109981
0.000148605
0.000141941
9.10883e-05
0.000117815
0.000170052
0.000131311
0.000159632
0.000178686
0.000178983
0.00012074
0.000192189
0.000210717
0.000246544
0.000201342
0.000139428
0.000264435
0.000286566
0.000218029
0.000259165
0.000156047
0.000285525
0.000172462
0.000238268
0.000249688
0.000277256
0.000200879
0.000315217
0.00023136
0.000359184
0.000270851
0.00021035
0.000197262
0.000373634
0.000280376
0.000210134
0.000298672
4.42552e-05
9.14583e-05
4.06385e-05
4.10478e-05
7.01376e-05
8.78453e-05
3.77595e-05
3.63227e-05
4.97774e-05
1.07882e-05
4.66464e-06
7.18972e-05
4.65474e-05
2.12136e-05
7.20461e-05
0.000356848
0.000113027
1.47576e-05
8.12127e-05
1.51456e-05
2.27364e-05
3.72296e-05
3.06934e-05
0
0
0
0
0
0
0
0
0
0
0
3.65431e-09
0
0
0
0
0
0
0
0
4.35094e-09
0
0
0
0
0
0
0
0
0
0
0
0
0
0
0
0
1.71911e-09
0
0
0
0
0
0
1.50206e-09
0
1.1696e-09
0
0
0
0
0
0
0
0
0
0
0
0
0
0
0
0
0
0
0
0
0
0
0
0
0
8.53537e-05
6.82692e-05
4.4937e-05
0.000132809
8.37732e-05
6.8159e-05
0.000174028
0.000144661
9.84772e-05
0.000100001
0.00014801
0.000175863
0.000151822
0.000106806
7.23562e-05
9.52842e-05
6.50394e-05
7.39718e-05
0.000113771
5.87899e-05
9.17211e-05
0.000103092
0
0
1.16111e-09
1.06362e-09
0
0
0
0
2.40152e-09
0
0
0
0
0
0
0
0
0
0
0
0
0
3.48145e-09
2.94828e-09
0
0
0
4.31996e-06
2.8355e-05
6.63269e-05
0.00017338
7.53196e-05
0.000198848
0.000107199
9.76849e-05
0.000236684
0.000219142
9.37285e-05
7.06348e-05
0.000181112
0.000117533
6.85688e-05
2.17261e-05
0.000114732
6.38902e-10
0
0
0
0
2.85488e-11
0
0
1.05495e-11
0
0
0
0
0
0
0
0
0
0
0
0
0
0
0
4.99387e-07
9.95486e-07
7.77459e-05
3.9722e-05
9.58134e-05
4.20524e-05
2.44113e-05
3.86572e-05
3.36779e-05
1.03404e-05
1.7402e-05
3.01637e-05
2.29557e-05
9.81014e-06
1.57451e-05
3.24112e-05
8.85858e-06
1.06632e-05
8.87763e-05
3.95533e-05
6.44085e-05
3.38718e-05
0
1.07163e-06
5.98466e-06
3.34338e-06
2.16916e-05
2.3194e-05
0
0
0
0
6.94223e-09
0
0.000137348
0.000132694
6.38163e-05
5.3327e-05
7.79625e-05
9.83559e-05
6.76269e-05
7.85218e-05
0.000183959
0.000190792
0.000204382
0.000157905
0.00026132
0.000242488
0.000300548
0.000273179
0.000295782
0.000323223
0.000380445
0.000320569
0.000374101
0.000408625
0.000354804
0.000438964
0.000197383
0.000270162
0.000347078
0.000288992
0.000398847
0.000340575
3.2464e-05
3.49686e-05
0.000103577
7.43494e-05
2.27899e-05
8.37063e-05
6.11449e-05
2.62142e-05
5.61317e-05
4.9384e-05
3.12754e-06
7.71079e-06
2.68124e-05
2.27878e-05
5.01046e-05
7.06406e-05
5.32115e-05
5.99919e-05
5.56213e-05
9.5542e-06
7.73026e-06
1.89205e-05
2.73577e-05
4.37619e-05
7.34784e-06
2.10407e-05
0
0.000244711
9.55315e-05
0.00015418
0.000113658
0.000124597
7.39887e-05
7.10472e-05
8.28835e-05
7.52958e-05
8.02597e-05
0.000119817
0.000147976
0.000146228
0.000136213
0.00012666
0.000112183
0.000115403
0.000136808
0.000129453
0.000131747
0.000185204
5.61063e-05
0.000123111
0.000167709
0.00014133
0.000128413
0.000126104
7.7466e-05
9.04174e-05
0.000120007
0.000105986
0.000131215
9.31778e-05
0.000126544
0.000100185
9.25307e-05
0.000132022
0.000123563
0.000101955
0.000101035
0.000154918
0.000115928
0.000148105
0.000101569
0.000163802
0.000126631
0.000199544
0.000203318
0.000156087
0.000117597
0.0001935
0.000126962
0.000216239
0.000132333
0.000232661
0.000112541
0.000214573
0.000129239
0.000194241
0.000167558
0.000204774
0.000192721
0.000194714
0.000222311
0.000192366
0.000273168
0.000218373
0.000182146
0.000228025
0.000224812
0.000205834
0.000186293
0.000148491
0.000255457
0.000210789
0.000184276
4.26946e-05
3.41857e-05
5.79644e-05
0.000147351
9.75902e-05
5.92016e-05
8.50219e-05
5.28188e-05
0.000115281
1.49779e-05
2.03499e-05
3.41618e-06
7.41688e-06
2.3623e-05
5.90892e-05
0
1.93372e-06
4.90244e-05
0
6.26069e-05
6.66234e-05
1.92182e-05
2.19199e-05
1.38841e-05
6.76111e-05
0
0
0
0
1.71466e-08
2.67416e-08
0
0
0
4.33033e-09
0
0
0
0
0
0
0
6.43569e-09
0
0
0
0
0
0
0
0
2.18003e-11
0
0
0
0
0
0
0
0
0
0
0
0
0
0
6.69767e-10
0
0
0
0
0
0
0
0
0
0
0
0
0
0
0
0
0
0
0.00013592
7.4467e-05
1.86713e-05
7.99469e-05
9.60221e-05
0.00015646
0.000104725
1.32947e-05
0.000145887
0.000155964
6.04782e-05
9.44214e-05
9.00457e-05
8.87432e-05
4.56312e-05
4.90454e-05
3.47311e-05
6.85563e-05
2.28437e-05
3.50779e-05
5.71543e-05
5.83655e-05
3.15317e-10
0
3.80889e-10
0
0
0
0
0
0
0
0
0
0
0
0
0
0
0
0
0
0
0
0
0
0
0
1.44964e-05
1.82391e-05
7.90954e-05
1.73605e-05
0.000131021
0.00010185
0.000159951
2.7987e-05
0.000133831
0.000140098
0.000172009
0.000175057
0.000187761
5.68465e-05
0.000121463
0.000108379
8.19159e-05
0.000114233
0
0
0
0
0
0
0
0
0
0
0
0
0
0
0
0
0
0
0
0
0
0
4.03837e-07
0
0
0
0
0
0
0
0
6.15369e-05
3.33791e-05
3.27617e-05
3.974e-05
3.81055e-05
4.26809e-05
1.95977e-05
1.89099e-05
1.39662e-05
2.26015e-05
3.01808e-05
2.10542e-05
1.26832e-05
0
0
1.83754e-05
8.37883e-06
1.35847e-05
5.42563e-05
3.299e-05
3.19083e-05
6.06116e-05
4.67469e-05
1.48702e-06
0
3.96932e-07
1.26476e-05
0
0
0
0
0
0
0
0
7.51037e-05
0.000100765
0.000149119
9.53081e-05
4.76759e-05
9.14936e-05
8.77199e-05
0.00010601
5.93604e-05
1.85243e-05
8.2284e-05
0.000103449
0.000209716
0.000117737
0.000176215
0.000256576
0.000144718
0.000130747
0.000110954
0.000167904
0.000108655
8.20498e-05
0.000151287
7.18408e-05
0.000123524
6.01812e-05
0.000182108
5.40897e-05
8.46438e-05
0.000260064
0.000298962
0.000256822
0.000290791
0.000290313
0.000231466
0.000190635
0.000184513
5.62301e-05
0.00011414
0.000110642
8.14567e-05
8.21487e-05
0.000141484
0.000218345
0.000252319
0.000205545
0.000256768
0.000276459
0.000318215
0.000337997
0.000342965
0.000376617
0.000382776
0.000441627
0.000439267
0.000440028
0.000480585
0.000442203
0.00043693
0.00033705
0.000344691
0.000422543
0.0003712
2.4823e-05
3.1031e-05
0.000150138
6.13036e-05
9.36462e-05
7.51799e-05
8.41269e-05
9.23762e-06
7.20862e-05
9.44418e-05
2.25084e-05
0.000153894
8.70956e-05
0.000149357
0.000115429
7.70526e-05
2.29725e-05
6.79156e-05
1.51643e-05
2.94545e-05
9.89586e-05
3.62298e-05
0.00013055
7.6569e-05
0.000102733
5.46741e-05
0.000111434
3.45337e-05
6.59689e-05
1.29332e-05
3.19008e-06
1.22714e-06
6.05047e-05
4.67695e-05
4.02558e-05
3.07057e-05
1.40136e-05
1.26672e-05
1.99294e-05
2.1127e-05
2.6976e-05
0
0
0
0
0
0
0.000128635
0.000148634
0
3.00948e-05
0.000150151
0.000120148
8.86718e-05
7.16001e-05
0.000126568
7.41363e-05
0.000131177
9.66914e-05
0.000126786
0.000111214
0.00011992
0.000125828
0.000131516
0.000148132
0.000145045
7.5067e-05
0.000133886
0.000143341
8.17269e-05
9.76311e-05
7.54308e-05
0.000122438
9.46332e-05
0.000150356
0.000120382
0.000144555
0.000139835
0.000123237
0.000144939
7.2794e-05
9.79078e-05
0.000153923
7.29775e-05
0.000185541
0.000166854
9.33965e-05
0.000146545
0.000180957
0.000157589
0.000171889
0.000149991
0.000211929
0.000185034
0.000179419
0.000184285
0.000173652
0.000158344
0.000179465
0.000187275
0.000130148
0.00012791
0.000211494
0.000215033
0.000155737
0.000221632
0.000208666
0.000205139
0.000216087
0.000191342
0.000206369
0.0001484
0.000187212
0.000119233
5.20643e-05
3.8011e-05
4.95217e-05
1.19915e-05
4.8462e-05
3.04297e-05
1.39254e-05
9.08699e-05
6.45795e-05
3.0494e-06
1.72488e-05
1.00349e-06
0
0
6.97478e-06
0
0
0
0
4.29636e-05
9.23645e-07
0
8.41282e-07
0
0
0
0
0
6.6831e-10
7.76534e-10
2.69941e-08
0
0
0
0
0
0
0
0
0
0
0
2.54751e-09
0
0
0
0
0
0
0
0
2.63214e-07
0
0
0
0
0
0
0
0
0
0
0
0
1.34481e-10
0
0
0
0
2.98186e-09
0
0
0
0
0
0
0
0
0
0
0
0
0
0
0
0
0
0
0
2.29327e-09
0
0
0
0
2.57187e-09
5.92806e-05
0.000290193
4.60269e-05
0.000153701
0.000166451
6.41119e-05
5.66263e-05
3.54248e-05
7.58126e-05
0.00011158
4.93212e-05
0.000149759
7.21269e-05
4.45964e-05
0.000109539
9.11445e-05
6.69331e-05
7.47376e-05
4.34442e-05
3.19633e-05
2.69785e-05
3.25094e-05
2.37005e-05
8.98679e-06
3.38947e-05
0
0
0
0
0
0
0
0
0
0
0
0
0
3.76367e-05
2.59702e-05
1.81899e-05
0
0
0
0
0
0
0
0
0
0
0
5.15209e-05
9.31813e-05
0.000102799
9.5876e-05
4.83862e-05
2.18993e-05
7.3469e-05
0.000110607
4.13502e-05
6.86463e-05
9.1384e-05
0.000145565
0.000201979
0.000111407
3.24314e-05
0.000112262
0
2.79886e-10
0
0
0
0
0
0
0
0
0
0
0
0
0
0
0
0
0
0
0
0
0
0
0
0
0
0
0
0
0
0
0
0
0
0
0
1.47793e-05
2.34028e-06
2.52543e-05
3.30869e-05
5.1942e-06
2.56436e-05
2.63085e-05
1.37023e-05
2.04951e-05
0
0
2.16294e-05
2.77e-05
0
0
0
0
0
0
8.91591e-06
0
3.98184e-05
1.45974e-05
1.79399e-05
5.95711e-05
0
0
0
0
0
0
0
0
0
0
0
0
0.000161342
0.000145792
0.000176294
0.00013147
0.000160378
0.000179917
0.00032539
0.000109953
0.000167494
0.000235757
0.000204912
0.000116814
9.16115e-05
0.000175233
5.13695e-05
0.000196945
0.00030309
0.000359105
0.00033871
0.0002764
0.00022603
0.000297659
0.000211613
0.000212173
0.000133434
2.40418e-05
8.39305e-05
0.000103793
0.000137809
7.25815e-05
0.000222777
0.000296485
0.000327282
0.000239151
0.000275756
0.000376108
0.000325376
0.000277632
0.000377005
0.000411542
0.000393278
0.000459818
0.000451173
0.000525322
0.000463166
0.000467586
0.000542133
0.000493803
0.000464321
0.00036729
0.000373397
0.000480805
0.000412127
6.20783e-05
7.13438e-05
7.93673e-05
6.65047e-05
8.85654e-05
8.72801e-05
9.38406e-05
7.63532e-05
6.02693e-05
0.000115244
7.24878e-05
4.91888e-05
8.06558e-05
7.68856e-05
0.000122157
7.47098e-05
5.9919e-05
3.45086e-05
1.84019e-06
3.63523e-05
3.55619e-05
2.90285e-05
9.11304e-05
0.000103393
4.38304e-05
4.10659e-05
9.52009e-05
0.000121273
0.000140263
0.000127146
3.43844e-05
5.15481e-05
5.08461e-05
8.92834e-05
0.000194017
0.000100276
0.000228462
2.0005e-06
5.92462e-06
8.44529e-06
0
5.45681e-05
6.71875e-05
0
0
0
0
0
0
0
0
0
0
0
0
6.72797e-05
0
2.83457e-09
0.000159987
0.000138544
8.44946e-05
0.000147709
7.40653e-05
3.59809e-05
7.02599e-05
0.000100233
0.00011544
9.34427e-05
7.72414e-05
0.000121759
0.000110357
0.000110762
0.000110073
0.000134945
0.000138078
0.000112685
0.000182333
0.000163209
9.91398e-05
0.000178868
0.000112617
0.000127178
0.000170976
0.000206413
0.000131255
0.000164305
0.000160606
0.000161004
0.000118683
0.000124793
0.000125419
0.000158933
0.000118621
0.000167076
0.000142784
0.000250846
0.00018477
0.000101534
0.000206336
0.000112377
0.000221115
0.000113194
0.000149884
0.000192915
0.000148075
0.000168056
0.000178487
0.000142215
0.000182553
0.000216823
0.000219433
0.000204196
0.000215082
0.000197295
0.000164105
0.000204456
0.000118413
0.000169499
0.0001137
0
0
0
0
1.00169e-05
9.37682e-06
1.11953e-05
6.61684e-06
1.25127e-05
0
0
0
0
0
0
0
0
0
0
0
0
0
0
0
0
5.95033e-11
0
0
1.89304e-09
5.146e-10
0
0
0
0
0
0
0
0
0
0
0
0
3.02724e-07
0
0
0
0
0
0
0
0
6.17764e-07
0
0
0
0
1.28085e-09
0
0
0
0
0
0
0
1.51963e-09
1.47004e-09
0
0
1.00308e-09
2.34085e-09
0
0
0
0
3.08357e-09
0
4.119e-09
0
0
0
0
0
0
0
0
0
0
0
0
0
0
0
0
0
1.42223e-09
0
0
0
0
0
0
0
0
0.000302984
0.000422367
0.000107273
0.00030687
7.49307e-05
0.000372664
6.89069e-05
0.000130765
0.000181996
0.000195451
0.000116966
0.000117535
5.44627e-05
7.99818e-05
0.000143831
9.79176e-05
0.000116108
2.65853e-05
7.0796e-05
5.57632e-05
6.79146e-06
6.85147e-05
3.72992e-05
2.92882e-05
1.61316e-05
2.66897e-05
1.85273e-05
0
0
0
0
0
0
0
3.91803e-05
4.08948e-05
1.14893e-05
0
0
0
0
0
0
0
0
0
1.64584e-11
0
0
0
0
0
2.41428e-05
9.93511e-05
6.75552e-05
0.000109056
6.2897e-05
9.26345e-05
5.63774e-05
3.66309e-05
2.81592e-05
0.000108306
0.000108641
0.000103668
9.47014e-05
7.9546e-05
8.05164e-05
0.00016669
0
0
2.64156e-10
0
0
0
0
1.37362e-10
0
0
0
0
0
0
0
2.07257e-09
0
9.11889e-10
1.56535e-09
0
0
0
0
0
0
0
0
0
0
0
2.72567e-09
0
0
0
0
0
0
0
0
0
0
0
0
0
7.77479e-10
2.34497e-05
2.65343e-05
1.73644e-05
1.59019e-05
4.26842e-05
1.04073e-05
2.57819e-05
3.97317e-06
9.91865e-06
1.28951e-08
0
0
1.52069e-08
1.24894e-05
6.0908e-06
0
0
0
0
0
6.48058e-10
0
0
4.49049e-05
1.22123e-05
3.66092e-05
1.67182e-05
0
8.12638e-10
0
9.1292e-10
0
0
0
0
0
0
0
1.06304e-09
0.000247807
0.000187981
0.00017381
0.000569777
0.000242583
0.000315293
0.000390008
0.000562656
0.000725311
0.000448909
0.000496538
0.000167134
0.000125324
0.000186449
0.000224568
0.000221974
0.000234834
0.000181173
0.000248531
0.000167564
0.000242778
0.000167545
0.000322834
0.000398941
0.000322009
0.000373281
0.000303496
0.000293221
0.00018161
0.000180589
0.000189161
8.06516e-05
0.000145106
0.000109897
0.0002086
0.000126639
0.000252267
0.000359194
0.000300743
0.000267367
0.000355225
0.00040077
0.000387138
0.000291711
0.000395127
0.000423377
0.000416586
0.000499536
0.000516807
0.000501056
0.000550613
0.000455077
0.000390085
0.000546353
0.000478273
0.000370647
0.000483866
0.000383482
5.45494e-05
1.02295e-05
0.000133862
6.28053e-05
8.03657e-05
0.000144287
0.00010686
9.43987e-05
7.90148e-05
0.000104271
6.36304e-05
0.00012025
3.38153e-05
0.000183811
7.54772e-06
2.46876e-05
8.30114e-05
8.07861e-05
0.000143207
8.6067e-05
0.000156136
8.94126e-05
0.000106927
0.000145506
3.65394e-05
0.000146834
2.05931e-05
0.000103949
0.000111123
0.000220674
0.000173567
0.000252611
0.000208388
0.000143249
0.000113734
0.000227493
0.000113124
0
0
0
0
0
0
0
0
0
0
0
0
0
0
0
0
2.82108e-09
0
0
0
0
1.23829e-05
2.59754e-05
3.79215e-05
7.28067e-05
8.84122e-05
0.000121277
1.96671e-05
4.89107e-05
5.64004e-05
7.89578e-05
7.67648e-05
6.74027e-05
5.51806e-05
0.000110886
5.07344e-05
6.23402e-05
0.000143104
0.000236017
0.000180737
0.000172017
0.000172797
0.000207922
0.000177888
0.000214846
0.000169736
0.000192732
0.000221223
0.000157715
0.000163217
0.000138328
0.000139566
0.000159262
0.000185997
0.000121902
0.00014821
0.000148789
0.000137256
0.000157622
7.92885e-05
0.000183815
0.000113155
0.000171965
0.000139398
0.000127247
0.000168852
0.000155831
0.000199723
0.000197665
0.000196812
0.000225662
0.0002018
0.000218342
0.000164184
0.000169194
0.000135484
6.43664e-05
0.000166718
7.07441e-05
0
0
2.1023e-06
3.90964e-11
0
0
0
0
0
0
0
2.86259e-09
0
5.28629e-09
8.54678e-09
1.41568e-08
8.6096e-09
0
8.60303e-09
2.6897e-07
0
0
0
1.03845e-09
0
8.88382e-10
7.66866e-11
0
0
0
0
0
0
0
0
1.09522e-09
0
0
0
0
0
0
2.43567e-07
0
0
0
0
0
0
0
0
0
0
0
0
0
0
0
0
0
0
0
0
0
0
0
0
0
0
0
0
0
0
0
0
0
0
0
0
0
0
0
0
0
0
0
0
0
0
0
0
0
0
0
0
0
0
0
0
0
0
0
0
0
0
0
0
0
0
0
0
0
2.30893e-11
0
0
0
0
0.00029737
0.000144799
0.00019457
0.000252881
0.000327959
0.000211304
0.000662033
0.000348983
0.000182838
0.000443312
0.000275942
0.000273794
0.000672871
0.000456144
0.000513272
0.000168805
7.62984e-05
5.89765e-05
1.73144e-05
6.67944e-05
2.25764e-05
7.22816e-05
4.81804e-06
4.14724e-05
2.75125e-05
1.96081e-05
4.35945e-05
3.1584e-05
2.67334e-05
0
0
0
0
1.35911e-05
5.35225e-05
5.80187e-05
0
0
1.40573e-05
0
0
0
0
0
0
0
2.74752e-09
1.71179e-09
0
1.56829e-09
0
0
0
2.64427e-05
4.9965e-05
9.90654e-05
5.15074e-05
8.67802e-05
0.000113502
8.65142e-05
6.41513e-05
6.51886e-05
0.00012728
6.05461e-05
4.5558e-05
0.000112675
8.98409e-05
8.67453e-05
0.000113412
0
8.25301e-10
0
0
0
0
0
2.22448e-11
0
0
8.16606e-11
0
0
0
1.76718e-10
0
0
0
0
0
0
0
0
0
0
0
0
0
0
0
0
0
0
0
0
0
1.25093e-09
0
2.65008e-09
0
0
0
0
0
0
0
0
0
0
0
0
0
0
0
0
0
0
6.82735e-05
2.72942e-05
1.88755e-05
2.03138e-05
1.11921e-05
0
0
0
0
0
0
0
0
0
0
0
0
0
0
0
0
2.54993e-05
4.17238e-05
1.41458e-05
0
0
0
0
0
0
0
0
0
2.69182e-09
1.73945e-08
0
0
0
0
0
0
0.00041966
0.000147021
0.000306907
0.000712049
0.000789906
0.000815608
0.000187436
0.00099089
0.000367638
0.000651467
0.000590784
0.000527305
0.000363041
0.000245929
0.000314243
0.000246662
0.000320845
0.000264523
0.000327147
0.000210264
0.000355175
0.000414541
0.000379446
0.000328486
0.000416019
0.00037374
0.00035999
0.000239976
0.000247417
0.000214078
0.000137216
0.00017112
0.000135067
0.000241868
0.000227945
0.000275328
0.000369702
0.000336173
0.000337753
0.000346945
0.000349135
0.000261112
0.000335927
0.000357628
0.0003506
0.000373774
0.00042257
0.000502811
0.000370003
0.000455132
0.000574502
0.000499242
0.000528441
0.000432395
0.000413544
0.000511391
0.00039947
7.46846e-05
7.46052e-05
9.79846e-05
0.000156702
0.000157911
8.06017e-05
0.000132107
0.000177043
8.63548e-05
7.38259e-05
2.57257e-05
4.45453e-05
8.35767e-06
1.41002e-05
8.56303e-05
8.40206e-05
0.000168534
9.71371e-05
0.000111043
0.000121404
0.000222566
0.0002381
0.000153626
0.000217432
0.000138094
0.000165299
9.33163e-05
9.5627e-05
0.000190715
0.000130304
0.000204794
0.000215861
0.000223202
0.000233203
0.000269706
0.000174534
0.000242934
0.000165119
0.000199686
1.13433e-05
0.000227854
0
0
0
0
0
2.02385e-09
2.83233e-09
0
0
0
0
3.62744e-09
1.15876e-09
0
0
0
0
0
1.97695e-06
0
0
1.16041e-05
3.88779e-05
5.03908e-05
3.27981e-05
2.70395e-05
0.000125394
6.04006e-05
0.0001043
8.64806e-05
5.30339e-05
5.94423e-05
7.41452e-05
5.12913e-05
4.99532e-05
9.83303e-05
0.00014819
0.000124815
0.000161732
0.00023121
0.000210206
0.000209607
0.000179977
0.000220834
0.000215749
0.000201895
0.000257009
0.000238811
0.000213071
0.000214888
0.000150992
0.00014756
0.000169626
0.000196652
0.000121446
0.00013153
0.000133088
0.000112625
0.000146132
0.000147485
0.000148818
0.000193871
0.000118624
0.000186521
0.000196991
0.000146476
0.000205394
0.000203715
0.000225834
0.000194964
0.000203438
0.000176783
0.000186742
0.000163052
0.000166837
0.000176073
0.000191277
0.000204191
0
0
0
0
0
0
0
0
0
8.06406e-09
0
0
0
1.0486e-08
9.27366e-09
2.78099e-09
3.79352e-09
7.19115e-09
2.10132e-08
0
0
0
0
0
0
0
0
0
0
0
0
0
0
0
0
2.43021e-09
0
0
0
5.0756e-08
0
0
0
0
0
0
0
0
0
0
0
0
0
0
0
0
0
0
2.1959e-08
0
0
0
0
0
7.50086e-10
7.00052e-10
1.43353e-09
0
0
0
0
0
0
0
0
0
0
0
0
0
0
0
0
0
0
0
0
0
0
0
0
0
0
0
0
0
0
0
0
0
0
0
0
0
0
0
0
0
2.81213e-09
0
6.97573e-10
0
2.65214e-09
0
0
0
0.000182099
0.00018749
0.000160175
8.09931e-05
0.000101981
0.000479817
6.16421e-05
0.00109864
0.000226085
0.000465827
0.000838466
0.000852271
0.000313653
0.000357952
0.000661054
0.000558514
0.000166914
0.000269667
0.000468971
4.03239e-05
3.95882e-05
7.31741e-05
4.38587e-05
4.46773e-05
3.66851e-05
1.36354e-05
1.22565e-05
2.79655e-05
1.12309e-05
2.90912e-05
2.26722e-05
1.0365e-05
7.07952e-05
0
0
8.96745e-05
8.20247e-05
2.27531e-05
0
0
5.38064e-06
3.88973e-06
0
0
0
0
0
0
0
0
0
0
0
0
0
0
0
5.61644e-05
4.25991e-05
1.4427e-05
2.01771e-05
5.78532e-05
6.14352e-05
4.93993e-05
6.25531e-05
7.65146e-05
9.22026e-05
4.11083e-05
7.71403e-05
7.17268e-05
0
0
0
0
0
0
1.29303e-09
1.50225e-09
0
0
0
0
0
0
0
0
0
6.41982e-09
0
0
0
0
0
0
0
7.05545e-10
0
0
3.30533e-09
0
0
0
0
0
0
0
0
0
0
0
0
0
0
0
0
0
0
0
0
0
0
2.1514e-09
0
0
0
0
0
0
0
0
0
0
0
1.71638e-05
2.21342e-05
3.82263e-05
8.55126e-06
0
0
0
0
3.93426e-06
0
0
0
0
0
0
0
0
0
0
0
0
0
0
0
8.59211e-07
0
0
0
0
2.97803e-05
9.16168e-06
0
0
0
1.21931e-09
0
0
0
0
0
0
0
0
0.000294421
0.000860921
0.00132803
0.000705423
0.000908092
0.000229843
0.000485854
0.000156693
0.00034369
0.000255331
0.000317539
0.000233475
0.000197389
0.000410749
0.000369354
0.00031779
0.000347161
0.000304188
0.000343839
0.000226294
0.000286989
0.000303894
0.000424996
0.000420808
0.000427503
0.000353764
0.000417224
0.000380379
0.000365458
0.000333877
0.000161855
0.000252567
0.000135753
0.000329541
0.000245213
0.000366316
0.000323958
0.000286874
0.000346648
0.000420853
0.000234658
0.000262448
0.00021906
0.000178757
0.000243228
0.000183093
0.000294972
0.000402471
0.000408793
0.000415511
0.000258446
0.000453914
0.000406615
0.000535578
0.000447919
0.000423222
0.000483059
0.000356503
7.71015e-05
0.000100882
0.000170358
0.000184354
0.000159783
0.000101084
0.000188683
0.00027851
9.12907e-05
0.000127051
0.000121885
8.99451e-05
7.81649e-05
9.67113e-05
0.000187508
0.000235849
0.000199211
0.00026082
0.000218421
0.000308424
0.000167973
0.000287549
0.000210721
0.000253444
0.00020234
0.000271609
0.000180085
0.000260737
0.000308081
0.000301497
0.000254038
0.00024843
0.000185256
0.00017028
0.000242254
0.000255622
0.000270701
0.000108111
5.10991e-05
0
0
0
0
0
0
0
0
0
3.96443e-09
0
0
0
0
0
2.18846e-11
2.62898e-11
0
0
0
0
3.74092e-05
1.7021e-05
2.20054e-05
5.85241e-06
5.7531e-05
4.92033e-05
7.68358e-05
0.00010951
0.000114101
9.49071e-05
4.76888e-05
8.2835e-05
0.000106646
0.000103212
8.08239e-05
0.00017909
9.05532e-05
0.00026668
0.000171789
0.000230642
0.000273626
0.000215729
0.000244591
0.000234016
0.000285347
0.000347379
0.00024551
0.000274619
0.000203451
0.000161278
0.000162245
0.00022299
0.000193315
0.000155737
0.000163863
0.000211699
0.00016616
0.0002327
0.000163863
0.000233983
0.00014517
0.000159715
0.000217231
0.000220757
0.000209372
0.000240209
0.000208345
0.000202978
0.000229506
0.000218506
0.000196669
0.000234507
0.000255363
0.00025574
0.000310385
0.000294113
0.000288805
0
0
0
0
0
0
0
0
0
4.7541e-11
0
0
0
0
0
0
0
5.63195e-08
0
0
4.47993e-08
0
0
0
1.21122e-09
0
0
0
0
0
2.55174e-09
0
0
0
0
0
0
0
0
0
0
0
0
0
0
0
9.44333e-10
1.59464e-09
1.63184e-09
0
0
0
0
1.00338e-09
0
0
1.17536e-09
0
0
0
0
2.70056e-09
0
5.20115e-10
0
0
0
0
0
0
0
0
0
0
0
0
0
0
0
0
0
0
0
0
0
0
0
0
0
0
0
0
0
0
0
0
0
0
0
0
0
0
0
0
0
0
0
0
0
0
0
0
0
0
0
0
0
7.67971e-10
0
0
0
3.2111e-09
0
0
0.000146274
0.000173797
7.45881e-05
7.27188e-05
0.000250698
0.000234811
0.000129417
0.000205094
0.000219308