/*--------------------------------*- C++ -*----------------------------------*\
  =========                 |
  \\      /  F ield         | OpenFOAM: The Open Source CFD Toolbox
   \\    /   O peration     | Website:  https://openfoam.org
    \\  /    A nd           | Version:  8
     \\/     M anipulation  |
\*---------------------------------------------------------------------------*/
FoamFile
{
    version     2.0;
    format      ascii;
    class       volScalarField;
    location    "15360";
    object      Hclip;
}
// * * * * * * * * * * * * * * * * * * * * * * * * * * * * * * * * * * * * * //

dimensions      [0 1 0 0 0 0 0];

internalField   nonuniform List<scalar> 
526318
(
0.993145
0.952898
1.02762
0.93092
0.983428
0.959712
0.961709
0.896968
0.955874
0.836586
0.815766
0.915835
0.863406
0.913226
0.878093
0.908089
0.869161
1.06234
0.974324
1.0202
1.01024
0.97826
0.731698
0.980762
0.865586
0.723864
0.993911
0.996765
1.00309
1.02352
1.04848
1.08291
1.07579
0.952099
0.957508
0.940912
0.939944
1.05189
0.948827
0.855689
0.941858
0.925668
0.59083
0.648659
0.551828
0.592166
0.571215
0.691378
0.88296
0.765679
0.842548
0.869969
0.816352
0.768483
0.264458
0.518749
0.507707
0.316436
1.038
1.0419
1.04833
1.00507
0.960905
1.07193
1.09071
1.05637
1.04241
1.02169
0.922506
0.941995
1.03008
0.81221
0.883617
0.760357
0.719283
0.719736
0.81193
0.800915
0.723181
0.751028
0.84332
0.841174
0.798733
0.743526
0.781716
0.839495
0.829321
0.823099
0.777582
0.860269
0.74857
0.699976
0.686408
0.625878
0.615066
0.628738
0.617734
0.620192
0.618092
0.623537
0.0532483
0.001
0.0886211
0.120716
0.180874
0.001
0.524678
0.340202
0.651714
0.619665
0.659676
0.783114
0.999589
0.88602
1.00956
1.01992
1.08551
1.04316
1.10047
0.611602
0.615235
0.619703
0.615278
0.575547
0.616346
0.526771
0.568211
0.478973
0.528647
0.477618
0.477939
0.469216
0.443298
0.435249
0.461894
0.40464
0.459243
0.409127
0.428021
0.372573
0.380233
0.398454
0.428967
0.414224
0.371546
0.371607
0.385066
0.3762
0.370557
0.378721
0.391362
0.379459
0.383245
0.383571
0.383156
0.347133
0.383629
0.383441
0.350924
0.309939
0.383768
0.330471
0.389064
0.885827
0.971933
0.92258
0.898416
0.698385
0.778276
0.706116
0.711712
0.711476
0.71539
0.734759
0.708358
0.643136
0.617734
0.581491
0.524422
0.581845
0.624342
0.620508
0.625787
0.511442
0.561991
0.450147
0.459169
0.467491
0.460052
0.459893
0.465155
0.451302
0.456582
0.451902
0.43757
0.422498
0.446556
0.438842
0.41181
0.390232
0.417659
0.400109
0.391438
0.41423
0.401828
0.40651
0.368573
0.386826
0.41522
0.416966
0.866399
0.86263
0.915521
0.9393
0.870264
0.869916
0.87033
0.741203
0.792997
0.532992
0.512546
0.507333
0.632609
0.76342
0.640403
0.677786
0.684386
0.617372
0.610504
0.10963
0.001
0.250399
0.45193
0.001
0.001
0.00102061
0.001
0.001
0.001
1.09274
1.05018
1.10968
1.10169
1.08388
1.05875
0.954324
1.04871
0.903149
0.854076
0.841668
0.838531
0.854502
0.853005
0.823732
0.826188
0.752179
0.817677
0.625835
0.68877
0.614021
0.629853
0.00100536
0.001
0.001
0.00100202
0.0936385
0.0346072
0.0980792
0.244659
0.622454
0.442026
0.672743
0.68124
0.792645
0.885388
1.01203
1.02045
1.05136
1.02168
1.09194
1.13065
0.593311
0.596857
0.556584
0.525953
0.425526
0.461531
0.387294
0.397442
0.3896
0.381804
0.370797
0.378815
0.30352
0.325667
0.357258
0.397924
0.452734
0.420034
0.38403
0.37844
0.317341
0.306648
0.355569
0.408341
0.334522
0.371276
0.372133
0.340641
0.335768
0.30324
0.301688
0.256658
0.264318
0.268004
0.25708
0.374997
0.416711
0.379917
0.418723
0.760388
0.757712
0.635897
0.738106
0.641729
0.704803
0.705887
0.698161
0.709557
0.712
0.624764
0.535103
0.463077
0.448479
0.523277
0.465631
0.45122
0.561863
0.452819
0.503234
0.44041
0.441599
0.449792
0.440318
0.453882
0.449775
0.450749
0.449748
0.448433
0.451532
0.458506
0.455305
0.467224
0.466034
0.466167
0.445379
0.458035
0.442151
0.415681
0.41915
0.444196
0.471837
0.465164
0.442062
0.424733
0.450239
0.490806
0.490958
0.505092
0.466522
0.499853
0.51491
0.555459
0.50066
0.511775
0.532958
0.569411
0.69501
0.761866
0.687822
0.68931
0.767218
0.847846
0.739867
0.626158
0.758694
0.642997
0.663494
0.398947
0.346613
0.375992
0.360502
0.478933
0.596245
0.538216
0.594249
0.608098
0.623395
0.604415
0.001
0.0152775
0.175775
0.0155818
0.257202
0.143992
0.001
0.00100998
0.001
0.00100962
0.001
0.00100889
0.001
0.001
0.001
0.001
1.10264
1.08813
1.12651
1.12462
1.09149
1.07516
0.996326
0.927034
0.834595
0.845224
0.840858
0.836412
0.812469
0.807255
0.801494
0.790808
0.74365
0.783736
0.711976
0.649748
0.597562
0.553543
0.001
0.00107376
0.00107376
0.001
0.001
0.001
0.001
0.00107376
0.00107378
0.00107375
0.00100999
0.00100984
0.001
0.00100942
0.001
0.001
0.001
0.001
0.001
0.001
0.0606097
0.001
0.160197
0.13342
0.329853
0.179604
0.541164
0.697261
0.713936
0.79935
1.02412
0.925368
1.03549
1.0343
1.05848
1.07163
1.12063
1.13677
0.515274
0.512642
0.467086
0.494055
0.432856
0.397724
0.388225
0.387886
0.383041
0.389792
0.342579
0.334501
0.279234
0.29734
0.354866
0.325888
0.299895
0.34514
0.33927
0.353987
0.259186
0.251707
0.280727
0.290796
0.290455
0.249691
0.250781
0.250155
0.250499
0.241039
0.232128
0.540662
0.507003
0.510951
0.512602
0.531877
0.63821
0.597193
0.578473
0.457305
0.500422
0.487145
0.489195
0.389255
0.328901
0.495006
0.625191
0.50673
0.522476
0.492835
0.569844
0.550085
0.625889
0.661674
0.582243
0.563853
0.599637
0.478157
0.446836
0.446815
0.448176
0.364381
0.418037
0.34062
0.295123
0.272231
0.392215
0.390459
0.439858
0.439497
0.439575
0.441854
0.44161
0.446311
0.446048
0.454696
0.44896
0.466375
0.460087
0.467251
0.46701
0.490983
0.476865
0.50129
0.503942
0.455561
0.439326
0.503442
0.485363
0.47461
0.490607
0.474473
0.463248
0.515669
0.491922
0.593986
0.601564
0.553006
0.594089
0.603474
0.573987
0.662798
0.634779
0.703245
0.720686
0.747899
0.655065
0.666658
0.662489
0.644164
0.615344
0.592374
0.676979
0.520139
0.487472
0.545698
0.565442
0.241255
0.293169
0.378323
0.492344
0.534448
0.56087
0.468883
0.435858
0.39431
0.338497
0.001
0.001
0.0622957
0.001
0.173813
0.241258
0.001
0.001
0.00100979
0.001
0.001
0.001
0.001
0.001
0.001
0.001
0.001
0.001
0.001
0.001
0.001
0.00101
0.001
0.001
0.001
0.001
0.00119441
0.001
0.001
0.001
0.00119423
0.00119423
0.001
0.001
0.001
0.001
0.001
0.001
0.001
0.001
0.00100959
0.001
0.00100965
0.001
0.001
0.001
1.11174
1.08857
1.12362
1.12621
1.09846
1.03372
0.841728
0.938233
0.817283
0.81988
0.786977
0.796746
0.7863
0.791563
0.779152
0.777779
0.726158
0.694613
0.596716
0.638331
0.493534
0.534144
0.001
0.001
0.001
0.001
0.001
0.001
0.001
0.001
0.00101
0.001
0.001
0.001
0.001
0.001
0.001
0.001
0.001
0.00100737
0.001
0.001
0.001
0.001
0.001
0.001
0.001
0.001
0.00101
0.001
0.001
0.001
0.207911
0.00325126
0.214433
0.219919
0.513042
0.345482
0.718175
0.685625
0.748731
0.858106
0.959949
1.03298
1.0476
1.04768
1.0863
1.10966
1.09367
1.09899
0.00115139
0.001
0.001
0.001
0.001
0.001
0.001
0.001
0.001
0.001
0.001
0.001
0.001
0.001
0.001
0.00101
0.001
0.493505
0.493315
0.49291
0.459092
0.380799
0.41428
0.340734
0.332145
0.30007
0.293241
0.248228
0.247678
0.276489
0.269912
0.233866
0.271462
0.26385
0.315412
0.295522
0.292316
0.220371
0.179909
0.180841
0.234324
0.237444
0.237785
0.213163
0.218213
0.180791
0.168572
0.131059
0.139843
0.732538
0.699162
0.74013
0.747513
0.701368
0.659781
0.820713
0.845799
0.910927
0.9183
0.469688
0.513048
0.560154
0.644924
0.468831
0.412285
0.443854
0.446898
0.283927
0.340744
0.383189
0.278645
0.496354
0.487659
0.485691
0.490937
0.512834
0.486057
0.503188
0.518951
0.401606
0.390378
0.292476
0.378612
0.369227
0.329983
0.276748
0.302992
0.241997
0.258208
0.240357
0.326247
0.388025
0.319642
0.388912
0.440942
0.441721
0.442436
0.444321
0.446826
0.465104
0.458997
0.476896
0.471656
0.493163
0.486758
0.50673
0.50718
0.510024
0.507231
0.519969
0.513811
0.552452
0.525687
0.492924
0.489804
0.558552
0.522891
0.531207
0.568787
0.611308
0.618188
0.612504
0.615678
0.639692
0.697419
0.756095
0.77882
0.784983
0.76447
0.907618
0.843603
0.974376
1.01193
1.00573
1.04635
1.10131
0.96397
1.05117
1.07495
1.14909
1.19835
1.2255
1.24368
1.27333
1.21956
1.27668
1.23364
1.3101
1.3091
1.36298
1.33061
1.3887
1.4206
1.40649
1.35914
1.42155
1.44716
1.41222
1.40932
1.47185
1.45133
1.48167
1.4246
1.41944
1.49167
1.46003
1.40903
1.40815
1.4366
1.46841
0.464354
0.431581
0.600632
0.590366
0.567084
0.55288
0.551938
0.323155
0.455406
0.16328
0.190679
0.282236
0.279101
0.151042
0.23659
0.220702
0.394626
0.299509
0.298979
0.21054
0.203045
0.217227
0.228403
0.001
0.00101
0.0329295
0.001
0.0332718
0.001
0.00101
0.001
0.001
0.001
0.001
0.00170635
0.001
0.001
0.001
0.001
0.001
0.001
0.001
0.001
0.00137727
0.001
0.001
0.001
0.001
0.001
0.001
0.001
0.001
0.001
0.00100829
0.001
0.001
0.001
0.00100928
0.001
0.001
0.00104543
0.001
0.00100665
0.001
0.001
0.00101
0.001
0.00103346
0.001
0.00103344
0.001
0.00100234
0.001
0.00101
0.00101
0.001
0.001
0.001
0.001
0.001
0.001
0.001
0.001
0.0010078
0.001
0.001
0.001
0.001
0.001
0.001
0.001
0.001
0.00101
0.001
0.001
1.08967
1.07993
1.04352
1.05835
0.944095
1.03891
0.858358
0.811429
0.788047
0.782216
0.788626
0.786023
0.724796
0.727689
0.575534
0.534213
0.494757
0.666463
0.669496
0.616195
0.615844
0.616721
0.001
0.001
0.00117651
0.00117602
0.001
0.001
0.001
0.001
0.00117576
0.001
0.001
0.00100893
0.001
0.001
0.001
0.001
0.001
0.001
0.001
0.001
0.001
0.001
0.00140883
0.00140895
0.001
0.001
0.0655171
0.216711
0.347832
0.216386
0.510837
0.680228
0.712381
0.738065
0.827897
0.930729
1.0019
0.979451
1.03058
0.961352
0.993764
1.04758
1.00792
0.995085
0.00101838
0.001
0.00100993
0.001
0.001
0.00119306
0.001
0.001
0.00119306
0.001
0.001
0.001
0.001
0.001
0.001
0.001
0.001
0.001
0.00101
0.001
0.001
0.001
0.001
0.001
0.00205749
0.0010093
0.467392
0.467421
0.387808
0.405348
0.281154
0.303647
0.245785
0.243193
0.242556
0.242527
0.214472
0.215646
0.189388
0.189018
0.167222
0.209312
0.28739
0.241538
0.28948
0.285876
0.106707
0.128426
0.162641
0.154461
0.154591
0.156753
0.106772
0.102109
0.0860578
0.0948579
0.102944
0.106033
0.959557
0.952236
0.780972
0.69527
0.683758
0.67517
0.953654
0.861403
1.11254
1.18987
1.08849
1.00706
1.20149
1.18445
1.25073
1.29755
1.32909
1.3277
1.35595
1.32559
1.3824
1.40979
1.4009
1.40528
1.42229
1.4056
1.4092
1.45885
1.39988
1.3913
0.520186
0.445434
0.587833
0.660709
0.450783
0.392487
0.443181
0.444038
0.279268
0.327055
0.160066
0.332538
0.212735
0.489838
0.430089
0.493101
0.485904
0.486317
0.3847
0.286046
0.207679
0.195481
0.210438
0.245259
0.172359
0.152184
0.085168
0.175454
0.252935
0.245652
0.16668
0.26729
0.337186
0.282576
0.389686
0.336577
0.37777
0.432011
0.467479
0.445726
0.480138
0.478022
0.491812
0.48269
0.514815
0.52831
0.529161
0.538858
0.545487
0.548124
0.579705
0.589375
0.581042
0.575309
0.574771
0.570569
0.58841
0.602538
0.652105
0.64486
0.609739
0.6429
0.638372
0.672436
0.703545
0.76672
0.799424
0.796453
0.806964
0.879419
0.959112
1.03588
1.04835
1.17529
1.04897
1.10103
1.25006
1.27624
1.27163
1.31333
1.35675
1.41089
1.41697
1.42355
1.44895
1.47759
1.50719
1.51435
1.49217
1.49775
1.51522
1.49633
1.42371
1.48485
1.44965
1.40791
1.40981
1.43917
1.47427
1.48375
1.40936
1.47009
1.42754
0.255743
0.244646
0.318031
0.391211
0.28608
0.350748
0.487386
0.42394
0.4467
0.288068
0.18859
0.153111
0.158027
0.259321
0.241307
0.001
0.0238235
0.202789
0.0988948
0.202966
0.201811
0.206106
0.203501
0.212162
0.251304
0.001
0.001
0.001
0.001
0.00130401
0.00132621
0.001
0.001
0.001
0.00170623
0.001
0.001
0.001
0.001
0.001
0.00101
0.001
0.00137694
0.001
0.00101
0.001
0.001
0.001
0.001
0.001
0.001
0.00105195
0.001
0.001
0.001
0.001
0.001
0.001
0.001
0.001
0.001
0.001
0.001
0.001
0.001
0.001
0.00102284
0.001
0.001
0.001
0.001
0.001
0.001
0.001
0.00101
0.001
0.00100962
0.001
0.001
0.001
0.001
0.001
0.001
0.001
0.001
1.00403
0.990194
0.982954
0.976454
0.923861
0.958593
0.781301
0.845828
0.754882
0.742688
0.694996
0.669961
0.61458
0.618358
0.531998
0.428533
0.404671
0.573671
0.616868
0.617263
0.617077
0.616712
0.00117701
0.001
0.00117731
0.001
0.001
0.001
0.001
0.001
0.00100548
0.001
0.001
0.001
0.001
0.001
0.001
0.00100999
0.001
0.001
0.001
0.001
0.001
0.001
0.001
0.00101
0.001
0.026755
0.185885
0.215762
0.413489
0.242869
0.551627
0.685052
0.659245
0.761727
0.932555
0.838343
0.911512
0.913242
0.90685
0.929809
0.984751
0.995546
0.993581
0.962703
0.001
0.001
0.001
0.001
0.001
0.001
0.001
0.001
0.001
0.001
0.001
0.001
0.001
0.001
0.001
0.001
0.001
0.001
0.001
0.00100999
0.001
0.001
0.00193475
0.001
0.00101
0.001
0.001
0.001
0.001
0.001
0.001
0.342589
0.34338
0.306733
0.287286
0.24243
0.264753
0.233794
0.231777
0.386387
0.328947
0.306523
0.156993
0.168364
0.101653
0.10481
0.16772
0.166305
0.16126
0.202396
0.256421
0.215443
0.243282
0.230606
0.128085
0.104395
0.120445
0.141427
0.0632201
0.0663611
0.0695615
0.0774913
0.0951253
0.0841114
0.0449555
0.0560495
1.53126
1.54119
1.56887
1.54719
1.58771
1.57385
1.59546
1.59095
1.64683
1.63333
1.59392
1.64668
1.61695
1.66801
1.49889
1.44834
1.46872
1.51696
1.50159
1.46887
1.47069
1.5232
1.53317
1.50654
1.48846
1.54016
1.52204
1.52834
1.55611
1.40708
1.40954
1.40702
1.40624
1.42644
1.44705
1.00617
0.94301
0.839859
0.744663
0.660882
0.733523
0.936913
0.916877
1.15883
1.18551
1.06714
1.15541
1.19001
1.23958
1.28525
1.33005
1.3241
1.32712
1.32216
1.35559
1.36446
1.39248
1.37985
1.38062
1.38321
1.3929
1.37292
1.37344
0.568243
0.49607
0.441011
0.429015
0.485926
0.661342
0.639215
0.370048
0.422461
0.297473
0.236599
1.51279
1.53599
1.55115
1.56145
1.56559
1.57409
1.58061
1.60515
1.59295
1.61086
1.60975
1.65711
1.68076
1.70336
1.70129
1.70523
1.72169
1.74333
0.214517
0.14817
0.154851
0.41429
0.304819
0.476807
0.373138
0.294329
0.192667
0.198451
0.192527
0.195701
0.0554825
0.118632
0.001
0.001
0.0798186
0.001
0.257768
0.189421
0.089526
0.285148
0.284121
0.28611
0.338823
0.296147
0.420446
0.369172
0.454785
0.421301
0.455306
0.480682
0.505156
0.529549
0.554401
0.551076
0.562329
0.553278
0.611046
0.598348
0.591161
0.590278
0.640325
0.61584
0.687062
0.648272
0.626371
0.672926
0.716161
0.706875
0.730162
0.762181
0.765118
0.713144
0.818648
0.851762
0.821785
0.808516
0.8919
0.975951
1.04847
1.1157
1.06325
1.0811
1.21022
1.26945
1.30961
1.2937
1.35388
1.38907
1.42879
1.44196
1.43719
1.46013
1.51796
1.49604
1.49846
1.51006
1.51879
1.52471
1.48656
1.49117
1.51028
1.51485
1.50491
0.242101
0.233902
0.256001
0.174562
0.196902
0.209509
0.147175
0.295867
0.19404
0.136008
0.149028
0.132709
0.0239443
0.130655
0.155584
0.001
0.001
0.001
0.001
0.205519
0.0987478
0.101551
0.0999924
0.001
0.001
0.001
0.001
0.001
0.0011279
0.00112788
0.0013302
0.001
0.00101
0.001
0.001
0.001
0.001
0.001
0.001
0.001
0.00100984
0.001
0.00112783
0.001
0.001
0.001
0.00101
0.001
0.001
0.001
0.001
0.00240723
0.001
0.001
0.001
0.001
0.001
0.001
0.00100993
0.001
0.001
0.001
0.001
0.001
0.00101011
0.001
0.001
0.001
0.001
0.00101012
0.001
0.001
0.001
0.001
0.001
0.001
0.001
0.001
0.00101
0.001
0.001
0.001
0.001
0.001
0.001
0.001
0.001
0.001
0.001
0.00210595
0.001
0.001
0.001
0.001
0.00210591
1.69165
1.66228
1.64433
1.7391
1.77277
1.76743
0.996768
0.97128
0.950757
0.963877
0.886758
0.963418
0.787659
0.70316
0.633166
0.645689
0.617231
0.621032
0.615861
0.617412
0.493269
0.412476
0.501713
0.582086
0.578746
0.001
0.001
0.001
0.001
0.001
0.001
0.001
0.001
0.001
0.001
0.00100943
0.001
0.001
0.180503
0.216666
0.243019
0.00100998
0.001
0.001
0.001
0.001
0.001
0.001
0.001
0.001
0.001
0.0134236
0.38364
0.526761
0.639653
0.637985
0.961538
0.888376
0.887366
0.676055
0.773312
0.860458
0.899792
0.896703
0.911897
0.945614
0.948815
0.948338
0.001
0.00116262
0.001
0.001
0.001
0.001
0.00100904
0.001
0.001
0.001
0.001
0.001
0.001
0.001
0.001
0.001
0.001
0.00100504
0.001
0.001
0.001
0.001
0.001
0.001
0.001
0.001
0.001
0.001
0.001
0.001
0.00101
0.001
0.001
0.001
0.001
0.001
0.001
0.34241
0.377394
0.366629
0.308907
0.306496
0.281443
0.300612
0.168071
0.194862
0.111599
0.113086
0.314852
0.301176
0.0604872
0.0581206
0.0638493
0.0681735
0.117862
0.10449
0.131604
0.0834027
0.206514
0.162328
0.208009
0.215605
0.0468815
0.0010639
0.0251799
0.0568654
0.0333098
0.0360544
0.001
0.0107689
0.001
0.00100698
0.001
0.001
1.53233
1.54582
1.56599
1.59296
1.59894
1.6006
1.62851
1.60802
1.45895
1.46174
1.44412
1.46554
1.4967
1.45917
1.51106
1.47972
1.39548
1.38255
1.38144
1.41137
1.43998
1.41731
1.00925
0.92774
0.821413
0.91017
0.759198
0.673481
0.924555
0.924469
1.16496
1.17021
1.18527
1.07956
1.16014
1.27135
1.21519
1.15842
1.20247
1.30227
1.31789
1.30591
1.3118
1.32358
1.34343
1.37292
1.3638
1.37094
1.37023
1.369
1.36646
1.37406
1.36763
0.413565
0.413278
0.55411
0.638796
0.414442
0.498886
0.65374
0.671518
0.401084
0.350844
0.260408
0.327041
1.55076
1.49306
1.52915
1.57018
1.56578
1.57283
1.5821
1.60324
1.62519
1.63518
1.63567
1.63939
1.66236
1.70302
1.68456
1.70262
1.72083
1.76582
1.74504
1.57967
1.58717
1.60446
1.77401
1.7728
1.77066
0.153412
0.153457
0.153938
0.128671
0.217641
0.237413
0.0435958
0.0773141
0.113243
0.00119019
0.0417823
0.0471613
0.001
0.001
0.001
0.00100987
0.00575305
0.0330079
0.134648
0.0662072
0.068773
0.214131
0.284619
0.205943
0.359353
0.387204
0.321292
0.356745
0.423541
0.386634
0.515184
0.453324
0.526497
0.542194
0.5521
0.540666
0.59116
0.629431
0.665888
0.664332
0.671951
0.654015
0.681687
0.661831
0.712977
0.721405
0.745059
0.7377
0.718631
0.722453
0.842714
0.884464
0.786124
0.848336
0.899377
0.857384
0.961139
1.00389
1.10328
1.14285
1.11857
1.21173
1.26503
1.36357
1.35045
1.40848
1.38058
1.47569
1.48446
1.47736
1.50456
1.53285
1.5349
1.58549
1.55341
1.58618
1.55761
1.51398
1.55993
1.53208
1.56872
1.49617
0.001
0.001
0.001
0.00101954
0.173315
0.155146
0.147223
0.134789
0.154148
0.001
0.001
0.001
0.001
0.001
0.001
0.001
0.0221082
0.001
0.001
0.001
0.001
0.001
0.001
0.001
0.001
0.00103027
0.001
0.001
0.00112787
0.00112788
0.001
0.001
0.001
0.001
0.00101
0.001
0.0010004
0.001
0.001
0.001
0.001
0.001
0.00219599
0.001
0.001
0.001
0.001
0.001
0.00101
0.001
0.001
0.00219993
0.001
0.001
0.001
0.00100982
0.00131499
0.001
0.00100983
0.001
0.001
0.001
0.00101
0.001
0.00101019
0.00101025
0.001
0.001
0.00101019
0.00101022
0.001
0.001
0.001
0.001
0.00161451
0.001
0.00161439
0.001
0.001
0.001
0.001
0.00100984
0.00101
0.00100994
0.001
0.001
0.001
0.001
0.001
0.001
0.001
0.001
0.001
0.001
0.00131493
0.001
0.00100958
0.00100997
0.001
0.001
0.001
0.001
0.00101
1.63986
1.67561
1.67092
1.66788
1.70167
1.81224
1.78801
1.79318
1.81514
1.75355
0.90067
0.863227
0.803823
0.820983
0.774985
0.78813
0.719716
0.6645
0.651818
0.614886
0.592491
0.593974
0.505457
0.510518
0.380926
0.423388
0.420527
0.001
0.001
0.001
0.00101
0.001
0.001
0.001
0.215918
0.355098
0.213779
0.001
0.001
0.001
0.001
0.0828994
0.001
0.00101
0.001
0.001
0.00102144
0.001
0.001
0.001
0.001
0.001
0.767839
0.752335
0.785265
0.496949
0.63966
0.637036
0.671868
0.801203
0.866619
0.818508
0.737356
0.818281
0.857072
0.851668
0.760049
0.794444
0.001
0.001
0.00116265
0.00101
0.001
0.001
0.00101
0.0011743
0.001
0.001
0.001
0.001
0.001
0.001
0.001
0.00102904
0.001
0.00102915
0.00102907
0.00101
0.001
0.001
0.001
0.001
0.001
0.00100577
0.001
0.001
0.001
0.001
0.00109137
0.001
0.00100563
0.001
0.001
0.001
0.001
0.001
0.001
0.001
0.001
0.001
0.001
0.001
0.0010291
0.360092
0.373143
0.381255
0.247421
0.269024
0.230842
0.230162
0.155655
0.149706
0.061127
0.0732113
0.0588913
0.0610343
0.161848
0.155878
0.00847573
0.00792123
0.001
0.001
0.0529996
0.0418022
0.0712698
0.116723
0.204383
0.163447
0.235778
0.183818
0.001
0.00103574
0.0167425
0.0409198
0.001
0.001
0.001
0.001
0.00101
0.001
0.001
0.00104736
1.53373
1.48922
1.56368
1.53168
1.53405
1.58472
1.58268
1.62216
1.62149
1.65039
1.62295
1.57648
1.64613
1.60788
1.42492
1.42807
1.41775
1.43068
1.44248
1.45643
1.45498
1.46086
1.36718
1.36916
1.39476
1.37689
1.40838
1.4138
1.00993
0.930345
0.848604
0.92316
0.722294
0.813605
0.925532
0.931327
1.15677
1.15898
1.16124
1.08634
1.24506
1.29269
1.20326
1.15677
1.29707
1.30076
1.31396
1.3028
1.33809
1.36018
1.37396
1.36889
1.374
1.36797
1.37006
1.37008
1.37246
1.35678
0.407686
0.407043
0.570694
0.654368
0.555224
0.468654
0.709608
0.649046
0.384035
0.401753
0.37792
0.295953
1.52197
1.59436
1.58009
1.58655
1.60664
1.59967
1.63991
1.6458
1.62056
1.63401
1.62489
1.63403
1.63954
1.66279
1.68526
1.70299
1.70301
1.75514
1.7332
1.78213
1.78936
1.65735
1.67236
1.78875
1.79772
0.001
0.0493799
0.001
0.028566
0.001
0.001
0.001
0.001
0.00101
0.001
0.001
0.001
0.001
0.001
0.001
0.001
0.0677469
0.001
0.0746298
0.073916
0.0685384
0.141433
0.282489
0.192681
0.375941
0.374814
0.339584
0.292356
0.411106
0.459257
0.51517
0.500931
0.523597
0.514471
0.631478
0.584313
0.686081
0.670774
0.700208
0.700345
0.682096
0.734548
0.781669
0.750613
0.743254
0.763993
0.814048
0.805343
0.78167
0.829277
0.912885
0.909744
0.903687
0.925158
1.05412
0.971895
1.14177
1.16542
1.16704
1.2324
1.30902
1.38403
1.39148
1.40327
1.44963
1.49954
1.5347
1.5362
1.57495
1.546
1.59959
1.6172
1.61265
1.61633
1.60977
1.60439
1.60779
1.62959
1.55434
0.001
0.001
0.00729006
0.00102491
0.001
0.001
0.001
0.021531
0.001
0.00100812
0.001
0.00122159
0.00101701
0.00123164
0.00122276
0.00117745
0.00117147
0.001
0.00120836
0.0072052
0.001
0.001
0.001
0.00103049
0.001
0.0010303
0.00103026
0.001
0.001
0.00100217
0.001
0.001
0.001
0.001
0.00101
0.00152632
0.001
0.001
0.00100986
0.001
0.001
0.001
0.00186786
0.001
0.001
0.001
0.001
0.001
0.001
0.001
0.001
0.001
0.00100941
0.001
0.001
0.001
0.00100992
0.001
0.001
0.001
0.00101
0.001
0.001
0.001
0.001
0.001
0.001
0.0010008
0.001
0.001
0.001
0.00100949
0.001
0.001
0.001
0.001
0.001
0.001
0.001
0.001
0.001
0.001
0.00101
0.001
0.001
0.001
0.001
0.001
0.001
0.001
0.001
0.001
0.001
0.001
0.001
0.001
0.001
0.001
0.001
0.001
0.001
0.001
0.001
0.001
0.001
0.001
0.001
0.001
0.001
0.001
0.001
0.001
0.00106357
0.001
0.001
0.001
0.001
1.84236
1.83105
1.8469
1.83799
1.84905
1.84805
1.68236
1.69123
1.75284
1.72009
1.81701
1.83845
1.81411
1.68852
1.62949
0.738583
0.763373
0.740603
0.731524
0.759501
0.683906
0.724114
0.510675
0.572238
0.436742
0.434523
0.378135
0.383567
0.381101
0.001
0.001
0.001
0.001
0.189954
0.378947
0.212256
0.001
0.001
0.164518
0.0555898
0.001
0.001
0.001
0.001
0.001
0.001
0.0010404
0.0010405
0.001
0.00104042
0.001
0.001
0.001
0.745949
0.755152
0.75875
0.755598
0.762235
0.464848
0.580919
0.524721
0.648764
0.696451
0.733896
0.661454
0.742364
0.700234
0.687711
0.690014
0.001
0.00109314
0.001
0.001
0.001
0.001
0.001
0.00101455
0.001
0.001
0.0010125
0.001
0.001
0.001
0.00101994
0.001
0.001
0.001
0.001
0.001
0.001
0.001
0.001
0.001
0.001
0.00100955
0.001
0.001
0.001
0.001
0.001
0.001
0.001
0.001
0.001
0.001
0.00109136
0.001
0.00109113
0.001
0.001
0.001
0.001
0.001
0.00100037
0.001
0.001
0.001
0.001
0.001
0.00101
0.001
0.001
0.001
0.001
0.001
0.001
0.358154
0.286068
0.27904
0.207032
0.19761
0.113126
0.105997
0.0932232
0.0924849
0.0841403
0.0940066
0.0230267
0.0324711
0.001
0.001
0.0917406
0.0977309
0.001
0.001
0.001
0.001
0.163757
0.225936
0.147069
0.0409354
0.0220906
0.0996769
0.0345147
0.105461
0.001
0.001
0.001
0.001
0.00183745
0.00183779
0.001
0.001
0.001
0.001
0.00100972
0.001
1.51881
1.48312
1.5094
1.50995
1.51043
1.53565
1.5123
1.56307
1.56549
1.59563
1.66064
1.61749
1.56112
1.41816
1.41679
1.4428
1.42798
1.45869
1.45516
1.48138
1.46541
1.36609
1.37555
1.40025
1.38331
1.39523
1.40874
1.04838
0.968139
0.890914
0.926675
0.875834
0.782702
0.964712
0.926886
1.16136
1.1618
1.12129
1.16669
1.25422
1.30048
1.16448
1.20868
1.30429
1.29916
1.32457
1.30778
1.34916
1.36963
1.35841
1.36879
1.37048
1.36331
1.36709
1.36279
1.36564
1.36533
0.400366
0.464557
0.654417
0.62551
0.549347
0.636167
0.651249
0.729499
0.395838
0.392448
0.387628
0.30976
0.141363
0.186202
0.268404
1.60086
1.63389
1.6394
1.64114
1.66352
1.66936
1.6787
1.67572
1.71176
1.68857
1.70168
1.6661
1.6976
1.70878
1.73254
1.75134
1.76604
1.76402
1.81575
1.81775
1.84095
1.81855
1.73004
1.73266
1.85312
1.85159
0.001
0.001
0.00101
0.001
0.001
0.00125114
0.00125064
0.001
0.001
0.001
0.001
0.00208771
0.00101238
0.001
0.001
0.001
0.00100232
0.001
0.127439
0.0850123
0.001
0.179067
0.220359
0.240539
0.217638
0.321858
0.393062
0.271641
0.49933
0.436043
0.505926
0.511084
0.599175
0.538577
0.660491
0.692727
0.685845
0.693884
0.813396
0.783908
0.753269
0.806401
0.826475
0.823951
0.822784
0.807911
0.824361
0.827193
0.903466
0.951406
0.985769
0.942128
0.987051
1.00973
1.15242
1.08654
1.18047
1.1643
1.24826
1.31903
1.40769
1.40198
1.43804
1.47537
1.55204
1.54077
1.56581
1.56763
1.59682
1.60854
1.62383
1.61964
1.63073
1.6314
1.6143
1.62741
1.62005
1.61589
0.001
0.001
0.00101
0.001
0.001
0.001
0.001
0.001
0.001
0.00115727
0.001
0.001
0.001
0.00120677
0.00123663
0.00124019
0.00125493
0.00126158
0.00127664
0.001
0.001
0.00100982
0.001
0.001
0.001
0.00100179
0.001
0.001
0.001
0.001
0.001
0.00101
0.001
0.001
0.00100863
0.00148341
0.001
0.001
0.001
0.00373504
0.001
0.001
0.001
0.00100989
0.001
0.001
0.001
0.00100983
0.001
0.001
0.00100647
0.001
0.00100976
0.001
0.001
0.001
0.001
0.001
0.00343203
0.001
0.001
0.001
0.001
0.001
0.00126463
0.00126455
0.00126457
0.001
0.001
0.001
0.001
0.001
0.001
0.001
0.001
0.001
0.001
0.001
0.001
0.001
0.001
0.001
0.001
0.001
0.001
0.001
0.001
0.001
0.001
0.001
0.001
0.001
0.001
0.001
0.001
0.001
0.001
0.001
0.001
0.001
0.001
0.001
0.001
0.001
0.001
0.001
0.00101
0.001
0.00146864
0.001
0.00110443
0.001
0.00109707
0.001
0.001
0.001
1.86215
1.88339
1.89362
1.84973
1.85367
1.83884
1.84826
1.73657
1.75284
1.7706
1.78668
1.78818
1.82367
1.85028
1.70167
1.73263
1.64753
1.67306
1.6662
0.746052
0.744536
0.652052
0.605948
0.712447
0.64095
0.645287
0.515078
0.543853
0.409634
0.380813
0.384389
0.380453
0.358127
0.001
0.001
0.298887
0.408733
0.191287
0.001
0.001
0.1405
0.136779
0.001
0.001
0.001
0.0114071
0.001
0.001
0.001
0.001
0.00101
0.001
0.001
0.001
0.001
0.001
0.001
0.706599
0.751574
0.731933
0.697362
0.471104
0.468985
0.49238
0.563917
0.682007
0.683421
0.633854
0.682404
0.680892
0.00100999
0.001
0.001
0.001
0.001
0.001
0.00113692
0.00113571
0.001
0.001
0.00101
0.00100946
0.001
0.001
0.00100846
0.001
0.0010099
0.00384439
0.001
0.001
0.001
0.001
0.001
0.001
0.001
0.00109134
0.001
0.001
0.00103682
0.001
0.001
0.001
0.001
0.001
0.001
0.001
0.001
0.001
0.001
0.001
0.001
0.001
0.001
0.001
0.001
0.001
0.001
0.001
0.001
0.001
0.001
0.00204382
0.001
0.001
0.001
0.001
0.001
0.001
0.001
0.001
0.001
0.001
0.001
0.277125
0.19237
0.188838
0.129693
0.133167
0.108568
0.126538
0.092195
0.134954
0.0600544
0.0575183
0.001
0.001
0.001
0.001
0.001
0.001
0.014945
0.001
0.001
0.001
0.001
0.001
0.0945801
0.124319
0.00100864
0.001
0.0164357
0.130996
0.186858
0.145969
0.001
0.001
0.001
0.00121065
0.00101
0.001
0.001
0.001
0.001
0.00100999
0.001
0.001
1.47208
1.49362
1.5115
1.51804
1.54203
1.53463
1.56725
1.53211
1.5512
1.61041
1.56578
1.64019
1.60352
1.67602
1.39915
1.4225
1.41619
1.43863
1.41811
1.44303
1.48886
1.43703
1.3624
1.37736
1.38205
1.38891
1.38502
1.38991
1.10246
1.01917
0.910944
0.928222
0.833624
0.92327
0.932494
0.991502
1.16837
1.1667
1.16904
1.14369
1.25849
1.30456
1.22537
1.18058
1.30992
1.30793
1.3096
1.33426
1.36159
1.35834
1.36543
1.3645
1.35119
1.3734
1.36285
1.35613
1.37112
1.36634
0.486211
0.387804
0.661477
0.659925
0.570891
0.669236
0.663874
0.763733
0.385466
0.386946
0.368452
0.354872
0.289154
0.384848
1.63109
1.64515
1.66597
1.70235
1.69898
1.71715
1.73037
1.73516
1.74995
1.73384
1.74156
1.76413
1.78448
1.79798
1.79641
1.80756
1.82971
1.84946
1.86162
1.85981
1.87218
1.74563
1.73338
1.89064
1.90933
0.001
0.001
0.001
0.001
0.001
0.001
0.001
0.001
0.001
0.00208764
0.001
0.001
0.001
0.001
0.001
0.00105187
0.00105187
0.001
0.001
0.0904692
0.0130635
0.175194
0.265995
0.248914
0.169201
0.323799
0.326838
0.414984
0.478516
0.449403
0.527003
0.467688
0.661425
0.581272
0.690391
0.693094
0.706078
0.76711
0.898609
0.901813
0.844306
0.873915
0.902317
0.850268
0.962071
0.884767
0.8634
0.900973
1.0291
1.04459
1.10582
1.16149
1.04151
1.13616
1.28002
1.22841
1.29694
1.26768
1.45915
1.42425
1.49069
1.5068
1.57633
1.59126
1.64999
1.6172
1.6628
1.6495
1.66886
1.69964
1.67324
1.70247
1.71197
1.67213
1.66106
1.70235
1.70017
1.67241
0.001
0.001
0.00101
0.001
0.001
0.001
0.001
0.001
0.001
0.00107498
0.001
0.001
0.001
0.001
0.001
0.001
0.001
0.0013066
0.001
0.001
0.00131483
0.00100976
0.001
0.001
0.00118169
0.001
0.001
0.001
0.001
0.001
0.00147633
0.00100993
0.001
0.001
0.001
0.001
0.001
0.001
0.001
0.001
0.001
0.001
0.001
0.001
0.001
0.001
0.00101418
0.00101421
0.00101432
0.001
0.001
0.001
0.001
0.00122079
0.001
0.001
0.00122071
0.001
0.001
0.001
0.00100996
0.00146858
0.001
0.00117301
0.001
0.001
0.001
0.001
0.00101
0.001
0.001
0.001
0.001
0.001
0.001
0.001
0.001
0.001
0.001
0.001
0.001
0.001
0.001
0.001
0.001
0.001
0.001
0.001
0.001
0.001
0.001
0.001
0.001
0.001
0.001
0.001
0.001
0.001
0.001
0.001
0.001
0.001
0.001
0.001
0.001
0.001
0.001
0.001
0.001
0.001
0.001
0.001
0.001
0.001
0.001
0.001
0.001
0.00110443
0.001
0.001
0.001
0.00117302
0.001
0.001
1.91449
1.89945
1.91422
1.88762
1.87539
1.90278
1.88824
1.86755
1.88656
1.74438
1.77173
1.76768
1.76958
1.84331
1.88962
1.90595
1.80673
1.67745
1.71002
1.68609
1.68855
1.67432
1.71559
1.60663
0.511337
0.607747
0.512594
0.547456
0.554946
0.460676
0.45422
0.458328
0.461487
0.459988
0.435563
0.352976
0.332586
0.247005
0.25092
0.359295
0.47118
0.001
0.001
0.134635
0.136517
0.001
0.00100999
0.0740976
0.001
0.00100155
0.001
0.00102801
0.001
0.001
0.001
0.001
0.00102326
0.001
0.0010224
0.001
0.00101933
0.616958
0.541243
0.519289
0.604946
0.4684
0.494785
0.631285
0.55876
0.609293
0.677278
0.679016
0.00109946
0.001
0.001
0.00114962
0.001
0.001
0.00113616
0.001
0.001
0.001
0.00100995
0.001
0.001
0.001
0.001
0.001
0.0038444
0.00384454
0.001
0.001
0.00384358
0.001
0.00204385
0.001
0.001
0.001
0.001
0.00359534
0.001
0.0010369
0.0036189
0.001
0.001
0.001
0.001
0.001
0.001
0.001
0.001
0.001
0.001
0.001
0.001
0.00101
0.001
0.001
0.001
0.001
0.001
0.0011879
0.001
0.001
0.001
0.00101
0.001
0.001
0.001
0.001
0.001
0.001
0.001
0.001
0.001
0.001
0.001
0.001
0.001
0.001
0.001
0.001
0.001
0.001
0.001
0.135619
0.132354
0.163209
0.133345
0.134806
0.12781
0.128699
0.001
0.001
0.0340196
0.0512216
0.001
0.001
0.0016281
0.001
0.001
0.001
0.001
0.001
0.001
0.0016281
0.001
0.001