/*--------------------------------*- C++ -*----------------------------------*\
  =========                 |
  \\      /  F ield         | OpenFOAM: The Open Source CFD Toolbox
   \\    /   O peration     | Website:  https://openfoam.org
    \\  /    A nd           | Version:  8
     \\/     M anipulation  |
\*---------------------------------------------------------------------------*/
FoamFile
{
    version     2.0;
    format      ascii;
    class       volScalarField;
    location    "15360";
    object      nut;
}
// * * * * * * * * * * * * * * * * * * * * * * * * * * * * * * * * * * * * * //

dimensions      [0 2 -1 0 0 0 0];

internalField   nonuniform List<scalar> 
526318
(
0.000282354
0.000267509
0.000113622
0.000250966
0.000487799
0.000184694
0.000127354
0.000188249
0.000126971
7.45475e-05
5.02047e-05
0.000348942
0.000222064
3.6381e-06
0.000260867
2.22361e-05
0.000205762
0.000255386
0.000156145
0.000349249
7.26354e-05
0.000325886
0.000181765
6.05116e-05
6.8873e-05
0.000174966
0.000148862
0.000173981
0.000292348
0.000148814
0.000149565
9.87497e-05
0.000142304
0.000272968
0.000336811
0.000216544
0.000264913
0.000327327
0.000238764
0.000251734
0.000198105
0.000422665
0.000243461
0.000123561
0.000164753
0.000202167
0.000122602
0.000122314
0.00021788
0.000223578
0.000221841
7.88295e-05
0.000412498
0.000158028
0.000252414
0.000222194
0.00025085
0.000209995
0.000394363
0.000125421
0.000270768
1.443e-05
0.000372546
0.000247795
0.000213303
0.000401532
0.000126234
9.37588e-05
0.000131424
0.000144209
0.000131068
7.32039e-05
0.000245876
1.20705e-05
0.000293797
0.000234379
7.97631e-05
0.000301502
0.000199791
0.000213403
0.000216476
0.000403639
0.000166367
0.000145982
0.000207092
0.000132477
0.000283152
0.000301466
0.000161666
0.000163164
3.32206e-05
9.2817e-05
0.000175278
0.000198533
0.000232363
0.000241356
9.2737e-05
0.000113334
2.39129e-05
0.000197633
0.000101108
0
0.000154283
0.000120963
0.000163074
0
6.79698e-05
0.000206723
0.000126648
0.000145746
0.000233863
0.000147709
6.56824e-05
0.000299375
0.000264953
0.000114309
0.000347599
0.000106844
0.000300181
0.000168556
0.000207947
0.000242525
0.000157802
0.000116889
0.000210037
0.000201415
0.000122698
0.000152563
0.000197021
0.000195155
0.00018205
0.000191136
0.00016141
0.000166628
0.000199483
0.000184164
0.000218605
0.000166534
0.000186763
0.000169791
0.000176234
0.000143305
0.000208787
0.000166995
0.000149351
0.000146103
0.000129747
0.000141658
0.000130751
0.000134269
0.000150597
0.000135081
0.000161591
0.000156683
0.000154483
0.000152909
0.000145252
0.000134346
0.000140827
0.000107786
9.73217e-05
0.000120104
0.000136878
0.000109883
0.000198166
0.000195489
0.000305659
0.00018048
0.000121713
6.86995e-05
0.00020964
3.18883e-05
0.000175362
0.000234732
7.98874e-05
0.00010451
0.000111551
0.000146438
9.62027e-05
3.62157e-05
0.000130667
8.65675e-05
0.000216874
0.000194037
0.000130245
0.000195612
0.000208971
0.000207029
0.000207064
0.00019427
0.000216719
0.000159168
0.000204978
0.000189585
0.000148407
0.000143308
0.000175219
0.000160334
0.000129967
0.000140483
0.000141974
0.000143378
9.55421e-05
0.000123874
0.000130514
0.00014707
9.52871e-05
0.000120666
0.000131191
0.000149568
0.000582592
0.00051401
0.000229804
0.000609864
0.000320763
0.00013161
0.000248186
7.49753e-05
0.000332071
0.000159112
0.000155608
0.000122993
0.000251708
0.0001198
0.000256579
0.000229364
0.000151508
2.98394e-05
8.24819e-05
7.99737e-05
0
0.000103232
9.41797e-05
0
0
0
0
0
0
0.000162056
0.000162052
0.000107306
2.40673e-05
0.000440698
0.000342783
0.00018104
0.000322534
9.85267e-05
0.000114938
0.000356832
0.000298623
0.000219289
0.000188823
0.000263137
0.000121951
5.69295e-05
0.000163403
0.000266968
0.000233245
0.000134006
0.000217658
0
0
0
0
9.26859e-05
2.44721e-05
7.22756e-05
0.00014123
0.000139496
0.000143161
4.12174e-05
0.000135508
7.80636e-05
2.9935e-05
0.000118525
0.000148666
0.000186495
0.000107736
0.000129927
0.000379919
0.00015625
0.00023206
0.000193117
0.000143515
0.000130028
0.000162522
0.000144405
0.000136969
0.000158428
0.000163829
0.000145603
0.000151877
0.000101261
8.09568e-05
6.01699e-05
0.000104519
9.24071e-05
7.04037e-05
8.8153e-05
9.40582e-05
9.96959e-05
8.65161e-05
0.000117716
7.32471e-05
9.8375e-05
0.000112192
0.000123494
0.000119036
9.12868e-05
0.000108703
9.46886e-05
5.85801e-05
0.000117258
0.000109372
6.00831e-05
6.37438e-05
6.13653e-05
7.50793e-05
6.33082e-05
0.000165226
0.000307014
9.03161e-05
0.00016137
0.000125213
0.000174208
9.62747e-05
0.000229649
0.000117933
0.00011191
5.88947e-05
5.28571e-05
0.000116289
2.50528e-05
7.39786e-05
5.5668e-05
0.000107959
8.86117e-05
3.53556e-05
0.000149181
0.000178969
0.000191905
0.000190928
0.000197002
0.000182486
0.00018516
0.000186608
0.000158017
0.000153819
0.000186059
0.000174582
0.000193423
0.000159076
0.000194169
0.000167334
0.000147826
0.000139701
0.000145783
0.000137005
0.000143654
0.000137494
0.000140792
0.00015222
9.26452e-05
0.000121644
0.000160573
7.12676e-05
8.69218e-05
8.29271e-05
6.21407e-05
7.47972e-05
0.000108903
7.98778e-05
7.16947e-05
0.000104645
0.00010162
0.000113061
0.000330759
5.93292e-05
0.000137663
0.000518451
0.00027396
0.000424164
0.000277301
0.000355477
0.000400646
2.93636e-05
0.000175312
8.08432e-05
9.78978e-05
3.06684e-05
0.000124098
0.00026782
0.000101606
0.000311326
0.000213631
0.000217589
0.000169309
0.000144224
0
1.51504e-05
5.16091e-05
1.23568e-05
8.42709e-05
3.40733e-05
0
0
0
0
0
0
0
0
0
0
0.000211121
0.000380343
8.96736e-05
0.000334112
0.00019059
0.000274089
0.000172485
0.000176117
0.000114887
0.000299745
0.000140049
0.000273575
0.000176329
0.000237924
0.000205574
0.000220649
0.000204036
0.000163503
0.000244258
0.000171772
0.000215865
0.000167988
0
3.30049e-10
6.99266e-11
0
0
0
0
8.38221e-11
2.85058e-10
1.55372e-10
0
0
0
0
0
0
0
0
0
0
4.49865e-05
0
6.95136e-05
3.23463e-05
0.0001294
5.98715e-05
0.000187169
0.000156363
0.0001317
0.000105376
0.000270778
0.000174134
0.000146418
0.00010489
0.000148019
0.000192632
0.00021134
0.000164534
0.000181189
0.000133567
0.000129696
0.000173924
0.000142457
0.000111989
0.000139321
0.000145128
0.000165556
0.000149084
0.000113696
0.000138303
0.000108027
4.529e-05
0.000101102
0.000100386
0.000117386
3.08021e-05
0.000101191
4.89718e-05
6.50278e-05
0.000177619
5.71567e-05
8.33816e-05
0.000105403
7.47806e-05
9.97731e-05
4.93884e-05
9.79303e-05
2.85083e-05
5.65108e-05
5.25545e-05
8.9003e-05
0.000107677
0.000113968
0.000144794
0.00011833
0.00011705
5.81532e-05
7.21537e-05
5.67116e-05
0.000104581
0.000102216
5.34857e-05
8.50939e-05
9.65464e-05
0.000102108
0.000174506
0.000104257
5.68999e-05
4.95961e-05
8.43132e-05
7.35001e-05
3.76311e-05
0.000118925
3.94448e-05
7.62894e-05
5.68552e-05
6.5786e-05
6.4916e-05
8.82089e-05
5.44121e-05
6.72517e-05
0.000112988
4.9743e-05
8.61338e-05
0.000155858
0.000152263
0.000170588
0.000157003
0.000171281
0.000151142
0.000166824
0.000147507
0.000198442
0.000179728
0.000224925
0.000188238
0.000225414
0.00017305
0.00017364
0.000172704
0.000154852
0.000150924
0.000148268
0.000143412
0.000153034
0.000154498
0.000158135
0.000103907
0.000110189
0.000143558
0.000151448
8.31072e-05
0.000140751
0.000115636
7.90322e-05
0.00010754
6.46974e-05
9.80912e-05
0.000126088
0.000138366
5.40007e-05
5.03905e-05
0.000160504
4.0172e-05
8.99609e-05
0.000232005
8.12763e-05
0.000354702
0.000333978
0.000235783
0.000140727
7.02261e-05
6.83816e-05
0.000117963
0.000122469
4.69746e-05
6.23803e-05
0.000244413
0.000185201
0.000406649
0.00030668
0.000275533
0.000298999
0.00010857
0.000178641
0
0
4.85904e-05
0
6.44338e-05
0.000102446
0
0
0
0
0
0
0
0
0
0
0
0
0
0
0
0
0
0
0
0
1.99845e-09
0
0
0
7.33086e-10
2.13901e-09
0
0
0
0
0
0
0
0
0
0
0
0
0
0
0.000354816
0.000361132
0.000373591
0.000223881
0.000257575
0.000168773
0.000326456
0.000285863
0.000243782
0.000165121
0.000260132
0.000122491
0.000273258
0.000184958
0.000174394
0.000190913
0.000203582
0.000131051
0.00015242
0.000179301
0.000141271
0.000163748
0
0
0
0
0
0
0
0
0
0
0
0
0
0
0
0
0
0
0
0
0
0
0
0
0
0
0
0
0
0
0.000153941
1.69093e-06
7.93076e-05
5.02217e-05
6.33702e-05
0.000117884
8.9957e-05
0.000204714
0.00021068
8.70844e-05
0.000173298
0.000200908
0.000104932
0.000201471
0.000148757
0.000117344
0.000265856
0.000174645
7.66721e-10
0
0
0
0
0
0
0
0
0
0
0
0
0
0
0
0
0.000134622
0.000133175
0.000139333
0.00010363
9.87135e-05
0.000147519
0.000124646
0.000136113
0.000137574
7.23084e-05
6.39249e-05
8.47165e-05
8.58716e-05
0.000100673
0.000107195
5.98105e-05
3.85098e-05
1.76097e-05
2.52896e-05
5.66531e-05
4.31308e-05
5.52937e-05
8.00973e-05
6.67285e-05
9.38675e-05
5.85213e-05
8.20054e-05
9.93246e-05
0.000101463
5.04911e-05
3.41563e-05
8.22451e-05
4.86117e-05
0.000134462
8.30396e-05
0.000143615
0.000122374
0.000144056
0.000145964
6.02342e-05
0.000101442
0.000144943
0.000128481
0.000117636
0.00018598
0.000123115
0.000110803
0.000109372
8.78285e-05
0.000118634
0.000130227
7.54795e-05
7.71992e-06
3.15434e-05
0.000188538
9.99208e-05
0.000103576
9.63491e-05
3.78736e-05
9.77585e-05
0.000127057
7.64313e-05
4.39004e-05
3.16516e-05
3.48446e-05
8.03093e-05
9.17913e-05
6.02099e-05
7.2023e-05
3.47476e-05
6.74007e-05
7.02676e-05
8.80848e-05
0.000146276
0.000150757
9.80038e-05
0.000163907
0.000147313
0.000153615
0.000215684
0.000231181
0.000166389
0.000187098
0.000219958
0.000161318
0.000184103
0.000180632
0.000142896
0.000151264
0.000164463
0.00016898
0.000182687
0.000180164
0.00016932
0.000190878
0.000180448
0.0001633
0.000104145
0.000184994
0.000126589
9.06048e-05
5.35085e-05
0.000119292
9.93301e-05
0.000112613
0.000123065
5.73223e-05
9.16434e-05
3.21815e-05
0.000135397
2.33927e-05
0.000150674
0.000144712
2.4098e-05
6.78812e-05
2.45011e-05
0.000134052
8.2855e-05
0.000140293
0.000145774
3.05459e-05
9.33813e-05
3.56641e-05
8.49501e-05
8.83366e-05
0.00016355
8.93613e-05
0.000147903
8.67465e-05
0.000149556
0.000214973
0.000160969
0.000106312
0.000175456
0.000191922
0.000136732
0.000178814
0.000198149
0.000162897
0.000159267
0.000189648
0.000219268
0.00011765
0.000215597
8.76066e-05
0.00020391
0.000180835
0.000167451
0.000161214
0.000184159
0.000259667
0.000119517
0.000149694
0.000130425
4.3434e-05
9.14461e-05
0.000103616
0.000172961
0.000254195
1.97782e-05
5.84349e-05
0.000107624
3.03228e-05
3.95699e-05
0.000100664
0.000100423
3.44498e-05
0.000192065
0.000355498
0.000246301
0.000258319
0.000394697
0.000176724
0.000149212
0.000110272
0.000105326
0
0
3.30273e-05
0
2.86665e-05
0
0
0
0
0
0
3.58289e-09
0
0
0
0
0
0
0
0
4.07951e-09
0
0
0
0
0
0
0
0
0
0
0
0
0
0
0
0
1.70119e-09
0
0
0
0
0
0
1.00885e-09
0
6.60961e-10
0
0
0
0
0
0
0
0
0
0
0
0
0
0
0
0
0
0
0
0
0
0
0
0
0
0.000235133
0.000175275
0.000179388
0.000305661
0.000229147
0.000117501
0.000211021
0.000194497
0.000266406
0.000365027
0.0003202
5.92953e-05
4.11657e-05
0.000245002
0.000140678
0.000102288
0.000157581
0.000182937
9.81379e-05
7.63607e-05
0.000188591
0.000148827
0
0
3.94135e-10
8.34869e-10
0
0
0
0
5.17087e-10
0
0
0
0
0
0
0
0
0
0
0
0
0
3.41751e-09
2.90828e-09
0
0
1.03344e-05
9.46807e-05
6.35323e-05
3.24107e-05
0.000172066
0.000124834
0.000174514
0.000128924
0.000118623
0.000101112
9.72556e-05
7.48172e-05
0.000251853
5.74768e-05
5.67024e-05
0.000148509
0.00019866
0.000379233
5.25696e-10
0
0
0
0
2.67092e-11
0
0
1.03759e-11
0
0
0
0
0
0
0
0
0
0
0
0
0
0
0
4.98999e-07
9.96489e-07
9.96141e-05
0.000110136
6.74177e-05
0.000108464
6.74887e-05
0.000115466
7.85108e-05
8.84835e-05
9.24645e-05
6.14042e-05
5.53512e-05
3.45057e-05
0.000122592
5.60918e-05
9.01628e-05
9.18929e-05
6.89032e-05
1.66877e-05
0.000123888
4.77477e-05
5.34964e-05
6.31959e-05
6.35809e-05
6.45962e-05
4.28462e-05
3.86183e-05
2.49691e-05
4.88245e-05
6.7344e-05
5.72443e-05
3.99828e-05
7.55089e-05
0.000114364
0.000156701
0.000147765
0.000170189
0.000159371
0.000170533
0.000157235
0.000179861
0.000175326
0.000159
0.000159349
0.000183844
0.000252689
0.000200577
0.000206522
0.000237359
0.000238246
0.00024762
0.000282359
0.000261245
0.000339521
0.000268439
0.000286864
0.000287979
0.000130576
0.000210355
0.000124731
7.01168e-05
0.000233535
0.000290903
9.00211e-05
0.000151231
0.000190936
0.000140947
0.0001557
4.13034e-05
5.97007e-05
7.83765e-05
9.88064e-05
0.000111896
7.81935e-05
4.47568e-05
2.34369e-05
9.93717e-05
6.25555e-05
9.54663e-05
0.000124262
0.000199942
0.000115223
6.21064e-05
3.40136e-05
1.55481e-05
4.99364e-05
1.23968e-05
3.5169e-05
3.67693e-05
5.35429e-05
5.60237e-05
5.72451e-05
9.03662e-05
0.000179258
0.000137726
0.000155389
0.000156217
0.000162338
0.000199186
0.000195893
0.000152878
0.000182913
0.000180816
0.000141534
0.000189682
0.000180254
0.000112503
0.000154736
0.000187485
0.000203746
0.000223151
0.000213294
0.000194604
0.000180096
0.000163328
0.000169233
0.00017107
8.20138e-05
8.47007e-05
0.000118771
0.000116659
9.2848e-05
0.000131386
8.12441e-05
7.20757e-05
9.87277e-05
0.00010278
3.83748e-05
8.08758e-05
0.000106819
3.61064e-05
3.60153e-05
0.000111324
1.82065e-05
9.70651e-05
1.36022e-05
3.70748e-05
4.05306e-05
2.11734e-05
2.70223e-05
2.72025e-05
7.4518e-05
5.29494e-05
0.000105505
8.84644e-05
9.03354e-05
8.02765e-05
8.1657e-05
3.21902e-05
0.000143166
0.000150175
0.000213979
0.000109172
0.00018296
0.000124182
0.000106261
0.000202513
0.000150431
0.000107594
0.000122732
0.000111893
9.90238e-05
0.000133531
0.000125949
0.000151424
0.000113651
0.000103229
0.000153201
3.32393e-05
0.000156191
0.000113107
0.00010926
9.59715e-05
1.65232e-05
0.000142374
3.62011e-05
5.81214e-05
1.18196e-05
6.11312e-05
0.00010042
7.97686e-05
0
2.46143e-05
9.07776e-05
0.000127149
0.000263731
0.000156781
8.6835e-05
0.000165892
0.000260404
0.000411127
0
0
0
0
4.19821e-08
4.63365e-08
0
0
0
4.23102e-09
0
0
0
0
0
0
0
5.91553e-09
0
0
0
0
0
0
0
0
2.09522e-11
0
0
0
0
0
0
0
0
0
0
0
0
0
0
2.0042e-10
0
0
0
0
0
0
0
0
0
0
0
0
0
0
0
0
0
0
0.000242009
0.000212287
0.000243158
0.00016817
0.000276337
0.000277815
0.000276483
0.000291463
0.000134949
0.000113165
5.98159e-05
0.000255573
0.000131286
3.19124e-05
0.000127858
4.80092e-05
0.000121653
8.91344e-05
9.49423e-05
0.000140769
0.000131894
0.000140186
8.11086e-10
0
8.00283e-10
0
0
0
0
0
0
0
0
0
0
0
0
0
0
0
0
0
0
0
0
0
0
2.10259e-05
0.000132655
8.00808e-05
5.77211e-05
4.19537e-05
8.16157e-05
9.61915e-05
9.19154e-05
8.92502e-05
0.0001442
0.000193409
5.18061e-05
8.12027e-05
2.08578e-05
6.49584e-05
0.000333766
0.000128044
0.000348185
0.000190444
0
0
0
0
0
0
0
0
0
0
0
0
0
0
0
0
0
0
0
0
0
0
4.03598e-07
0
0
0
0
0
0
0
0
4.11623e-05
9.46786e-05
8.19657e-05
5.2228e-05
3.9992e-05
8.40265e-05
3.16115e-05
7.19182e-05
9.13456e-05
4.56915e-05
6.22165e-05
5.66603e-05
6.42652e-05
2.25081e-05
1.68446e-05
2.63284e-05
1.31134e-05
8.76077e-05
0.000133551
0.00011298
5.86525e-05
5.77533e-05
8.23781e-05
3.50009e-05
2.89712e-05
2.865e-05
4.88488e-05
1.26939e-05
7.56259e-06
3.07835e-05
6.59571e-05
6.62076e-05
0.000103273
4.13481e-05
1.16527e-05
0.000218721
0.00024804
0.000288001
0.0002672
0.000239044
0.000245858
0.000299802
0.000260267
0.000293928
0.000260915
0.000213308
0.000293419
0.000289074
0.000283017
0.000188538
0.00010676
0.000113956
0.0001694
0.000204107
0.000205844
0.000217331
0.000178442
0.000229951
0.000213039
0.000183023
0.000207111
0.000175922
0.000304348
0.000259418
0.000137712
0.000115501
0.000112599
0.000130085
9.71558e-05
0.000112974
0.000184338
0.000209955
0.000203171
0.000205708
0.000184119
0.000174568
0.000207709
0.000243193
0.000220237
0.000282801
0.000301055
0.000279919
0.000250672
0.000301809
0.00027488
0.000297903
0.000331558
0.000307594
0.000347716
0.00036645
0.000354093
0.00036852
0.000376796
0.000318145
0.000265848
0.00019909
0.000294008
0.000282126
0.000110961
0.000179348
7.00355e-05
0.000139675
7.94107e-05
0.000171687
0.000178594
8.83084e-05
0.000116182
0.000140331
0.000101938
0.000160788
0.000147505
0.000192413
0.000236887
0.000172473
0.000218715
0.000252969
0.000193073
0.000238693
0.000270487
0.00025149
0.00028401
0.000246366
0.000308126
0.000289726
0.000289018
0.000320196
0.000308481
3.23254e-05
5.24105e-05
7.82105e-05
7.71132e-05
0.000115146
0.000150959
0.000164278
0.000138457
3.76337e-05
3.73008e-05
4.59561e-05
4.92281e-05
5.75792e-05
1.456e-05
0
0
0.000129764
0
0.000123235
0.000133858
6.60563e-05
9.06508e-05
0.000111516
0.000127137
0.000132439
0.00012785
0.000149472
8.8996e-05
0.000167367
0.000130656
0.000130654
0.000167467
0.000163737
0.000183103
0.000196138
0.000238619
0.000204135
0.00023889
0.00018125
0.000193072
0.00013448
0.000140361
0.000142209
0.00014733
0.000150491
9.33399e-05
0.000123312
0.000138547
0.000105407
0.000129768
8.59644e-05
5.01612e-05
6.96205e-05
0.000121985
8.62776e-05
8.68719e-05
7.85173e-05
6.87629e-05
3.27824e-05
5.52902e-05
3.38406e-05
3.13144e-05
4.91992e-05
6.46559e-05
6.69965e-05
3.4516e-05
1.72022e-05
2.91092e-05
4.75443e-05
3.59022e-05
4.54094e-05
6.01472e-05
2.74315e-05
7.74817e-05
2.20306e-05
5.59057e-05
0.000184568
0.000135617
0.000166315
0.000299984
0.000233249
0.000348703
8.66208e-05
0.000266185
0.000204949
0.000234901
0.00010071
0.000222991
5.6744e-05
7.4133e-05
9.97527e-05
6.51495e-05
7.16666e-05
0.000143996
0.000119061
2.64688e-05
2.04215e-05
1.168e-05
4.9858e-05
7.8186e-05
0
0
0
0
8.9147e-05
9.50638e-05
0.000133708
0.000127733
0
0
0
0
0
6.36582e-10
7.45342e-10
3.27813e-08
0
0
0
0
0
0
0
0
0
0
0
2.44528e-09
0
0
0
0
0
0
0
0
2.59892e-07
0
0
0
0
0
0
0
0
0
0
0
0
2.01529e-10
0
0
0
0
6.23741e-10
0
0
0
0
0
0
0
0
0
0
0
0
0
0
0
0
0
0
0
2.26867e-09
0
0
0
0
2.5347e-09
0.000269041
0.000244614
0.000303173
0.000360322
0.000365353
0.000314238
0.000196329
0.00024111
6.05233e-05
0.000242825
0.000185169
0.000134451
0.000167887
0.000348342
0.000124219
8.55515e-05
0.000159021
9.59654e-05
0.000103703
9.03589e-05
8.19954e-05
5.2883e-05
5.81742e-05
8.67569e-05
0.000110483
0
0
0
0
0
0
0
0
0
0
0
0
0
8.06424e-05
3.87523e-05
4.92285e-05
0
0
0
0
0
0
0
0
0
0
1.01835e-05
4.75027e-05
4.25342e-05
6.98724e-05
4.75329e-05
0.000336345
0.000283221
0.000313915
0.000151378
0.000106193
0.000333448
0.000160743
3.15179e-05
0.000115142
0.000204144
2.95391e-05
0.000377373
0
2.79215e-10
0
0
0
0
0
0
0
0
0
0
0
0
0
0
0
0
0
0
0
0
0
0
0
0
0
0
0
0
0
0
0
0
0
0
0
4.67651e-05
7.87595e-05
5.98934e-05
2.15349e-05
9.12126e-05
4.95435e-05
1.84801e-05
2.86781e-05
5.58544e-05
4.78431e-05
2.69189e-05
7.31045e-05
3.07861e-05
6.76657e-06
1.68369e-05
5.78509e-06
2.47544e-05
7.26075e-05
4.59855e-05
8.67098e-05
7.29064e-06
0.000113387
7.12343e-05
5.24107e-05
5.72652e-05
1.25258e-05
2.48463e-07
2.19658e-05
3.14201e-05
1.02426e-05
1.37409e-05
0
2.57163e-05
0
0
0
0
0.000242526
0.000287153
0.000263574
0.000300341
0.000254713
0.000362344
0.000350681
0.000392819
0.000155405
0.000141728
0.00010381
0.000150057
0.000251048
0.000170019
0.000248438
0.000176872
0.000188049
0.000218222
0.000171278
0.000145343
0.000112255
0.000142523
0.000269639
0.000310687
0.000274478
0.00024098
0.00020399
0.000211473
0.000329755
0.000278654
0.000329401
0.000249376
0.000301109
0.000413641
0.00028292
0.000317573
0.000261444
0.000265425
0.000336632
0.000301183
0.000309039
0.00027982
0.00036788
0.000340497
0.000377154
0.00039928
0.000340014
0.000397471
0.000379482
0.000245943
0.000188997
0.000496861
0.000326014
0.000102013
5.48107e-05
0.000195897
0.000189901
0.000137397
0.000155528
0.000166514
0.00021506
4.62352e-05
0.000117845
6.44759e-05
8.78637e-05
0.000178899
0.000171245
0.000149066
0.000190724
0.000200313
0.000178138
0.000246325
0.000204389
0.000249469
0.000252867
0.000225078
0.000256696
0.00025185
0.000238114
0.000277382
0.000297075
0.000297356
0.000295092
0.000289698
0.0001675
0.000177016
0.000222217
0.000354901
0.000355056
0.000347909
2.56647e-05
4.21115e-05
3.64423e-05
2.93867e-05
0.000123833
4.33373e-05
1.65947e-05
5.27179e-05
3.89431e-05
3.56324e-07
1.91341e-05
7.24956e-06
0
0
0
0
3.22524e-06
8.86218e-06
7.675e-05
2.85802e-05
2.72163e-05
0.000100004
6.70429e-05
0.000112802
0.000153482
0.000103481
0.000104579
0.000102509
0.000134145
0.000143341
0.000178508
0.00015999
0.000218822
0.000189999
0.000190086
0.000225503
0.000197757
0.000189968
0.000148479
0.000205674
0.000107629
0.00013251
8.63688e-05
0.000100726
0.000104092
0.000136772
0.000122325
0.000131142
0.00013744
9.52079e-05
0.000116385
8.84638e-05
0.000153937
8.4717e-05
0.000135345
9.58184e-05
5.76562e-05
0.000102346
5.14653e-05
0.000236613
7.42901e-05
0.000112645
7.88263e-05
7.36454e-05
5.97366e-05
2.21925e-05
5.11188e-05
6.79578e-06
3.12041e-05
8.77072e-05
3.15525e-05
5.21456e-05
0.000151123
9.15156e-05
0.000204606
0.000137261
0.000244217
0.000275448
0.00042716
0.000305562
0.000523677
0.000400972
0
0
0
1.7959e-06
0.000227635
7.43734e-05
0.000141852
6.50027e-05
0.000103911
0
0
0
0
0
0
0
2.28441e-05
0
0
0
0
0
0
0
0
1.71803e-11
0
0
1.83522e-09
4.97928e-10
0
0
0
0
0
0
0
0
0
0
0
0
3.01012e-07
0
0
0
0
0
0
0
0
8.99804e-07
0
0
0
0
1.27332e-09
0
0
0
0
0
0
0
6.58756e-10
5.58104e-10
0
0
3.31996e-10
3.1164e-10
0
0
0
0
3.04768e-09
0
4.05026e-09
0
0
0
0
0
0
0
0
0
0
0
0
0
0
0
0
0
1.40943e-09
0
0
0
0
0
0
0
0
0.000221518
0.000292317
0.000388289
0.000324131
0.000337996
0.000389278
0.000338972
0.000344637
0.000414373
0.000307736
0.000199641
0.000138963
0.000215885
0.000237503
0.000274613
0.00032367
0.000193492
0.000152486
7.16247e-05
6.0121e-05
9.42291e-05
8.66028e-05
5.2605e-05
6.20868e-05
2.3855e-05
2.80066e-05
5.80492e-05
0
0
0
0
0
0
0
5.72326e-05
4.55685e-05
1.61901e-05
0
0
0
0
6.34639e-05
0
0
0
0
1.55853e-11
0
0
0
0
0
0.000405902
9.9249e-05
0.000257943
5.29369e-05
2.28126e-05
6.67754e-05
0.0001024
0.000271839
0.000422431
6.99753e-05
0.000141612
0.000270519
0.000161803
8.93582e-05
0.000148614
0.000295909
0
0
2.63643e-10
0
0
0
0
1.03286e-10
0
0
0
0
0
0
0
2.00255e-09
0
8.97565e-10
1.51922e-09
0
0
0
0
0
0
0
0
0
0
0
3.10504e-09
0
0
0
0
0
0
0
0
0
0
0
0
0
7.58599e-10
5.96407e-05
5.14519e-05
3.78617e-05
2.02153e-05
6.99546e-05
1.65118e-05
2.9552e-05
2.58686e-05
3.70281e-05
8.33373e-06
1.52525e-05
1.45781e-05
7.77431e-06
1.93703e-05
3.57909e-05
4.80565e-07
1.87751e-06
0
0
6.25177e-05
2.80043e-05
2.28743e-05
4.32278e-05
6.1068e-05
2.84025e-05
5.40498e-05
4.64405e-05
0
2.53911e-08
2.75379e-06
9.17446e-06
0
0
0
0
0
0
0
2.40556e-08
0.000240536
0.000266952
0.000331998
0.000189851
0.0001589
0.000282144
0.000416611
0.000286718
0.000670619
0.000282743
0.00031549
0.000349927
0.000342818
0.000213346
0.00013266
0.000121206
0.000168724
0.000226287
0.000193253
0.000249528
0.000233366
0.000250779
0.000163279
0.000237347
0.000169179
0.000196496
0.000245087
0.000219278
0.000321093
0.000402994
0.000285653
0.00028249
0.000229414
0.000241955
0.000359002
0.000339167
0.000345715
0.000244739
0.000283033
0.000445766
0.0002049
0.000298896
0.000193859
0.000218297
0.000234406
0.000182711
0.000312746
0.000210451
0.000310112
0.000426352
0.00042375
0.000391521
0.000217313
0.000211788
0.000433608
0.000275565
0.000281066
2.2609e-05
0.000112643
0.000125299
0.000173118
0.000251234
0.000232372
0.000130674
0.000240163
0.000197132
0.00015119
4.62374e-05
7.97642e-05
7.86436e-05
0.000122342
0.000368349
0.000207686
0.000198705
0.000187815
0.000145959
0.000116335
0.000216496
0.000248679
0.000245453
0.000225327
0.000235261
0.000232443
0.000259195
0.00026943
0.000248743
0.000259253
0.000279632
0.000277001
0.000335006
0.000291402
0.000210055
0.000223231
0.000305353
0.000315485
0
3.61156e-05
0
2.51954e-06
0
0
0
0
0
0
0
0
0
0
0
0
1.59185e-05
0
7.86673e-06
4.3338e-05
3.64517e-05
6.77175e-05
9.2166e-05
9.37332e-05
9.32824e-05
0.000132178
0.00010699
0.000112534
0.000123992
0.000151062
0.000210726
0.000153512
0.000185662
0.000171164
0.000149558
0.000150126
0.000147709
0.000131208
0.00020989
0.000170594
0.000136132
0.000150949
0.000110345
0.000126546
0.000142902
0.000159389
0.00016282
0.000161169
0.000171131
0.000124488
0.00013199
0.000106681
0.000152543
0.000122731
0.000124917
9.65873e-05
7.1568e-05
0.00016757
0.000170583
0.000132322
0.000128575
8.71834e-05
6.81786e-05
7.28064e-05
3.42508e-05
0.000101175
6.8615e-05
0.000110787
0.000153195
5.26989e-05
7.30451e-05
0.000150448
9.72313e-05
0.000144003
0.000263416
0.000220192
0.000275641
0.000218087
0.00074153
0
0
1.2874e-07
3.85894e-11
0
0
0
9.01884e-06
0
0
0
9.84009e-08
3.41412e-08
5.35009e-08
3.18449e-08
6.17481e-08
4.30724e-08
0
6.70928e-08
2.53384e-07
0
0
0
1.50394e-09
0
1.60014e-09
7.57029e-10
0
0
0
0
0
0
0
0
5.46067e-08
0
0
0
0
0
0
3.08345e-07
0
0
0
0
0
0
0
0
0
0
0
0
0
0
0
0
0
0
0
0
0
0
0
0
0
0
0
0
0
0
0
0
0
0
0
0
0
0
0
0
0
0
0
0
0
0
0
0
0
0
0
0
0
0
0
0
0
0
0
0
0
0
0
0
0
0
0
0
0
2.15192e-11
0
0
0
0
0.000401211
0.000337513
0.00035939
0.000420479
0.00037783
0.000378421
0.000377373
0.000296208
0.00033154
0.000315016
0.000389453
0.000433125
0.000380479
0.000294318
0.000274635
0.000217659
0.000191464
0.000180016
7.71586e-05
1.79795e-05
0.000108831
0.000147057
9.93226e-06
0.000106854
7.26791e-06
9.47847e-05
5.71832e-05
7.58899e-06
5.19297e-05
0
0
0
0
4.12194e-05
6.28024e-05
1.22837e-05
0
0
2.40812e-05
6.02858e-05
0
0
0
0
0
0
2.67808e-09
1.68301e-09
0
1.53261e-09
0
0
0
0.000430501
0.000153321
7.34622e-05
0.000112136
0.000353043
3.98341e-05
9.81452e-05
0.000114684
5.97018e-05
0.000191
0.000246499
0.000140304
3.96479e-05
0.000154706
2.5178e-05
8.50584e-05
0
8.13895e-10
0
0
0
0
0
2.0623e-11
0
0
6.37941e-11
0
0
0
1.82121e-10
0
0
0
0
0
0
0
0
0
0
0
0
0
0
0
0
0
0
0
0
0
6.90123e-10
0
2.65219e-09
0
0
0
0
0
0
0
0
0
0
0
0
0
0
0
0
0
0
4.45306e-05
3.53993e-05
3.27736e-06
1.81618e-05
3.53951e-05
2.3226e-05
2.48307e-05
1.27954e-05
1.16662e-05
2.84617e-05
3.88722e-05
1.43992e-05
7.506e-06
0
0
1.14045e-05
1.50237e-05
0
0
0
0
5.27349e-05
2.58781e-05
3.82496e-05
3.46413e-05
8.69396e-06
3.21365e-05
2.90998e-05
4.72472e-05
0
0
0
0
7.32396e-09
4.88427e-09
0
0
0
0
0
0
0.000476903
0.000289473
0.00018613
0.00045791
0.000987112
0.000503205
0.000137156
0.000123276
0.000384724
0.000498098
0.000357405
0.000215411
0.000327712
0.00017778
0.000205207
0.000311529
0.000277516
0.000328433
0.000279693
0.000480287
0.000359694
0.000309063
0.000207956
0.000122592
0.000226013
0.000290423
0.000208043
0.000376346
0.000431988
0.000291079
0.000320403
0.000300327
0.00026778
0.000415232
0.000373851
0.000325282
0.000187623
0.000458415
0.000313457
0.000106216
0.000130132
0.000166044
8.66244e-05
5.66631e-05
0.000178125
0.000265075
0.000188572
0.000289972
0.000295728
0.000655348
0.000483047
0.000739412
0.00048068
0.000247561
0.000366568
0.000620358
0.000341783
0.00010617
0.000144836
0.000293081
0.000178524
0.00014589
0.000288809
0.000249092
0.000283256
7.47874e-05
0.000164355
9.67473e-05
8.13955e-05
3.61011e-05
5.40856e-05
4.73327e-05
0.000104273
0.000286378
0.000324461
0.000210653
0.000156295
0.000325176
0.000301495
0.000247
0.000195043
0.000230047
0.000253071
0.000240451
0.000223758
0.000245169
0.000259588
0.00027108
0.000239492
0.000278792
0.000238958
0.000265385
0.000241601
0.00029848
0.00025773
0.000245803
0.000273223
0.000277266
0
0
0
0
0
1.14645e-09
2.52156e-09
0
0
0
0
3.58806e-09
1.1189e-09
0
0
0
0
0
2.20258e-05
3.89439e-05
0
3.92808e-05
4.63311e-05
9.08116e-05
6.01992e-05
0.000108034
0.000120055
9.07737e-05
0.000188854
0.000134509
0.00012343
0.000215236
0.000149818
0.000145272
0.000171276
0.000129404
0.000128805
0.000155229
0.000177964
0.000183137
0.000158393
0.000166969
0.000177365
0.000154767
0.00017306
0.000176351
0.000165321
0.000189762
0.000162064
0.000159081
0.000126795
0.000124616
0.00013705
0.000137765
0.000162374
0.000106163
0.000142921
0.000149026
0.00013855
0.000129975
9.97631e-05
0.000126151
9.36472e-05
9.6846e-05
0.000185259
6.5601e-05
0.000156504
9.84229e-05
0.000120539
0.000194089
9.63635e-05
0.000126084
0.000142108
0.000208691
6.10727e-05
0.00021321
0.000404587
0.000318419
0
0
0
0
0
0
0
0
0
8.71855e-08
0
0
0
5.80481e-08
4.15931e-08
3.20645e-08
7.3189e-08
6.57031e-08
5.28974e-08
0
0
0
0
0
0
0
0
0
0
0
0
0
0
0
0
6.3874e-08
0
0
0
7.21434e-07
0
0
0
0
0
0
0
0
0
0
0
0
0
0
0
0
0
0
4.3226e-08
0
0
0
0
0
7.36766e-10
7.24498e-10
1.43199e-09
0
0
0
0
0
0
0
0
0
0
0
0
0
0
0
0
0
0
0
0
0
0
0
0
0
0
0
0
0
0
0
0
0
0
0
0
0
0
0
0
0
2.84799e-09
0
6.89465e-10
0
2.58188e-09
0
0
0
0.000336308
0.000295056
0.000251801
0.000358923
0.000359919
0.000372669
0.000387792
0.000321734
0.000356258
0.000401452
0.000434823
0.00042347
0.000379523
0.000434423
0.000443655
0.000365881
0.000319786
0.000357243
0.000282286
0.000127705
0.000228171
0.000106278
5.89305e-05
0.000112016
2.02269e-06
0.000123695
1.30105e-05
9.1378e-05
0.000103932
1.71705e-05
3.46778e-05
8.40508e-05
8.2712e-05
0
0
3.62564e-05
5.22685e-05
5.9459e-05
0
0
5.60974e-05
3.21739e-05
0
0
0
4.45979e-06
0
0
0
0
0
0
0
0
0
0
0
8.08656e-05
0.000196597
0.00010067
0.000234766
6.11694e-05
5.31108e-05
7.65902e-05
6.92212e-05
0.000125275
0.000120695
9.19979e-05
2.19809e-05
0.00015078
0
0
0
0
0
0
5.11396e-10
4.74573e-10
0
0
0
0
0
0
0
0
0
3.9883e-09
0
0
0
0
0
0
0
8.32759e-10
0
0
3.17793e-09
0
0
0
0
0
0
0
0
0
0
0
0
0
0
0
0
0
0
0
0
0
0
2.14973e-09
0
0
0
0
0
0
0
0
0
0
0
4.34813e-05
3.3306e-05
1.02948e-05
1.90427e-05
2.24927e-05
9.486e-06
2.32758e-05
1.95842e-05
1.22946e-05
4.44829e-05
4.49167e-05
0
0
0
0
0
0
9.09698e-06
0
0
0
0
0
2.52379e-05
5.39834e-05
3.83569e-07
0
7.41957e-06
5.71914e-05
9.38559e-05
7.56983e-05
0
0
0
1.18506e-09
0
0
0
0
0
0
0
0
0.000255639
0.000364597
0.000432075
0.000480487
0.00120951
0.000546145
0.00037345
0.000352792
0.000333665
0.00030242
0.00034112
0.00026936
0.000300148
0.000351982
0.000220799
0.00030259
0.000253859
0.000268465
0.000180177
0.00024647
0.00041937
0.000172416
0.000394504
0.000300254
0.00036891
0.000281598
0.000238327
0.000111863
0.000469048
0.000482853
0.000349742
0.000387124
0.000337979
0.000372749
0.000432766
0.00049202
0.000193801
0.000313664
0.000387251
0.000491506
3.96912e-05
1.44331e-05
0.000160746
0.000164533
0.0001271
9.01103e-05
0.000238619
0.000370058
0.000390948
0.000240294
0.000130432
0.000439858
0.000193866
0.000375969
0.000318799
0.000377156
0.000505083
0.00035486
0.000154793
8.85725e-05
0.000341741
0.000216361
0.000142291
0.000292316
0.000298271
0.000338244
9.87397e-05
7.68687e-05
0.00015188
8.46462e-05
8.17813e-05
8.1222e-05
0.000300682
0.000193063
0.000282854
0.000248381
0.0002928
0.000261396
0.000277109
0.000232834
0.00025853
0.000241156
0.000219336
0.000244871
0.000247116
0.000219655
0.000233105
0.000212964
0.000256167
0.000185959
0.000240664
0.000185878
0.000195344
0.00026308
0.000218459
0.000167088
0.000202292
0
0
0
0
0
0
0
0
0
3.91405e-09
0
0
0
0
0
2.07431e-11
2.39176e-11
0
0
1.05e-05
3.99718e-06
5.8241e-05
9.06015e-05