/*--------------------------------*- C++ -*----------------------------------*\
  =========                 |
  \\      /  F ield         | OpenFOAM: The Open Source CFD Toolbox
   \\    /   O peration     | Website:  https://openfoam.org
    \\  /    A nd           | Version:  8
     \\/     M anipulation  |
\*---------------------------------------------------------------------------*/
FoamFile
{
    version     2.0;
    format      ascii;
    class       volScalarField;
    location    "7440";
    object      H;
}
// * * * * * * * * * * * * * * * * * * * * * * * * * * * * * * * * * * * * * //

dimensions      [0 1 0 0 0 0 0];

internalField   nonuniform List<scalar> 
526318
(
0.701813
0.657373
0.730628
0.646229
0.718145
0.669054
0.685458
0.604335
0.66475
0.541788
0.524152
0.644333
0.587393
0.627825
0.589267
0.614458
0.586521
0.787951
0.696025
0.741049
0.737089
0.688631
0.452295
0.695175
0.575078
0.443167
0.712674
0.718498
0.71427
0.730832
0.756018
0.803697
0.786249
0.664493
0.66802
0.633299
0.643126
0.729141
0.664646
0.60802
0.669336
0.64195
0.300191
0.354778
0.264043
0.307894
0.290378
0.406956
0.592223
0.488105
0.57409
0.575702
0.524664
0.488308
0.00068492
0.23173
0.225017
0.0238264
0.740169
0.758707
0.777346
0.731786
0.668772
0.804545
0.797695
0.755829
0.742427
0.743325
0.645906
0.639805
0.752617
0.534362
0.589477
0.477397
0.436024
0.423726
0.525308
0.517923
0.434835
0.474729
0.55243
0.559248
0.511881
0.461348
0.493311
0.560657
0.557415
0.537165
0.486957
0.562122
0.462699
0.416202
0.404289
0.338647
0.340207
0.339889
0.337261
0.334615
0.331543
0.336375
7.97638e-05
2.15653e-06
0.000754447
5.51134e-08
0.000512111
0.000148343
0.243592
0.0541497
0.372433
0.329839
0.376721
0.492369
0.720191
0.605322
0.715557
0.728429
0.791455
0.767104
0.810569
0.329462
0.329388
0.333947
0.334428
0.292006
0.329455
0.243426
0.28509
0.194102
0.243491
0.193853
0.193032
0.186346
0.157236
0.15143
0.177649
0.11809
0.174772
0.121377
0.142694
0.0890426
0.0944507
0.114115
0.143314
0.131145
0.0899116
0.0889673
0.102214
0.0926926
0.0871643
0.0921372
0.10703
0.0938647
0.0971785
0.0967507
0.0940336
0.0634695
0.0985882
0.0956178
0.0673321
0.018929
0.0954243
0.0460423
0.105007
0.600326
0.691939
0.636545
0.623498
0.425435
0.49423
0.422912
0.427149
0.423796
0.425852
0.449001
0.423618
0.360435
0.332081
0.298787
0.235096
0.293062
0.341587
0.33648
0.339925
0.226784
0.279549
0.165739
0.174929
0.182753
0.176874
0.176581
0.180819
0.169853
0.169241
0.16586
0.157643
0.139204
0.159223
0.152823
0.123854
0.104104
0.132015
0.118549
0.11085
0.128116
0.116388
0.121368
0.0836926
0.100506
0.132266
0.130861
0.583283
0.59053
0.623395
0.589184
0.58832
0.579723
0.577639
0.459615
0.497455
0.242029
0.225801
0.225163
0.344422
0.481867
0.358175
0.395287
0.396304
0.340179
0.32222
0.0010044
1.50274e-16
5.04898e-08
0.168525
0.00027704
9.76159e-09
0.000995694
0.000255125
0.000396609
0.000963311
0.797162
0.778103
0.825054
0.818825
0.784961
0.774808
0.683505
0.773703
0.615774
0.559075
0.564984
0.558438
0.56273
0.559165
0.543977
0.55119
0.463586
0.535029
0.345245
0.402965
0.327595
0.346428
0.00100536
4.55059e-11
0.000154997
0.00100202
0.000103589
0.000987509
3.35514e-08
0.000435696
0.345436
0.154889
0.390535
0.39228
0.506581
0.604255
0.72445
0.733052
0.764401
0.741439
0.809683
0.839534
0.311567
0.309429
0.270942
0.242095
0.141571
0.173874
0.102773
0.109513
0.102091
0.0958313
0.0868187
0.0896937
0.0181371
0.0416941
0.0729529
0.113706
0.16384
0.135172
0.0956527
0.0927087
0.0320823
0.0193415
0.0726108
0.12673
0.0494715
0.0854803
0.0847574
0.0551183
0.0493799
0.0194802
0.0169127
0.000797409
0.000752881
0.000908534
0.00053714
0.0953158
0.130193
0.0912677
0.135585
0.492303
0.454863
0.352536
0.440891
0.363901
0.414541
0.42525
0.415049
0.425587
0.426041
0.339628
0.247432
0.183592
0.161463
0.24265
0.176989
0.166563
0.277147
0.162008
0.218818
0.155506
0.158163
0.167411
0.157204
0.171122
0.164593
0.16209
0.168079
0.16749
0.162791
0.174572
0.169713
0.181395
0.182327
0.179178
0.16223
0.174328
0.158325
0.132767
0.129606
0.155785
0.184859
0.175529
0.158792
0.138311
0.160347
0.202381
0.202419
0.221813
0.176495
0.207896
0.228426
0.271584
0.215
0.222988
0.247781
0.279579
0.405839
0.486463
0.397589
0.440215
0.513597
0.567253
0.48522
0.350672
0.467226
0.356767
0.378173
0.112408
0.0599159
0.0911342
0.0783907
0.193725
0.314385
0.247971
0.31719
0.315839
0.335959
0.314695
2.95166e-09
0.000979078
0.000497943
5.69831e-06
0.000746898
0.000760287
0.000599399
0.00100998
0.000160582
0.00100962
0.000664765
0.00100889
0.000730728
0.000955715
0.000582482
0.000952703
0.820732
0.812394
0.846216
0.837396
0.814726
0.783108
0.715071
0.625642
0.559947
0.569115
0.553403
0.550676
0.530167
0.523585
0.50875
0.50779
0.454986
0.5016
0.429932
0.365716
0.311232
0.270344
0.00096198
0.00112186
0.00112182
0.000663073
0.000467644
0.000731205
0.000603034
0.000769233
0.00112144
0.00112188
0.000917904
0.00100984
0.000648556
0.00100942
0.001221
0.00017911
0.000293267
0.000487392
0.000977135
0.00096135
7.31626e-08
0.000978536
0.000793614
1.85613e-05
0.0472553
5.10405e-28
0.257408
0.415516
0.428107
0.518317
0.739966
0.635378
0.750116
0.755261
0.766531
0.797597
0.827927
0.846664
0.232341
0.229096
0.185303
0.208756
0.149876
0.111906
0.102129
0.105283
0.0967589
0.106483
0.0563452
0.0479908
0.000754404
0.00933011
0.0693543
0.0385374
0.00899522
0.0585874
0.0513476
0.0752421
0.000563312
0.000877153
0.000809679
0.00456085
0.00737983
0.000878984
0.000663935
0.000874718
0.000899807
0.000387281
0.000872478
0.255242
0.219239
0.225963
0.224662
0.243489
0.352543
0.313765
0.288758
0.176531
0.214379
0.204873
0.207172
0.0949068
0.0437028
0.220153
0.338819
0.219544
0.228592
0.204782
0.290061
0.266823
0.339064
0.376723
0.298889
0.278638
0.314196
0.187621
0.163392
0.15908
0.169416
0.0798802
0.127665
0.05407
0.00769049
0.00100047
0.110033
0.107266
0.15908
0.159035
0.15655
0.158873
0.15314
0.161483
0.15542
0.169081
0.162221
0.176178
0.177643
0.179562
0.176345
0.203389
0.189521
0.218495
0.215777
0.164447
0.148984
0.212722
0.201181
0.184518
0.203597
0.188834
0.174541
0.228184
0.209704
0.307578
0.308685
0.264422
0.307069
0.325551
0.281846
0.375881
0.350543
0.414338
0.436086
0.46163
0.373596
0.380869
0.38078
0.344449
0.313459
0.289451
0.379997
0.229288
0.207979
0.259349
0.282351
0.000732908
0.00733824
0.0932563
0.211303
0.239894
0.277735
0.183756
0.150655
0.106376
0.0528699
0.000965631
0.000310861
1.42674e-06
1.84795e-07
0.000778321
0.00100068
0.000993891
0.000234006
0.00100979
0.000545241
0.00024476
0.000470015
0.000926911
0.000208943
0.000889372
0.000986846
0.000766556
0.000551352
0.000138864
0.000388285
0.00097475
0.00101
0.000138979
0.00100015
0.000979801
0.000354496
0.0011078
0.000976345
0.00108459
0.000940885
0.00110802
0.00110793
0.000851328
0.000999494
0.0009727
0.000201819
9.59135e-05
0.000989075
0.000892979
0.0009482
0.00100959
0.000881287
0.00100851
0.00100824
2.67287e-05
0.000959524
0.816838
0.825432
0.845415
0.836504
0.814551
0.739396
0.561411
0.648159
0.531139
0.529285
0.512452
0.506488
0.500183
0.503091
0.498989
0.497357
0.439965
0.408263
0.31181
0.35515
0.210186
0.251664
0.000923545
0.000624444
0.000948563
0.000967574
0.000969466
0.000982262
0.000986514
0.000879074
0.000998153
0.000693577
0.000677989
0.000965569
0.000971308
0.000759356
0.000380116
0.000991326
0.000690401
0.00100737
0.000803925
0.000839513
0.000369052
0.000975289
0.000889611
0.000439439
0.000917861
0.00068906
0.00101
0.000641909
8.92151e-06
6.82991e-05
0.000555011
0.000719123
0.000866056
0.000925694
0.230496
0.0567784
0.439551
0.396678
0.461559
0.569903
0.67156
0.753804
0.7672
0.75148
0.796225
0.82727
0.811643
0.809103
0.00118572
0.000887153
0.000886173
0.00030822
0.000998548
0.000922867
0.00081396
0.000934306
0.000890554
0.000725685
0.000975785
0.00092383
0.000794854
2.99799e-07
0.000836048
0.00101
0.000170373
0.2116
0.208721
0.210032
0.174328
0.0966313
0.131668
0.0558908
0.0475785
0.0128653
0.00683684
0.000818369
0.000681356
0.000936874
0.000408719
0.000615533
0.000705035
0.000907298
0.0277339
0.0085591
0.00929194
0.000712611
0.000921773
0.000703425
0.000545433
0.000771027
0.000818397
0.000964289
0.000555971
0.000325844
0.000996791
0.000920408
0.000390313
0.450204
0.417256
0.456073
0.466446
0.41414
0.368158
0.541374
0.566822
0.632886
0.637346
0.186716
0.226918
0.271206
0.364122
0.176811
0.12042
0.159592
0.161578
0.00275933
0.0557737
0.103032
6.34175e-05
0.206264
0.206427
0.205731
0.205906
0.231288
0.202199
0.216698
0.234049
0.113551
0.111923
0.00422124
0.0951152
0.0890837
0.040241
0.00600243
0.00941211
5.67426e-67
1.09481e-18
0.000972569
0.041961
0.104531
0.0384499
0.103938
0.156987
0.156205
0.154236
0.158964
0.16177
0.18055
0.175014
0.188271
0.187338
0.208739
0.203214
0.220083
0.219234
0.224503
0.224294
0.236135
0.22849
0.273852
0.241568
0.207799
0.204838
0.275665
0.238935
0.248139
0.289169
0.33551
0.336215
0.334484
0.325835
0.352048
0.411777
0.473529
0.490916
0.507278
0.479427
0.625359
0.563971
0.688752
0.724756
0.719433
0.758939
0.812228
0.679751
0.765566
0.785574
0.866409
0.915151
0.935623
0.959298
0.98814
0.929557
0.984214
0.941999
1.02472
1.02508
1.07259
1.04118
1.10406
1.13516
1.12417
1.07504
1.13917
1.16276
1.1292
1.1284
1.18997
1.16983
1.19963
1.14146
1.14219
1.20242
1.17023
1.12583
1.12839
1.15709
1.18725
0.177391
0.143922
0.318333
0.309568
0.281762
0.280536
0.277062
0.0408123
0.174809
0.000655239
0.000486092
0.00735722
0.000255089
0.000869581
0.000553233
0.000412365
0.111934
0.0133898
0.0132685
0.000769693
0.000915586
0.000586318
0.000918832
0.000348275
0.00101
5.27544e-07
5.8384e-05
9.70941e-06
5.35186e-05
0.00101
0.000966006
0.000995857
0.000626224
1.71554e-05
0.00150638
0.000842141
0.000928041
0.000844807
0.000691483
0.000300472
0.00069126
0.000943677
0.000831092
0.00127029
0.000540937
0.00012748
0.000146108
0.000949
0.000431299
9.03027e-06
1.61879e-05
0.000990101
0.000932549
0.00100929
0.000950701
0.000911134
0.000410555
0.000800999
0.00106733
0.00114823
0.000907953
0.00099975
0.00106749
0.000989455
0.000968493
0.00101
0.00057983
0.000982371
0.0010438
0.00100714
0.000975694
0.00104367
0.000987089
0.00101015
0.00101032
0.000467339
0.000585516
0.00101
0.000773625
0.000908767
0.000377029
0.000991017
0.000960908
0.00100983
0.00100977
0.000136678
0.000996138
0.000950381
0.000921886
0.000915695
0.000919934
0.000709116
0.00112195
0.000708105
0.000968314
0.802248
0.793918
0.764816
0.762421
0.678756
0.750089
0.575655
0.511067
0.499782
0.504963
0.501426
0.499064
0.438667
0.44364
0.291952
0.253183
0.207625
0.382664
0.38297
0.33154
0.332815
0.331156
0.000647301
0.000447576
0.0010452
0.00104518
0.000962471
0.000414864
0.000711517
0.000410365
0.0010452
0.000973226
0.000161511
0.00100893
0.000972717
0.000941946
0.000297472
0.000985833
0.000726155
0.00091818
0.00021426
0.00071546
0.00050577
0.000951565
0.00127719
0.0012774
3.81621e-05
6.87894e-06
0.000169957
0.00101
0.0625378
3.88408e-18
0.228772
0.392932
0.424561
0.455254
0.533357
0.654245
0.715724
0.692307
0.737343
0.673281
0.724344
0.764352
0.718286
0.716429
0.00122104
0.000946752
0.00101
0.000849207
0.000997174
0.00119836
0.000757832
0.000799479
0.00119837
0.000952606
0.000973001
0.00100941
2.4351e-05
1.14836e-05
0.000933128
0.000373012
4.41505e-07
0.000656439
0.00098774
0.000236686
0.000248866
0.00096452
0.00096459
0.000795867
0.00121154
0.00100974
0.183175
0.184712
0.102311
0.11842
0.000811904
0.020363
0.000791037
0.000923226
0.000681725
0.00153135
0.000275067
0.000751573
0.000686785
0.000630537
0.000127688
0.000382438
0.0017703
0.000959035
0.00214593
0.00198621
0.000535684
0.0002975
0.000363684
0.0008342
0.00030944
0.000950196
0.000717662
0.000602104
0.000980152
0.000764758
0.00123424
0.000728334
0.671773
0.670823
0.499884
0.412434
0.399673
0.385639
0.673835
0.580728
0.826608
0.904341
0.79813
0.722911
0.917081
0.896289
0.962108
1.0118
1.04215
1.04207
1.07167
1.04446
1.10086
1.12596
1.12173
1.12233
1.13782
1.12584
1.12435
1.16888
1.11675
1.11039
0.232013
0.164625
0.3037
0.382551
0.157621
0.106873
0.163254
0.162668
0.000822488
0.0424994
0.000415576
0.0426981
0.000718305
0.203729
0.146598
0.205025
0.197165
0.203313
0.096035
0.00376755
0.00098387
4.698e-05
3.52026e-06
0.000983476
2.97713e-310
8.94496e-29
1.81001e-06
0.000998818
0.000727308
0.000810978
3.63154e-05
0.000928468
0.0544081
8.51051e-05
0.102545
0.0506574
0.0923599
0.14947
0.185584
0.160293
0.193889
0.195106
0.202896
0.196995
0.228893
0.239048
0.240755
0.259874
0.263061
0.256216
0.296373
0.303897
0.294078
0.293113
0.294
0.290067
0.308914
0.31728
0.368768
0.352246
0.330556
0.361123
0.351152
0.389521
0.423562
0.48448
0.514103
0.519964
0.528378
0.594119
0.670742
0.749009
0.761944
0.888569
0.762261
0.816721
0.963832
0.985272
0.987823
1.02393
1.07624
1.12397
1.13683
1.13832
1.16554
1.19031
1.21666
1.21543
1.21509
1.21578
1.21691
1.19941
1.13598
1.19967
1.16881
1.1239
1.12131
1.1569
1.1872
1.1985
1.12466
1.18836
1.14301
0.000454315
0.000899657
0.0329214
0.10753
0.00130144
0.0677332
0.19654
0.138797
0.166323
0.00126903
0.000899686
1.93585e-06
0.000755758
0.00219749
5.9362e-06
8.27854e-05
1.53247e-05
0.00084539
0.000978156
0.00132467
0.00132467
0.000284872
0.000304743
0.000184832
0.000999876
0.000871197
0.000795729
0.000978231
0.000894886
0.00133506
0.00133552
0.00086849
0.000172666
0.000614156
0.00150611
0.000981197
0.000795324
0.000478021
0.000315336
0.00054982
0.00101
0.000826402
0.00126999
0.000928609
0.00101
0.000647827
0.000660221
0.000998234
0.000701989
0.000865625
0.000874495
0.00105247
0.000948808
0.000796769
0.000751098
0.000990039
8.20965e-05
0.00099613
0.000976554
0.000151024
0.000650036
0.000544652
0.000936558
0.000816347
0.000972523
0.000845968
0.00104499
0.000978339
0.000943996
0.000974885
0.00092222
0.000218021
0.0012158
0.000926373
0.00102429
0.000765233
0.00100962
0.000641972
0.000367709
0.000916152
0.000960434
0.000960256
0.000892128
0.000614732
0.000479733
0.712794
0.712759
0.695662
0.701317
0.627923
0.691253
0.503199
0.56681
0.46382
0.459801
0.405872
0.388493
0.332567
0.331293
0.246421
0.142736
0.12048
0.290172
0.333946
0.332547
0.332243
0.331734
0.0010453
0.000914491
0.0010453
0.00042194
0.000973634
0.000973647
0.00094649
0.000972052
0.00100548
0.000830393
0.000135327
0.000443538
0.00093376
0.000997208
0.00060297
0.00100999
0.00098232
3.53596e-05
0.000985985
0.000873381
0.000276721
0.000579939
0.000655599
0.00101
0.000321117
3.32274e-05
0.00016739
0.000967041
0.1265
4.57412e-19
0.262664
0.397679
0.37126
0.483346
0.651616
0.550348
0.628515
0.625874
0.621891
0.648259
0.706407
0.704605
0.708964
0.680102
0.000769413
0.000922585
0.000573493
0.000958878
0.000712787
0.000933944
0.000627141
0.000409723
0.000816479
0.000879841
0.000957505
0.00102922
0.000973154
3.93945e-06
0.000915771
0.000873917
0.00096514
0.000987798
0.000798983
0.00100999
0.000468733
0.000740485
0.00123145
0.000901385
0.00101
0.000860782
0.000668131
0.000489708
0.000136748
3.26042e-05
0.00098545
0.0595637
0.0600295
0.0220299
0.00183651
0.000273559
0.000592235
0.000956993
0.00043214
0.102477
0.0446466
0.0225084
0.000187059
0.0009323
0.000408908
0.00100989
0.00132692
0.00132697
0.000250763
0.000583215
0.00053862
0.000807948
0.000493609
0.000801456
0.000830286
0.000589324
0.000349619
0.000336647
0.000587295
0.00100971
1.30661e-05
0.00052455
0.000737284
0.000689738
0.000594218
0.000809643
1.24716
1.25317
1.28443
1.25744
1.29927
1.28901
1.31011
1.30317
1.36272
1.34704
1.31111
1.36184
1.32466
1.38334
1.21685
1.1648
1.18665
1.23547
1.21825
1.18643
1.18975
1.24354
1.2462
1.22476
1.2035
1.2555
1.23882
1.24373
1.27062
1.12386
1.12311
1.11934
1.12008
1.13848
1.15914
0.715614
0.659554
0.558816
0.458238
0.376111
0.446674
0.65375
0.633327
0.874845
0.89958
0.783739
0.863903
0.904753
0.954134
1.0014
1.04229
1.04038
1.04093
1.03839
1.06867
1.07898
1.10697
1.09397
1.09617
1.10236
1.11295
1.0886
1.08953
0.280959
0.215088
0.151833
0.146358
0.209305
0.378113
0.356966
0.0843474
0.140091
0.01412
0.000844772
1.23137
1.2525
1.26949
1.27729
1.28126
1.29088
1.29565
1.32168
1.30522
1.32692
1.32222
1.37354
1.39451
1.41615
1.41583
1.41918
1.43209
1.45711
0.000693179
0.000610691
0.00142209
0.130507
0.016597
0.186802
0.0964634
0.0107607
0.00124524
1.34877e-05
0.00124535
0.00124523
0.000150505
0.000226513
0.00065601
0.000634227
1.56935e-49
6.10001e-120
0.000383931
0.000793005
0.000395231
0.00108485
0.00193411
0.00143948
0.0521297
0.0133675
0.137077
0.0870747
0.1768
0.134832
0.166404
0.195555
0.220387
0.249406
0.260656
0.271149
0.271937
0.267682
0.321887
0.311916
0.303892
0.303293
0.352369
0.329386
0.398728
0.363596
0.339987
0.384765
0.425436
0.414881
0.442002
0.477059
0.476118
0.420612
0.5314
0.561517
0.533491
0.522559
0.603092
0.689881
0.761138
0.831137
0.779589
0.795863
0.923085
0.980828
1.02552
1.00568
1.07434
1.10323
1.14292
1.16271
1.15455
1.17055
1.22419
1.20811
1.21692
1.22781
1.21896
1.21618
1.21851
1.21826
1.22017
1.21902
1.22036
0.000975612
1.85836e-05
0.00196572
0.00016364
0.000308718
8.72716e-06
0.000598279
0.00697652
0.000797863
0.000848709
0.00082308
0.000992538
8.58466e-05
0.000483636
0.00142202
0.000996947
0.000243313
9.84474e-05
4.28478e-05
0.00132444
0.000614131
0.00038011
0.000920689
0.0001026
0.000735431
0.000843797
0.000728231
0.000792481
0.00112696
0.000999934
0.00133486
0.0008915
0.00104685
0.000975596
0.000776109
0.00096702
0.000896738
0.000998449
0.00026155
0.000888291
0.00100984
0.000894905
0.0011265
0.000386201
0.000398457
0.000668916
0.000994029
0.000269368
0.000740386
5.62386e-11
1.96937e-07
0.00240426
0.000384684
0.00102182
0.000694792
0.000545923
0.000997667
0.0003892
0.00100993
0.000972649
0.000977525
0.000963111
0.000999516
0.00072347
0.00112557
0.000770931
0.000746366
0.00098965
0.000820612
0.0010907
0.00089779
0.000955844
0.000631827
0.000258775
0.000771114
0.000964465
0.000941166
0.000838222
0.00101
0.000334973
0.000769708
0.000685233
0.000978177
0.000925692
0.000935309
0.000911669
0.00091709
0.000695524
0.000567275
0.00195145
0.000213938
0.000674617
0.000835469
0.000991728
0.00195085
1.40654
1.37501
1.36085
1.44653
1.48652
1.47659
0.694377
0.694464
0.683606
0.677104
0.603812
0.667515
0.498372
0.422725
0.348158
0.363223
0.331441
0.33199
0.331111
0.334995
0.209051
0.127454
0.22027
0.297006
0.295818
0.00093523
0.00082384
0.000875173
0.000890082
0.000922295
0.0009764
0.000965395
0.000493094
0.000931051
0.000554111
0.00100943
0.00097415
0.000969088
0.000968182
0.000289234
0.000455549
0.00100998
0.000498781
0.000128694
0.000927014
4.59314e-06
0.000274582
0.000921556
0.000785239
0.00052174
0.000783296
0.000978157
0.0968305
0.23959
0.351591
0.35217
0.676333
0.589959
0.607932
0.391364
0.47996
0.566501
0.623091
0.622684
0.619647
0.638472
0.668568
0.662248
0.000728722
0.0011356
0.000622527
0.000982796
0.000709484
0.000720222
0.00100904
0.000845157
0.000731311
0.000962244
0.000817811
0.000932446
0.000763197
0.000834556
0.00100996
0.000804852
0.000669627
0.00101186
0.000978929
0.000912957
0.000934512
0.000682923
0.000770427
0.000937995
0.000997599
0.000978674
0.000347723
0.000953032
0.000978459
0.000973622
0.00101
0.000984843
0.000871643
0.000978065
0.000827832
0.00108122
0.000882204
0.0576721
0.0963155
0.0833273
0.0238717
0.0226223
0.00103101
0.0135671
0.00018178
0.000506416
0.000278868
0.000919076
0.0303048
0.0159794
0.000406768
0.000976486
0.000612942
0.000962556
0.000490688
0.000432878
0.000753925
0.000136085
7.42918e-05
0.00065721
0.000224512
0.000920031
5.79952e-05
0.000680105
0.000702988
0.000420221
0.000653842
0.000551523
0.000693939
9.93495e-05
0.000358069
0.000994303
6.29841e-05
0.000979051
1.24588
1.25735
1.27944
1.30441
1.3175
1.31247
1.35465
1.32326
1.17596
1.1733
1.1591
1.18183
1.21533
1.17691
1.22466
1.19877
1.11155
1.09972
1.09414
1.12325
1.15123
1.12612
0.721058
0.64152
0.530406
0.626923
0.470408
0.387121
0.638404
0.642146
0.88087
0.882791
0.900154
0.793302
0.873123
0.986791
0.93375
0.874961
0.917513
1.02039
1.03206
1.02144
1.0282
1.03453
1.05789
1.08469
1.07365
1.08389
1.08101
1.08909
1.08524
1.08575
1.08408
0.126672
0.130632
0.271294
0.352705
0.128649
0.221553
0.365313
0.384589
0.114743
0.0649268
3.99111e-05
0.042391
1.26297
1.22153
1.23974
1.28709
1.28384
1.28597
1.29748
1.31831
1.33999
1.35038
1.35075
1.35726
1.3755
1.41593
1.40223
1.41328
1.43527
1.4761
1.45665
1.29357
1.30297
1.31984
1.48177
1.487
1.48743
0.00142161
0.00142153
0.0014217
0.000347629
0.000245104
0.000816772
0.00047143
0.000928091
0.000578348
0.000659527
0.000757232
0.000881632
0.000626245
0.00114672
0.000653698
0.00114668
0.000969713
4.56234e-06
0.000753117
2.49348e-09
0.00180581
0.000978706
0.0037358
0.000857562
0.0740633
0.103452
0.0367374
0.0686268
0.135934
0.102507
0.232976
0.167714
0.244879
0.254048
0.264254
0.251537
0.29566
0.338385
0.37646
0.377396
0.37995
0.366202
0.394689
0.376694
0.423882
0.430996
0.453507
0.454876
0.425755
0.432037
0.551237
0.597687
0.499547
0.562456
0.61115
0.572888
0.67422
0.721285
0.816545
0.858849
0.833206
0.924703
0.97831
1.08007
1.06432
1.12417
1.10037
1.19559
1.19726
1.18733
1.22213
1.24798
1.24335
1.30215
1.26335
1.29525
1.25487
1.25593
1.29291
1.2246
1.26107
1.22447
0.000278737
5.36638e-06
0.000809039
0.000599838
0.000769361
0.000964183
0.00057408
6.01214e-07
0.00101
0.000199154
0.00013101
0.000512431
0.000173153
0.000632165
0.000509667
0.000342831
0.000630624
0.000118597
0.000302915
2.85191e-05
0.000124015
4.98173e-05
5.50518e-07
0.000268742
0.000868214
0.000998785
0.00125888
0.000347774
0.00112674
0.00112676
0.000972922
0.000995782
0.000992745
3.82214e-05
0.00101
0.000912008
0.0010004
0.000112849
0.00044385
0.000919656
2.8756e-06
0.000297927
0.00207638
1.37186e-06
0.000984734
7.40659e-05
0.0009581
0.000364482
0.000962841
3.20685e-05
0.000982419
0.00220227
0.000992329
0.000134455
0.000992131
0.00115893
0.00119892
0.000431128
0.00100983
0.000979813
0.000465046
0.000983408
0.000969573
0.000835887
0.00112302
0.00111054
0.000971519
0.000993148
0.00108685
0.00110131
0.000955402
0.000732923
0.000711032
0.000919589
0.00142431
9.82113e-05
0.00142409
0.000869004
0.00098702
0.000966821
0.000961336
0.00100578
0.00103364
0.00103381
0.000813056
0.000805878
0.000827454
1.21904e-05
9.12481e-06
0
0.000971519
0.000799517
0.000430028
0.000873673
0.00119884
0.000898711
0.00100958
0.00100997
0.000955524
0.000998553
0.000946811
0.000914726
0.00101
1.36105
1.38051
1.38202
1.38008
1.41198
1.52354
1.49823
1.50516
1.53032
1.46612
0.603845
0.588284
0.519951
0.526896
0.484765
0.512784
0.428106
0.382097
0.36589
0.3316
0.310065
0.304568
0.219981
0.224297
0.0982385
0.135501
0.139429
0.000529692
0.000965684
0.000913493
0.00101
0.00103509
0.000961785
0.000585991
0.00117993
0.0716363
9.92692e-07
0.000919443
0.000220381
0.000954139
0.000978642
1.5342e-06
0.000368616
0.00101
0.000973131
0.000923882
0.00102216
0.000849804
0.000993173
0.000944045
0.000847483
0.00025022
0.465651
0.468168
0.514315
0.212055
0.351081
0.35179
0.387314
0.513169
0.581234
0.543798
0.452701
0.53102
0.564352
0.565744
0.483224
0.512583
0.000957717
0.000984824
0.00113564
0.0010123
0.000664306
0.000825516
0.00101
0.00118859
0.000985494
0.000996283
0.000160682
0.000717341
0.000827345
0.000936631
0.000510229
0.00125828
0.000976211
0.000967911
0.000884132
0.000995277
0.000795041
0.00101184
0.000844416
0.000963211
0.000917364
0.00101
0
0
0
0.000899898
0.00105682
0.000960833
0.00100563
0.000944429
0.000473953
0.000933078
0.000978965
0.000963917
0.00097325
0.000338297
0.000895901
0.000914242
0.000953661
0.000979183
0.000970046
0.0749035
0.0874536
0.0952551
0.000760406
0.000222668
0.000971257
0.000189643
0.000926634
0.000750894
0.0009484
0.000479969
0.00102448
0.00202448
0.000495887
0.000491909
0.000406739
0.00048827
0.000242686
0.000584634
0.000389242
0.000944947
0.000270985
0.000575667
0.000666396
0.000877991
0.000957091
4.42379e-07
0.000157147
0.00114626
0.000579243
0.00113434
0.000312228
0.000747328
0.000750717
0.000346646
0.00101
0.000942721
0.000620569
0.00114624
1.24895
1.20745
1.27451
1.23828
1.25144
1.28581
1.29156
1.33178
1.34132
1.36472
1.36019
1.30243
1.36048
1.32632
1.13644
1.13911
1.12891
1.14453
1.15911
1.17399
1.17558
1.17876
1.08573
1.08777
1.10548
1.09215
1.11849
1.12468
0.726665
0.643401
0.556154
0.638068
0.437956
0.526346
0.63998
0.646609
0.870883
0.873206
0.87643
0.800635
0.963572
1.00962
0.919199
0.871146
1.01473
1.01541
1.02892
1.01478
1.04733
1.07436
1.08108
1.08005
1.07929
1.07765
1.08667
1.08936
1.08339
1.07358
0.1259
0.120136
0.286004
0.366473
0.271274
0.186796
0.424859
0.360717
0.0977045
0.117372
0.0951299
0.00853862
1.26195
1.29794
1.28235
1.30768
1.32517
1.31441
1.35124
1.36185
1.33885
1.35026
1.34033
1.35143
1.35393
1.37652
1.40055
1.41522
1.41645
1.47066
1.44499
1.4986
1.49782
1.37318
1.38679
1.50519
1.5122
0.000415286
0.000109643
0.000696944
0.000551543
0.000525579
9.3846e-05
0.000260243
0.000207622
0.00101
1.00585e-05
0.000927799
0.000258474
0.000655056
0.000657476
5.07035e-06
0.000780461
0.00180575
0.00051008
0.000872027
0.000687083
0.00052706
1.85227e-16
0.0012306
7.99089e-226
0.0891047
0.0948916
0.0549546
0.00609787
0.129117
0.172205
0.228717
0.217529
0.232904
0.219555
0.344976
0.297142
0.401776
0.385328
0.424294
0.420829
0.407971
0.457172
0.498037
0.474338
0.453973
0.484023
0.539183
0.520065
0.505467
0.542932
0.628032
0.624262
0.624634
0.639219
0.768612
0.687534
0.858535
0.87888
0.881197
0.944971
1.02616
1.09877
1.11114
1.11995
1.16896
1.21247
1.25103
1.24653
1.28361
1.26246
1.31553
1.32589
1.33224
1.32704
1.33225
1.32795
1.29759
1.33141
1.29883
0.000850319
0.000118461
0.00648315
0.00102546
0.00069411
7.73581e-05
0.000686777
0.000538285
0.00079675
0.000700239
0.00101
0.00128837
0.000636015
0.00128752
0.0012878
0.00128774
0.00128764
0.000997336
0.00128798
0.0062902
0.000991407
0.000638589
0.000184916
0.00170989
0.000426197
0.00171081
0.00171062
0.000404634
0.000230194
0.00100217
0.000993637
0.000687571
0.000856518
0.000791817
0.00101
0.00104038
0.000780772
0.000959982
0.00100986
0.000887496
0.000962023
0.000997549
0.00181916
0.000969522
0.000146754
1.36216e-05
0.000607696
0.00096357
0.000988249
0.000479144
0.000826696
0.00094863
0.00100941
0.00031059
4.89872e-05
0.000987756
0.00100992
0.000817418
0.000560979
0.000803108
0.00101
0.000799183
0.000971415
0.000279366
0.000924228
0.00102881
0.000947296
0.0010008
0.000976155
0.000880492
0.000886752
0.00100949
0.00097168
0.000773375
0.000984106
0.000952799
0.000719502
0.00098992
0.000934564
0.000964099
0.000974876
0.000974485
0.00106583
0.00098414
0.000905098
0.000501594
0
0
0
0
0
0
0
0
0
0
0
0
0
0
0
0
0
0
0
0.00099334
0.000899716
0.000937661
0.000812305
0.000911169
0.000434354
0.000930589
0.00106592
0.000325168
0.000811332
0.00035232
0.000878445
1.56139
1.54118
1.56474
1.55625
1.56904
1.56464
1.39814
1.4078
1.46686
1.43689
1.5245
1.55724
1.52401
1.39745
1.35156
0.464094
0.464907
0.469057
0.456129
0.468412
0.399125
0.439597
0.226855
0.283445
0.150169
0.149927
0.096408
0.0982297
0.0964553
4.53839e-05
0.000856121
0.000495047
0.000982711
0.000829578
0.0957988
7.21587e-05
0.000961728
0.000977449
0.000820852
0.000686377
0.000984192
0.000961616
0.000962997
0.00097202
0.000717645
0.000335301
0.000983795
0.00101
0.000213894
0.00100974
0.000932938
0.0004632
0.000573031
0.470991
0.467413
0.468811
0.467013
0.470513
0.178605
0.295857
0.241965
0.358332
0.419731
0.442929
0.376456
0.459375
0.40786
0.408679
0.395845
0.000954778
0.00113137
0.000732537
0.000970576
0.000973219
0.000935143
0.000856721
0.00101484
0.000145854
0.000877832
0.00101379
0.000630067
6.92933e-05
0.000614295
0.000972224
0.000508825
0.000763669
0.000795766
0.000981404
0.00101575
0.000821777
0.000975753
0.000740767
0.000726241
0.000621516
0.00100957
0.000653948
0.000986115
0.000350393
2.15212e-05
0
0
0
0
0
0.000916941
0.00105708
0.000978274
0.00105667
0.00106485
0.000986613
0.00078846
0.00098995
0.000954971
0.00100113
0.00093197
0.000953825
0.000956596
0.000941905
0.000787048
0.000895141
0
0
0
0
0
0
0.0737912
0.00343018
0.000634382
0.000947433
0.000747852
0.000680509
0.00078824
0.000960083
0.000791447
0.000311719
0.00100956
0.000888154
0.000375808
0.000550644
0.00033854
0.000760208
0.000752664
0.000795758
0.000905726
0.000971356
0.000996
6.51335e-05
0.000891896
1.86216e-05
0.000486704
0.00073509
0.000634249
0.000404769
0.000958393
0.00027789
0.000626774
1.31742e-05
0.000467482
0.00183508
0.00183669
0.00067858
0.000959699
0.000281529
0.000798649
0.00100972
0.000818552
1.22187
1.19302
1.23269
1.23219
1.21597
1.26697
1.25461
1.26018
1.28319
1.29011
1.37227
1.33285
1.28967
1.12726
1.1261
1.15705
1.14004
1.17396
1.17052
1.19925
1.18189
1.08656
1.09483
1.11427
1.10017
1.1128
1.11924
0.762306
0.681964
0.60082
0.638669
0.589162
0.499238
0.677741
0.639991
0.874666
0.877758
0.836521
0.881721
0.96839
1.01598
0.874657
0.9269
1.01679
1.01525
1.03854
1.01881
1.05978
1.08004
1.071
1.08311
1.07827
1.07715
1.08489
1.08208
1.07744
1.07748
0.114134
0.186148
0.366831
0.343244
0.263929
0.349294
0.362598
0.44336
0.110883
0.104909
0.0988236
0.0217952
5.3971e-05
4.27987e-07
0.00087578
1.33025
1.33505
1.36297
1.35332
1.37933
1.38948
1.3907
1.39058
1.42432
1.40612
1.41659
1.38129
1.41298
1.42271
1.44798
1.46623
1.47666
1.47908
1.52657
1.53308
1.55427
1.53373
1.44442
1.44808
1.56747
1.56198
0.00016622
0.000334169
0.00101
8.12162e-06
0.000729054
0.00123079
0.00123038
0.00097612
0.000305007
0.000139146
0.000145881
0.00195813
0.00118284
0.000568508
0.000822227
0.00085682
0.00100232
0.000626775
0.000320397
0.000824137
8.63116e-05
0.000995528
0.000301624
0.00081986
0.000988737
0.0371389
0.110138
0.000610889
0.203496
0.149811
0.217913
0.222421
0.326352
0.259529
0.37691
0.41282
0.40222
0.40852
0.531781
0.495895
0.463438
0.523359
0.545472
0.539999
0.534084
0.532554
0.538315
0.536787
0.625662
0.662351
0.700146
0.662475
0.700397
0.730682
0.865206
0.80401
0.894831
0.877313
0.964156
1.03494
1.12705
1.11776
1.15613
1.18957
1.26342
1.25615
1.27582
1.28387
1.31405
1.31945
1.34378
1.33139
1.34731
1.33871
1.32936
1.34459
1.32933
1.33209
0.000977636
0.000864682
0.00101
0.00067133
0.000953629
0.000657298
0.000566723
0.000789161
0.000642839
0.00128616
0.000355406
0.000777264
0.000295436
0.00128665
0.00128788
0.00128685
0.00128879
0.00128999
0.00128864
0.000316853
0.000371652
0.00100461
0.000689527
0.000938422
0.000788581
0.00100179
0.000871325
0.000997704