/*--------------------------------*- C++ -*----------------------------------*\
  =========                 |
  \\      /  F ield         | OpenFOAM: The Open Source CFD Toolbox
   \\    /   O peration     | Website:  https://openfoam.org
    \\  /    A nd           | Version:  8
     \\/     M anipulation  |
\*---------------------------------------------------------------------------*/
FoamFile
{
    version     2.0;
    format      ascii;
    class       surfaceScalarField;
    location    "16380";
    object      phi;
}
// * * * * * * * * * * * * * * * * * * * * * * * * * * * * * * * * * * * * * //

dimensions      [0 3 -1 0 0 0 0];

internalField   nonuniform List<scalar> 
788991
(
-0.0432304
0.0755137
-0.0579826
-0.0125276
0.0509657
-0.0657707
-0.00756888
0.0941753
-0.0302585
0.063362
-0.0464148
0.0403208
-0.0016441
-0.0733725
-0.009901
-0.0399864
0.140052
-0.0282739
-0.0185261
0.0403843
0.0235113
0.00748325
-0.0763313
-0.0142091
-0.0182304
0.0180438
-0.0226613
0.126753
-0.094355
0.100135
-0.0785975
0.0425337
0.13274
-0.0642294
0.0348146
-0.0514012
-0.0880773
-0.0842159
-0.037774
-0.000286171
-0.0820623
0.064597
0.0369886
0.011765
0.078165
-0.0638453
-0.0723621
0.122765
-0.00552594
-0.0132744
-0.112149
-0.0963225
-0.00671942
0.00121093
0.0147768
0.0550047
0.0442586
0.098911
0.0899953
0.0974611
0.0709174
0.00160523
-0.0211259
0.011366
-0.00529218
0.0249619
0.0235058
0.00863095
-0.0550481
0.0574288
-0.00564515
-0.0523807
-0.0743586
0.143816
0.0766092
-0.0270485
0.033442
-0.0983728
-0.0183379
0.00118755
0.04343
0.00362598
0.0345481
-0.0644759
0.0190684
-0.0208106
-0.0493325
-0.0311704
-0.0143346
-0.0119976
-0.0225658
-0.0567743
0.0189075
-0.0267171
0.0412327
-0.0281068
-0.0435152
0.0412081
-0.0801593
-0.045715
0.00775396
-0.0237656
0.00773933
-0.0299561
-0.0233086
0.0155831
-0.0788158
0.0424384
-0.11335
0.0497705
-0.0374784
-0.0244294
-0.0575269
0.020608
-0.0833982
-0.0318058
-0.0897829
-0.0209476
-0.0644877
0.0217072
0.0836263
-0.075638
0.0788184
0.00700916
-0.00539032
-0.147481
0.0302021
-0.0150896
-0.0512089
0.0588163
0.108744
0.120876
0.00218282
-0.183756
-0.191618
-0.256301
0.0659533
0.15078
-0.151263
0.173542
0.0452873
-0.105375
0.152625
0.0138209
-0.0767206
-0.0936427
-0.0118355
-0.0600606
0.0754238
-0.0113256
-0.062312
-0.0811589
-0.00645255
-0.092755
0.0481016
0.0168776
-0.0891302
-0.0504681
-0.0838353
0.0582927
-0.0451221
0.111964
-0.0536625
-0.10462
0.0403129
-0.0380885
0.080758
-0.0533894
-0.122795
0.0552254
-0.0479618
0.0983407
-0.0495997
-0.112739
-0.05185
-0.0566237
-0.0960164
-0.0406096
-0.0929583
-0.0356915
-0.0429581
0.0716129
-0.0376791
-0.0751388
0.040364
-0.029029
0.0788979
-0.0320072
-0.080989
-0.0573629
-0.0492787
-0.0970111
-0.0264142
-0.079405
0.0546265
-0.0571893
0.0780704
-0.0349093
-0.0744305
0.0527864
-0.0473578
-0.0748666
-0.0424455
-0.0908084
-0.0730843
-0.0606635
0.108337
0.0751656
-0.125999
0.00814521
-0.0946146
-0.115629
-0.0428581
-0.0427203
0.00450024
-0.0233492
0.0729347
0.0346077
-0.0225006
-0.0213031
-0.0129253
0.040976
-0.047406
-0.000482025
0.0230139
0.00411781
-0.0891772
-0.0398282
-0.0281503
0.0336567
-0.0206478
-0.0802972
-0.030194
-0.0367109
-0.0649921
0.0307688
-0.06172
-0.0801105
-0.0287749
0.0310016
-0.0598464
-0.0458845
-0.0628677
-0.108199
0.0411072
-0.0718515
-0.128628
-0.0610315
-0.0589134
-0.123864
0.0537249
-0.0471999
-0.101352
0.043575
-0.0327562
-0.0828863
0.0375546
-0.0201433
-0.0728302
-0.0510743
-0.0156847
-0.0718409
0.0586309
-0.0172755
-0.0710356
-0.0583047
-0.0240662
-0.0717538
0.0638648
-0.0541618
0.0194986
-0.0893361
-0.0884967
-0.0899695
0.0402677
-0.096724
-0.100846
-0.0400383
-0.0602537
0.0610572
-0.0902069
-0.0023335
-0.0503955
-0.0175744
0.00185531
0.0208951
0.0231667
-0.152187
0.0163427
-0.0601228
0.0364002
0.0938882
0.0589366
-0.0300973
0.0607959
0.0329401
0.00509946
-0.0127954
0.0314079
0.00550221
-0.0247851
-0.0117874
-0.0458542
-0.0397504
-0.0107947
0.025128
-0.013179
0.0668574
-0.0731863
0.0216059
0.0275319
-0.0401451
0.0499848
0.149781
0.0659647
0.256818
0.806897
0.433535
0
0.0897619
-0.0151576
0.156238
-0.208029
-0.0396219
0.0121047
-0.0661313
-0.0746454
-0.0122169
-0.0706113
0.00309472
-0.0169464
-0.0335805
-0.0114291
-0.0682114
0.0377617
-0.0254283
-0.024942
-0.0530602
-0.00585663
-0.0835715
-0.0343166
-0.0110693
-0.053104
-0.0409511
0.0388037
-0.0710253
0.0743412
0.044199
-0.0296748
0.0906787
0.0487009
-0.0654867
0.111619
0.0440466
-0.0422544
0.0896606
1.17628
0
0
0
-0.295997
0.13479
1.13341
0.154227
0.0924708
-0.127223
-0.173848
0.0442339
-0.0728051
0.110324
0.0165223
-0.0586172
0.0827884
0.00573615
-0.0603013
-0.0556299
-0.00293218
-0.0535017
-0.0542735
-0.0096646
-0.0771461
0.0484338
-0.0401397
-0.10697
-0.056207
0.0362884
-0.0607742
0.080529
0.0391299
-0.0360458
-0.0713608
0.0383062
-0.0568929
0.0861231
0.0269927
-0.0569393
0.0681314
0.0331264
-0.031778
-0.058489
0.0364741
-0.0365278
0.0874259
-0.0541224
-0.11193
-0.064264
0.0884636
0.0116105
-0.0187657
-0.104635
-0.108511
-0.104332
0.0737324
-0.0988921
-0.106243
0.0320873
-0.0261767
0.10448
0.0276551
-0.105225
0.0310242
-0.0600421
-0.0968141
0.0278392
-0.0616007
0.0811851
0.0306411
-0.0607024
0.0831935
0.0106003
-0.0766089
0.0971405
-0.0415345
0.0877943
-0.109517
-0.105369
-0.0900869
-0.101973
0.0758895
0.0293374
-0.0192176
-0.01228
-0.0496675
0.00163126
-0.0174421
0.0246473
0.0162229
-0.0034681
-0.08238
-0.00284695
0.0220918
0.0393309
0.0297125
-0.0445743
0.0219434
-0.00992298
-0.040638
-0.038235
-0.0305262
-0.0454484
0.0193364
-0.0275004
-0.0574198
0.0331463
-0.0895237
-0.0811515
0.04798
0.0448611
-0.0616985
-0.047407
-0.0796295
-0.118353
-0.0545941
-0.0661732
-0.119641
0.0510212
-0.0489956
-0.101157
0.0467435
-0.0360568
-0.0826581
-0.0394395
-0.0205268
-0.0779862
0.0436246
-0.00883117
-0.0723301
0.0551756
-0.00615256
-0.0682686
0.0605619
-0.00374347
-0.0655659
-0.0653319
0.00899586
-0.0698656
-0.0784696
-0.0544253
0.0420697
-0.0900724
-0.0745838
0.0445841
0.0902154
-0.026624
0.0815281
0.0925148
-0.043561
0.0681261
-0.0880426
0.0906394
-0.0227774
-0.100468
-0.00426085
-0.0810207
-0.0274733
0.105106
-0.0165442
0.0951409
-0.0973648
0.0387168
-0.111177
-0.0858825
-0.031865
0.118777
0.0106631
0.0830249
0.0398008
0.0195551
-0.100784
-0.0903949
0.106241
-0.0136258
-0.073867
0.0842458
-0.0727939
-0.10962
-0.0373537
0.0414388
0.0310366
0.0701294
0.0230327
0.0638654
-0.0711244
-0.0121164
-0.0308408
0.0405599
0.082317
-0.0594964
0.0273771
-0.0967405
0.0046867
0.0247019
-0.0865656
0.0470352
0.0512288
-0.0202486
0.047157
0.151097
0.132576
0.0208847
0.231844
-0.256369
0.00110337
0.137273
-0.131102
0
0
0
0
0
0
0
0
0.0346594
0
0.0613954
-0.0165534
0.027859
-0.131391
-0.0707015
-0.0322143
-0.0495316
-0.0977184
-0.0470634
-0.0340484
-0.0156792
-0.0747256
-0.0760288
-0.00227328
-0.0281969
-0.0335528
-0.0481204
-0.0655915
0.0789181
0.0100661
-0.00477172
-0.0648283
0.0134906
-0.0716098
0.0798558
0.0403912
-0.0372514
-0.066793
0.0507068
-0.055444
0.0952947
0.0361087
-0.0599891
-0.103315
0.0449843
-0.0468028
-0.0878678
-3.7382e-07
0
-1.66324e-07
0
0
-3.64103e-06
-1.11402e-06
3.34759e-06
-1.03532e-07
-7.99772e-07
8.6207e-08
0
0
0
0
0
0
0
0
0
0
0
0
0
0.563007
0.399469
-0.087175
0.137041
0.465026
-0.0476686
0.0789234
0.0699915
0.102803
0.0172362
0.0089072
-0.0732841
0.021198
-0.0353724
-0.0531154
-0.00103312
-0.0314109
0.0479716
-0.0236537
-0.0831528
-0.0423116
-0.0408236
-0.0767828
-0.0634123
-0.0384691
-0.0695265
-0.0375368
0.0324875
-0.0486157
-0.0703629
0.0299892
-0.0498729
0.0741587
0.0135553
-0.0613355
-0.0690722
0.0108063
-0.0455884
0.050182
0.0187859
-0.0320981
0.0558987
0.0269159
-0.0502004
-0.0902096
-0.0592455
-0.109725
-0.0590657
-0.0756859
0.0176789
0.112563
-0.106569
0.0385994
-0.0774261
-0.0984881
0.0883708
-0.0293722
-0.0282597
-0.0329954
0.0848156
-0.0883859
0.0353297
-0.0670809
-0.0995673
0.0324723
-0.0649599
-0.0925844
0.020009
-0.0673876
-0.0903107
0.0448714
-0.0689552
0.103998
-0.0249985
-0.124074
-0.0827844
-0.123567
-0.107642
-0.0854361
0.0966909
-0.0553757
-0.116462
-0.0485988
-0.0376865
-0.109037
-0.0719521
-0.0226445
-0.127846
-0.105554
-0.119128
-0.0514056
0.0686495
-0.0637692
0.0297793
-0.0836657
-0.00344061
-0.0129233
-0.0239618
0.0736145
-0.0292338
0.00512907
0.0345882
-0.0346727
0.00859108
0.00348387
-0.0042458
0.0458001
-0.0122953
-0.0085104
0.0344262
0.00420751
-0.0240082
-0.0162324
-0.0169793
-0.0143298
-0.0196279
-0.0399966
-0.0551886
0.0458144
-0.111841
-0.107392
-0.0523072
-0.0486245
-0.0732372
-0.0439918
-0.0700124
-0.117763
-0.0395164
-0.0575682
-0.104048
0.0398594
-0.0435257
-0.0871959
0.0365454
-0.0382007
-0.0825266
0.0389029
-0.0258047
-0.0863446
0.0456065
-0.0159596
-0.0798466
0.0513242
-0.00963681
-0.0702647
-0.0564115
-0.00236743
-0.0696878
0.0675441
0.0099838
-0.0776176
0.0821946
-0.0471046
0.04725
-0.0877455
-0.0758777
0.046351
-0.0859077
-0.0223229
0.0771946
-0.0919991
-0.0357018
0.0693187
0.0863665
0.0823038
-0.0178653
0.0957936
-0.00866624
0.0752833
-0.101732
-0.013282
0.0853812
-0.0917658
0.0417381
-0.0318584
-0.11594
0.0329884
-0.0654867
0.104164
0.0496915
-0.03735
-0.063482
0.0882049
-0.00742439
0.0415357
-0.00131227
0.0189521
0.0608616
0.0275471
-0.169998
-0.0243095
0.0559568
-0.0643276
0.0797788
-0.0398056
0.0247128
0.0700922
0.0106071
0.0257573
-0.0381776
0.105256
0.122
-0.039421
0.0826315
0.118916
-0.0291188
0.0549776
0.0568579
0.019179
0.0272911
-0.0109456
0.0414359
0.009727
0.00869322
0.0349652
-0.0441661
0.0345333
-0.0158334
-0.0268642
-0.021153
-0.0445437
-0.0175455
-0.0287775
0
0
0
0
0
0
0
0
0
-0.148706
0
0
0
0
0
0
0
0
0
0
0
0
0
0
5.07106e-06
0
3.71357e-06
0
-1.64152e-05
0
-1.05858e-05
0
9.23605e-06
-3.47292e-05
0
0
1.10119e-05
0
0
0
0
0
0
0
0
0
0
0
0
0
0
0
0
0
-0.0873394
0.015226
0.0360915
-0.0863756
-0.00697968
-0.0459077
-0.00508716
-0.0620584
-0.0577822
-0.000811783
-0.062398
0.0430759
0.00789182
-0.0910103
0.0231675
0.00602731
-0.0478704
-0.049921
0.028324
-0.0409373
0.0604816
0.0377945
-0.0360271
0.0930053
0.0517528
-0.0433782
-0.0829549
0.0412142
-0.0610013
0.0952051
0.0383261
0.0782065
-0.0437249
0
0
0
0
0
0
0
0
0
2.50037e-06
0
0
0
0
0
0
0
0
0
0
0
0
0
0
0
0
0
0
0
0
0
0
0
0
0
0
0
0
0
0
0
0.146306
0
0.225046
0.387592
0.293912
0.105793
0.16933
0.249216
-0.0581567
0.101646
0.112524
0.0654263
0.0613073
0.0571505
0.0625828
0.0151447
0.00903543
-0.0592664
0.00511482
-0.0265535
-0.0411089
-0.049716
-0.0471071
0.0436628
-0.0169977
-0.0604259
-0.0492152
-0.0185211
-0.0599307
0.0347745
1.93369e-05
0
0
-4.86286e-05
-1.73451e-06
0
0
2.25773e-05
0
0
0
0
0
0
0
0
0
0
0
0
0
0
0.0295188
-0.0452153
-0.0713753
0.0140727
-0.0518496
-0.066226
0.00511577
-0.0505956
0.0578214
0.0052307
-0.0386184
0.0428388
0.0124811
-0.0439359
0.0477439
0.0377401
-0.05813
-0.0709152
-0.0422919
-0.109412
0.0663332
-0.0116789
-0.114854
-0.0740619
-0.066061
-0.0892386
-0.04856
-0.0581981
-0.128181
0.0863052
-0.0238744
-0.0505706
0.0671864
-0.019461
-0.11249
-0.105457
0.0519312
-0.0488513
0.0783156
0.0445037
-0.0543283
-0.0986603
0.0228302
-0.0651492
0.104005
-0.00869179
-0.0757407
-0.0692368
-0.0800534
0.04968
-0.0356934
-0.0747813
-0.0257251
-0.083708
-0.0555219
0.0232093
-0.0207112
-0.0603137
0.0295652
-0.0677854
-0.0315174
-0.0632493
-0.137283
-0.0572593
-0.0624615
-0.106493
-0.0225317
-0.0366273
-0.129313
0.092122
-0.0795677
-0.144786
0.0628067
-0.14314
-0.0539355
-0.0923598
-0.0169502
-0.0369923
0.00849713
-0.0445503
-0.00335157
-0.0247332
-0.00738327
0.0431597
-0.0616347
-0.00829794
0.019924
0.0197621
-0.00303994
-3.99553e-05
-0.0151544
0.0106939
-0.0155841
-0.0162518
0.00925409
0.0107813
-0.0107123
-0.0305948
-0.0188305
0.033603
-0.0450002
-0.0690813
0.0536607
-0.108007
-0.102157
-0.0537733
-0.0410547
-0.0645085
-0.0381502
-0.0662554
-0.109991
0.0306724
-0.0569288
-0.1018
-0.0319072
-0.0524753
-0.0913275
0.0393262
-0.0506029
-0.0942818
-0.042043
-0.036262
-0.0976433
0.0406354
-0.0256017
-0.0830508
-0.0417974
-0.0185881
-0.0731607
0.0516981
-0.0097957
-0.0775899
-0.068564
0.00822
-0.0878438
-0.0782153
-0.0371957
0.0562916
-0.0782921
-0.0728762
0.0444135
0.0717292
-0.0168734
0.0811231
-0.0933257
-0.0305204
0.0818768
-0.0857094
0.0803162
-0.0125243
-0.0882063
-0.0114007
0.0754911
-0.100357
-0.0148506
0.0872037
-0.0894929
0.0441972
-0.0245503
-0.0952949
0.0284178
-0.0484666
-0.0842786
0.0434858
-0.0506742
-0.0765048
0.0444314
-0.026573
0.0617885
0.027771
-0.0271258
-0.0166485
-0.0528786
0.0441094
-0.052462
0.0134362
0.033023
-0.0254973
0.00784334
-0.0305536
0.0201414
-0.0219695
-0.0352165
0.000926389
-0.0374089
0.0383253
-0.0283065
-0.0323203
0.0151426
-0.0399982
-0.0305619
-0.032019
-0.0332644
0.0319591
-0.0392415
-0.0142642
-0.0186447
0.0384592
-0.0322375
-0.0361732
-0.0163704
-0.00334627
-0.0364521
0.023068
-0.0424236
-0.0154306
-0.00496829
-0.0362729
0.0161362
-0.0471669
0.0428225
-0.0388884
-0.043645
-0.0507679
0.0218178
0.0311489
0.00198278
0.0496059
0.0672537
0.0257158
-0.0161865
-0.0310841
0.0433394
0.013936
0.0381943
0.0114233
-0.0336372
-0.0181382
-0.0622317
-0.0141968
-0.0253071
-0.0172355
0.00624524
-0.0219244
0.0119816
-0.0101891
0.00673561
-0.0114228
-0.0349874
0.025552
0.0101457
-0.0101645
-0.0572651
0.0361495
-0.0775928
0.0677193
0.0422362
-0.0352692
0.0554067
0.0419666
-0.0153126
-0.0184717
-0.151229
0
-0.0634095
-0.0404808
-0.0615853
0.0298617
-0.0183754
-0.0162315
0.00106334
0
0
0
0
0
0
0
2.16656e-05
6.69115e-05
0
0
0
0
0
0
0
0
0
0
0
0
0
0.000109249
1.42495e-05
0
0
0
0
0
0
0
0
0
0
0
0
-5.68189e-05
0
0
0
0
0
0
1.95172e-05
0
-2.82823e-05
0
0
0
0
0
0
0
0
0
8.09546e-05
-8.99285e-06
-6.17187e-05
-0.000164872
-0.000144198
-5.23819e-05
0
0
9.32474e-05
-9.26534e-07
0
0
0
-5.52122e-05
0
0
0
0
0
0
0
0
0
0
0
0
0
0
0
0
0
0
0
0
0
0
0
0
-0.0721846
0.00625865
-0.0212647
-0.0594249
-0.0634318
0.0410122
-0.0430296
-0.0769106
0.0390342
-0.0188405
-0.0831308
-0.0594225
0.00602458
-0.0394482
-0.0745147
0.0413592
-0.0380398
0.0455453
0.0365581
-0.043305
0.0724123
0.0328604
0.0297028
-0.0692101
-0.0398447
0.0288352
-0.0582979
0.0753798
0.0400037
-0.0420326
0.0795821
0.0715138
-0.0492673
0
0
0
-2.88075e-05
3.00492e-05
3.82315e-05
0
0
0
0
0
0
2.95239e-05
0
-1.84868e-05
0
0
0
0
0
0
0
0
0
0
0
0
0
0
0
0
0
0
-7.51772e-06
5.39026e-05
0.000149034
0.184898
3.08796e-05
-0.263396
0.299228
0.448184
-0.0617795
0.177103
0.209937
0.0751746
0.0921854
0.0910946
-0.0581199
0.0404304
0.0281964
-0.0364835
0.0292068
-0.00631333
-0.0538213
-0.0130998
-0.0266284
0.0408459
-0.0278188
-0.0692862
0.00969764
-0.0538826
-0.077772
-0.000327508
-0.0798201
-0.0119785
-0.0615266
2.38052e-05
0
0
-1.57258e-06
0
2.5485e-05
0
-6.20751e-07
0
3.61507e-07
0
-7.31515e-07
-3.46502e-08
0
0
0
0
0
0
0
0
0
0
0
0
0
0
0
0
0
0
0
0
0
0
0.00439578
0.0328047
-0.00679498
0.0171981
-0.0450289
0.0567228
0.0128712
-0.0426765
0.0595364
0.0104887
-0.0351482
0.0577252
-0.0012997
-0.0368873
-0.0444686
0.00582268
-0.0508496
0.0417792
0.0164703
-0.0360973
0.0346967
-0.0119214
-0.124199
0.0899311
-0.046188
-0.0954907
-0.0586963
-0.0522432
-0.11108
0.0921571
-0.0442593
-0.14557
-0.116411
-0.0154212
-0.0778675
-0.0910635
-0.00125705
-0.126651
0.12293
0.0185001
-0.0352767
0.0581217
0.0171481
-0.0578407
0.0797487
-0.00478914
-0.0716184
-0.062519
-0.0125513
-0.0720535
0.054385
-0.0548419
-0.0189835
0.0337655
-0.0767239
-0.0349069
0.0349144
-0.079537
-0.0445786
0.0310055
-0.0223468
-0.0632614
0.0339066
-0.0412793
-0.00127929
-0.0402969
-0.0460063
-0.00363528
0.039966
-0.010276
-0.0393674
0.0384096
-0.025494
-0.043229
-0.0208584
-0.0276067
-0.0432545
0.0230009
-0.021091
-0.0500741
0.0325534
-0.0119816
-0.0391772
-0.0348166
-0.0154657
-0.0542887
-0.0332426
-0.054224
-0.0541057
0.0612373
-0.0211297
-0.0281482
-0.0538623
-0.0274855
0.0336798
-0.0845252
-0.141222
0.0177543
-0.0530135
-0.0932595
-0.026019
-0.0905956
-0.137761
0.0670147
-0.114486
0.0220974
-0.165366
-0.148151
-0.0773707
-0.084773
-0.0127401
0.00386409
0.0329254
-0.0180398
-0.0175992
0.00668795
-0.00764418
-0.0170486
0.0114543
-0.0166876
-0.0045199
-0.0059754
-0.0030155
-0.00512157
-0.0102818
0.0242171
0.0153572
0.00599142
-0.0184269
-0.00433443
-0.0222815
-0.0574755
-0.0372553
0.0236739
-0.0562873
-0.0703671
-0.0485398
-0.0864037
-0.0858109
0.0417902
-0.0431632
-0.0549689
-0.0382703
-0.0623419
-0.0897568
0.032418
-0.0626043
-0.10301
0.03974
-0.057773
-0.109838
-0.0450399
-0.051825
-0.102397
0.0424802
-0.0365335
-0.0955669
-0.0411719
-0.0307325
-0.0789167
0.0467735
-0.0264679
-0.071842
-0.0576496
-0.018019
-0.0819054
0.0693132
0.00249709
-0.0855783
-0.068115
-0.0336755
0.0505035
-0.0709003
-0.060876
0.0321329
0.0612542
-0.0135546
0.0824195
0.0858069
-0.0278596
0.0705917
-0.0779372
0.0766946
-0.0119452
-0.0804699
-0.00338599
0.0770917
-0.0890809
-0.00720942
0.0849963
0.0812145
0.0391623
-0.013289
-0.0748814
0.0256399
-0.032422
0.065835
0.0373771
-0.0387183
-0.0553491
0.0338678
-0.0177553
-0.0459931
0.0419804
-0.0133356
0.010643
0.0242017
-0.0120335
0.0320844
0.00273491
-0.0209235
-0.029079
0.00384922
-0.0243512
-0.0297828
0.0187113
-0.0227147
-0.0284563
0.0396968
-0.0121656
-0.0343713
0.0288855
0.00210798
-0.0382253
0.0265936
-0.0122465
-0.0270542
0.0210415
0.0169116
0.0443498
0.0150702
-0.0750967
-0.0477332
0.0309534
-0.0243391
0.00358885
-0.0584288
0.0244239
-0.0542253
-0.0271938
-0.0360772
0.0513304
-0.0334825
-0.0578385
-0.02264
-0.0505069
-0.0207702
0.0450338
0.0171519
0.00789487
0.0203099
0.0618239
0.00419387
0.0240473
0.0326125
0.03869
-0.0119971
-0.0252352
0.056981
-0.0313216
-0.00726276
0.0272668
0.0444288
0.0032465
0.0396183
0.0280151
0.0468217
-0.0258826
0.0320072
0.0623256
-0.0729662
-0.0345525
-0.0333595
-0.020839
0.0836754
-0.00172094
-0.124178
-0.0704135
0.0269324
-0.0303898
0.052614
0.106227
0.0511307
-0.00981918
-0.115176
0
0
-0.0805287
0
0.197429
0.0167034
-0.0364766
0.310432
0
0
0
-9.18833e-06
0
7.4896e-05
0
-2.28352e-05
0
0
0
0
0
0
0
0
8.06429e-06
0.000164343
0
0
0
0
7.70664e-05
0
0
0
0
0
0
0
0
-3.96597e-08
-6.88053e-07
0
0
0
0
0
0
0
0
0
0
1.11591e-05
0
0
0
0
2.88246e-05
0
0
3.16528e-05
-2.3254e-05
-1.65483e-06
0
0
0
0
0
0
0
0
0
0
0
0
0
0
0
0
0
0
0
0
0
0
6.48808e-07
0
0
0
0
-0.0742959
-0.0485652
-0.0308854
-0.0639338
-0.0646312
0.0276831
-0.0172839
-0.069447
0.0520301
0.0126729
-0.0554628
0.0460945
0.01318
-0.0743531
0.0546328
0.00843049
-0.0463284
-0.0560162
0.0300983
-0.036465
-0.0462417
0.0202148
0.0123831
-0.0485087
-0.0376858
0.0198125
0.0561657
0.0363297
0.0168032
-0.056439
0.066252
0.0487343
-0.0462826
-1.36262e-05
0
-9.16855e-06
6.67275e-05
3.48605e-06
1.36648e-07
0
0
0
0
0
0
0
0
0
0
0
0
0
0
0
0
0
0
0
0
0
0
0
0
-5.66916e-05
0
0
0
0
0
0.301843
0.0958783
-0.00613103
0.322735
-0.0591168
0.32677
0.143216
0.236163
0.0489955
0.104067
0.100319
-0.0622556
0.0746535
0.0564336
-0.0556049
-0.0115563
-0.0017889
0.00798476
-0.0435251
-0.0335305
0.00423308
-0.0649473
-0.0619335
0.0397708
-0.0917798
-0.00331999
0.0285093
0.0449212
-0.0255571
-0.0216572
0
0
0
0
0
0
0
0
0
0
2.94239e-07
0
0
0
0
0
0
0
0
-0.0067019
0
0
0
0
0
0
0
0
0
0
0.00473597
0
0.00252962
0
0
0
0
0
0
0
0
0
0
-0.00584079
0
0.0161213
-0.0371024
0.0459061
0.0297245
-0.0214896
-0.0521403
0.0287895
-0.0155373
0.0569586
0.0144119
-0.0386489
-0.0612094
0.00304731
-0.0261453
0.0102677
-0.039471
0.00470557
-0.0294071
0.0559681
0.00074647
-0.0155081
-0.0568785
-0.0395697
-0.105663
0.0644479
-0.0356435
-0.0952837
-0.0855619
-0.0272625
-0.14127
0.115646
-0.0463338
-0.15466
0.106124
0.0241172
-0.0957849
0.0966541
-0.0290035
-0.0972844
-0.116116
-0.0189916
-0.0624112
0.0466121
-0.0341209
-0.0676122
-0.00251282
-0.0274415
-0.0321888
0.0514345
-0.0166945
-0.0793848
-0.0712844
0.0352444
0.0543323
-0.00791478
0.0448409
-0.0528414
0.0129579
0.0108531
-0.0131887
-0.0364432
-0.0506014
0.0255833
-0.0194688
0.0273462
-0.00824631
-0.0412747
-0.032479
-0.038553
-0.0474146
-0.0157651
0.0448794
-0.00513509
-0.0264651
-0.0116552
0.0452141
-0.0499529
-0.0232504
-0.0182277
-0.0233189
0.0499423
-0.0520687
0.0427399
-0.037758
0.0590312
0.000490064
-0.0611488
-0.0527825
-0.0279832
-0.0610237
-0.0367858
-0.0294284
-0.0598253
0.0210114
-0.0375311
-0.0522859
-0.010422
-0.0529855
-0.0104792
0.0401102
-0.0753322
-0.028194
0.035324
-0.0844929
-0.0399748
-0.0346402
-0.0150611
-0.061231
0.03871
-0.038976
-0.00548513
-0.0446337
-0.045839
-0.00123124
-0.0466177
-0.0276487
-0.0479822
-0.0213357
-0.0224851
-0.0461503
-0.0340186
-0.00886305
-0.0459948
-0.0390718
-0.011657
-0.0493294
-0.0463764
-0.014138
-0.0538167
-0.0377809
-0.0250909
-0.0529879
-0.0339136
-0.0628353
-0.025648
-0.0332287
-0.0588964
-0.0218762
-0.040632
-0.120744
-0.0687149
0.0211032
-0.140185
-0.133204
-0.09058
-0.032106
-0.0508889
-0.0877437
0.030932
-0.156987
-0.00554442
-0.118444
-0.153801
-0.0253825
0.117221
0.0279665
0.0243658
-0.0234739
-0.0414418
0.035129
-0.0138442
0.043536
0.0213565
-0.0103461
-0.0393775
0.0206568
-0.0242475
-0.0443565
0.0381408
-0.0265185
-0.0446208
0.0278508
-0.0066077
-0.0347624
0.00699211
-0.00733897
-0.0198247
-0.0199027
-0.00339653
-0.0121671
-0.0101933
0.00482897
0.024729
-0.0732055
-0.0872959
-0.00118267
0.0516492
-0.051915
-0.0351298
0.0227847
-0.00732752
-0.0113999
0.000444549
0.00784629
0.00486282
0.0118061
-0.000782917
-0.0105935
0.0107279
-0.00907262
-0.0254179
0.0167831
-0.0610615
-0.0331892
-0.0270975
-0.0504378
-0.100358
0.00942961
-0.068082
-0.0795638
0.0400658
-0.056059
-0.0527045
-0.0401396
-0.0642609
-0.0936099
-0.0403573
-0.0644942
-0.109437
0.0415478
-0.0506961
0.0289841
-0.107109
-0.037794
-0.0837454
0.0451074
-0.0234257
-0.0887793
-0.0500432
-0.0178621
-0.0718218
-0.0570071
-0.014029
-0.0727807
0.0654962
-0.00763251
-0.0810214
0.0667776
0.0044828
-0.068416
0.0614543
-0.0262466
0.0423094
-0.0679582
-0.0558626
0.0353236
-0.0543312
-0.01355
0.0683277
0.073711
-0.0223419
0.0613168
-0.068938
0.0663481
-0.00788044
-0.0707176
0.00202019
0.063372
-0.0677537
-0.00152528
0.068188
0.0641709
0.0310725
-0.00271206
0.0533593
0.0162306
-0.0201396
-0.0465434
0.0263063
-0.0288015
-0.0323004
0.0347428
-0.00706698
0.014086
0.0208851
-0.0101784
0.0282964
0.00344484
-0.0173251
-0.0205059
0.00394422
-0.0212674
-0.0237175
0.012266
-0.0194638
-0.0328324
0.0270268
-0.0129351
0.0383802
0.037685
-0.00751305
-0.0325269
0.0360244
0.00137835
0.034736
0.0201476
0.008654
0.0335268
0.0269663
-0.0687166
-0.0302514
0.0291686
0.0824044
0.0344388
0.0187657
-0.0837095
0.0551281
0.0471968
-0.00569228
0.0602127
-0.0474982
-0.00843443
0.0464797
0.041208
0.0397398
-0.043474
-0.0248139
0.103869
-0.158696
-0.023279
0.0952703
-0.0197282
0.0302575
0.0123749
0.0345593
0.0379127
0.0482054
-0.0110039
-0.0721103
0.0170241
0.0671185
0.0923618
-0.229673
-0.297677
-0.0242309
-0.18209
-0.143621
-0.0373749
-0.0654507
0.0300355
0.0534486
-0.131835
0.095695
0.0637421
-0.21077
-0.038648
-0.132908
-0.0430112
0
0
2.73179e-05
3.98286e-05
-1.29356e-05
0.168724
0
0.000925341
-0.158714
0.108508
-0.328321
0
0
0
0
0
0
0
0
0
0
0
0
-3.24987e-05
0
-8.63737e-05
0
0
0
0
0
0
0
0
0
0
0.00326711
0.00207526
0
0
0
0
0
0
0
0
0
0
0
0
0
0
0
0
0
0
0
-3.80386e-07
-5.67792e-07
-2.59327e-05
0
0
0
-0.000113739
0.000130416
0
0
0
0
0
0
0
0
0
0
0
0
0
0
0
0
0
0
0
0
0
0
0
0
0
0
0
8.4668e-06
0
-3.75476e-05
0
0
0
-7.43916e-06
0
1.48544e-05
-0.0159146
-0.0352724
0.0222052
-0.00197771
-0.00785455
0.000192947
-0.0182031
-0.00915417
-0.0448426
-0.00238429
0.0462362
-0.0229278
-0.00198489
0.00306885
-0.0162398
-0.0545029
0.029798
-0.00398736
-0.0829373
-0.0659616
0.0127325
-0.0360382
0.0184849
-0.00668736
-0.0442997
0.0705075
0.00564928
-0.0397201
-0.0185859
0.00904865
0.0399928
-0.0251922
0.00814038
0.031022
0.030506
-0.0423758
0.0296065
9.21288e-06
0
0
0
0
0
0
0
0
0
0
0
0
0
0
0
0
0
0
0
0.28953
0.285884
0.00221404
0.277449
0
0
0
0
0
0
0
0
0
0
0
0
0.163138
0
-0.0373436
0.0414706
0.0281709
0.131408
0.272196
-0.0304644
0.0779772
0.0877007
0.0275047
-0.00447104
-0.0189096
-0.0116784
0.0371498
0.0436515
0.0550749
-0.0325316
-0.0453614
0.0410313
0.0225892
-0.0619447
-0.0216943
-0.0387042
-0.0363366
0.0472962
0.0203804
-0.0375481
-0.00973035
0
0
9.20695e-06
7.92103e-07
0
0
0
0
0
0
0
0
0
0
0
0
0
0
0
0
0
0
0
0
0
0
0
0
0
0
0
0
0
0
0
0
0
0
0
0
0
0
0
0
0
0
0
0
0
0
0
0
0
0
0.0122429
0.000702992
-0.0136182
0.0254447
0.0245613
-0.0192554
0.0327202
0.0334752
-0.00742543
0.034068
0.0385859
-0.0241557
0.0433751
0.0353451
-0.021587
-0.0446464
-0.0112078
0.0228286
-0.0245729
0.0312581
-0.00552007
0.0296359
0.00710249
-0.0362935
-0.0494245
-0.0445509
-0.124443
0.0546242
-0.0249049
-0.136343
0.0972246
-0.0316358
-0.13914
0.108658
-0.0122466
-0.135209
-0.137157
-0.00792156
-0.067687
0.0600173
-0.00481258
-0.102187
-0.132578
-0.0278213
-0.0323774
-0.0328918
-0.0778757
-0.0215712
-0.0168946
0.0198827
-0.0153281
0.0318948
0.00267824
-0.0243966
0.0835103
-0.0376785
-0.059439
-0.0243064
-0.0222609
-0.0605275
-0.0356667
-0.0142558
-0.0475609
0.0343558
0.00718678
-0.0439371
0.021619
-0.0318958
-0.0533969
0.0212774
-0.0153195
-0.0498885
-0.0399293
-0.0138052
-0.0633707
0.0479742
-0.0402844
-0.0613022
0.029382
-0.0276227
-0.0559834
0.0381724
-0.0512824
-0.0653343
-0.0131131
-0.0352349
-0.0545614
0.0219595
-0.0546785
-0.00289567
0.0451622
-0.0756777
-0.023881
-0.0400377
-0.089339
-0.0353289
0.0433925
-0.00914846
-0.0663776
-0.0459306
-0.0487943
-0.0328566
-0.0193288
-0.0646843
-0.048699
0.0123997
-0.0518498
-0.0494617
-0.00915013
0.044212
-0.0495306
-0.00543386
-0.0498394
-0.00457273
-0.0484086
-0.0531825
-0.00711231
-0.0595119
-0.047697
-0.0063823
-0.0471692
-0.0472965
-0.0240044
-0.0573285
0.0398874
-0.0308116
-0.069724
0.0291071
-0.0701055
-0.0313001
0.0297621
-0.0606205
-0.024487
-0.051649
-0.0894802
-0.129507
-0.0631199
-0.107023
-0.0609182
-0.0242588
-0.141967
-0.0831956
-0.0320359
-0.0445489
-0.0913647
-0.0454847
-0.143933
-0.0638968
0.0782466
-0.139295
-0.0530866
-0.0915392
0.0195653
0.0352346
-0.0442454
0.0417937
0.0242623
-0.00892964
0.0339739
0.0307526
-0.0360899
-0.012342
0.0191185
-0.00726842
-0.0330969
0.0195277
-0.0164824
0.0354161
0.0290895
-0.0179989
-0.0316063
0.0168987
-0.00376781
0.0198158
0.000117324
-0.00132107
-0.00275264
-0.00569816
-0.00220865
-0.00863247
0.0206998
-0.00242102
0.0259392
-0.0286905
-0.0106554
-0.00921452
0.00247947
0.00974915
0.0331846
0.0337995
0.0230406
-0.00721864
-0.0133536
0.0331853
-0.0346459
-0.00123404
0.0137892
0.0109206
0.0168942
-0.0316731
-0.00417234
-0.0202811
-0.00249925
0.0302526
-0.00354172
0.0110803
-0.0255236
-0.0808083
-0.0218585
-0.043908
-0.016115
0.0268226
-0.0228407
-0.0394115
-0.0291693
-0.0914958
-0.115945
0.0609303
-0.082619
-0.072446
-0.0350477
-0.0696322
-0.110779
0.0333883
-0.0698585
-0.0252903
-0.0438421
-0.102421
-0.0305804
-0.0446518
-0.0270588
-0.0699713
0.0484723
-0.0114975
-0.0843207
0.0558691
-0.00277987
-0.0760119
-0.0654607
7.39339e-05
-0.0772633
0.0723792
0.00510673
-0.0696892
-0.0634143
0.00127778
-0.0538036
-0.0603139
-0.0209294
0.0466733
0.0641234
-0.0662064
0.0464785
0.0592829
-0.00763643
0.0601973
-0.063947
-0.0204568
0.058852
0.057542
0.0607333
9.58915e-05
-0.0601109
0.00865261
0.0470163
-0.0454897
0.00612238
0.0546634
-0.0461947
0.0235776
0.0036532
-0.0282156
0.000906169
-0.00796804
-0.0180433
0.0263671
-0.0200858
0.0120102
0.000856485
-0.0253472
-0.00505339
-0.0171713
-0.010019
-0.00383859
-0.0142938
-0.0166588
0.0100024
-0.0165412
0.0262793
0.0233586
-0.0170202
-0.0346421
0.0333118
-0.0109581
0.0447624
0.0434129
-0.00163238
-0.0353067
0.0183276
0.00294828
-0.0361137
0.0284183
-0.0240298
-0.0249977
0.0337089
0.0567034
0.0342053
0.0169229
-0.126228
0.0383434
0.0265313
0.0804413
-0.173339
-0.106077
0
-0.0601455
0.0743913
-0.207775
-0.0870327
-0.108501
-0.0255119
-0.0209661
-0.0720903
-0.0148021
0.00372998
0.0235464
-0.102083
0.000825836
0.0282317
0.0310971
-0.144186
0.0519748
0.0180235
-0.0526206
-0.141854
0.0375762
0.023013
0
0
0
0.122527
-0.116812
-0.0472165
-0.367411
-0.0384843
-0.153874
-0.119541
-0.0910075
0
0
-3.6505e-05
8.07575e-05
0
0
2.34089e-05
-1.97241e-05
-2.0378e-05
0
-1.79265e-07
0
-0.193406
0
0
0
0
0
0
0
0
0
0
0
0
0
0
0
0.00371332
-0.00318288
-5.7087e-05
0
0
0
0
0
0
0
0
0.00412848
0
-0.00198586
0
-0.0032043
0
0
0
0
5.08704e-06
0
-2.88247e-05
0
0
0
0
0
0
0
0
0
2.10603e-05
-4.79934e-05
-1.97263e-05
0
2.09221e-05
0
3.20815e-06
-0.000140827
8.81699e-05
0
-8.72065e-05
0
0
0
0
8.20939e-06
0
-5.75335e-05
0
-1.05929e-05
-1.85794e-05
0
0
0
0
0
0
0
0
0
0
0
0
0
0
0
0
0
0
0
0
0
-4.38312e-06
0
6.27498e-06
0
0
0
-3.86734e-05
0
0
0
0
0
0
0
0
-0.0253596
-0.0286903
-0.0519679
-0.00921731
-0.0103516
-0.0285359
-0.0108597
0.0100606
0.00318763
0.0227173
-0.0182835
-0.00142588
-0.0174338
0.0119837
-0.0663158
-0.0224835
-0.0252026
-0.0349459
-0.0567135
0.0062982
-0.0153844
-0.0379326
-0.0100778
-0.0134126
0.000163838
-0.0641622
-0.00179266
-0.0272145
0.0143624
-0.00770901
-0.02336
0.0514913
-0.00957408
-0.0259562
-4.9169e-05
7.31171e-05
0.0151442
0.0115052
-0.0211323
0.00612161
0
0
0
0
0
0
0
0
0
0
0
0.262097
0.241339
-0.0252818
0.282507
0
0
0
0
0
0
0.0869227
-0.0159338
-0.104842
0
0
0
-2.92728e-07
0
5.72922e-07
0
2.79543e-07
0
0
0
0
-0.0331045
0
-0.0596156
-0.00173483
-0.0726569
-0.0158596
0.113492
0.257334
0.0125552
0.0747551
0.133055
0.0208183
0.0045754
0.00888493
-0.0217188
0.00990625
0.0950148
-0.0492473
-0.0457125
0.0501889
0.0799816
-0.0749305
-0.0209955
-0.106815
-0.0710596
-0.00562372
-4.31513e-08
0
0
7.18314e-07
0
-7.74208e-06
0
0
0
0
1.23875e-08
0
-2.18531e-06
0
2.20223e-06
0
0
0
0
0
0
0
6.92959e-05
0
1.3395e-05
-4.98532e-05
1.93909e-05
3.07538e-05
0
0
0
0
0
0
0
0
0
0
0
0
0
0
0
0
-9.66009e-06
4.58572e-05
0
0
0
0
0
0
0
0
0
0
0
0
0
0
0
0
0
-2.00035e-05
0
2.29245e-05
0.00886623
-0.0117402
0.00350672
0.0019612
0.0273046
0.000842539
0.00938079
0.0150363
-0.00119795
0.0242325
0.0121894
-0.0171449
-0.0341263
0.0201684
-0.0175192
0.0159082
0.030529
0.0235587
0.0043984
0.00192561
0.0257787
-0.0217342
0.0147671
-0.0184638
0.0176557
-0.0225337
-0.0613306
-0.0298638
-0.036567
-0.12055
0.107764
-0.0244295
-0.0886326
-0.077576
0.00060835
-0.102362
0.116836
-0.0378479
0.0965902
-0.122473
-0.00948583
-0.0834306
0.0658622
0.0310498
-0.0771421
-0.116677
-0.0317242
-0.0622222
-0.0438773
-0.0285056
-0.0580604
0.00651948
-0.0341267
-0.0247753
0.00202097
0.000139053
-0.0633059
-0.0660069
-0.0248029
-0.0675298
0.0343603
-0.0100928
-0.0660874
0.0278409
-0.017901
-0.0569806
-0.0339881
-0.015355
-0.0499606
-0.0374579
0.00680655
-0.0282053
-0.0578104
-0.0259784
-0.0334864
0.00141545
-0.00778506