/*--------------------------------*- C++ -*----------------------------------*\
  =========                 |
  \\      /  F ield         | OpenFOAM: The Open Source CFD Toolbox
   \\    /   O peration     | Website:  https://openfoam.org
    \\  /    A nd           | Version:  8
     \\/     M anipulation  |
\*---------------------------------------------------------------------------*/
FoamFile
{
    version     2.0;
    format      ascii;
    class       volScalarField;
    location    "2940";
    object      alpha;
}
// * * * * * * * * * * * * * * * * * * * * * * * * * * * * * * * * * * * * * //

dimensions      [0 0 -1 0 0 0 0];

internalField   nonuniform List<scalar> 
526318
(
0.000467295
0.0006253
0.000259228
0.000315324
0.000287131
0.000783583
0.000271873
0.000568849
0.000184795
0.000502297
0.00045358
0.000649307
0.000250378
0.000603811
0.000206929
0.000470712
0.000527231
8.97131e-05
0.000331907
0.000338011
0.000850952
0.000925195
0.000363261
0.000361224
0.000699667
0.000606812
0.000495707
6.71005e-05
0.000130884
0.000366776
0.000130223
0.000230943
8.985e-05
0.000633697
0.000385086
0.00108597
0.000301337
0.000409828
0.000796236
0.00077684
0.000776018
0.000531442
0.000625544
0.000681072
0.00133244
0.000431632
0.00109045
0.00103579
0.000652436
0.000350037
0.000902333
0.000675608
0.000310333
0.000771907
0.00575844
0.000938561
0.000897777
0.00715391
0.000302338
0.000441514
0.000429021
0.000322183
0.000352305
0.000345261
0.000294337
0.000495715
0.000430098
0.000178653
0.00036374
0.000232716
0.00019152
0.00031587
0.000399089
0.000487421
0.000226317
0.000901058
0.000394565
0.00036374
0.000288454
0.000331791
0.000182504
0.000238209
0.000550241
0.000293024
0.000370181
0.000141443
0.00015183
0.000402262
0.000364567
0.000170314
0.000125231
0.000150226
0.00039792
0.000253428
0.000375766
0.000212611
0.000209648
0.000350837
0.000188234
0.000118999
0
0
0
0.0284505
0.00715982
0
0.00109849
0.000650138
0.000369538
0.000673809
0.000352474
0.000328288
0.000191766
0.000196568
0.000229594
0.000481852
0.000454685
0.000170623
0.000353022
0.000415028
0.000301828
0.000240688
0.000270173
0.000529701
0.000136265
2.41275e-05
0.000419175
0.000442314
5.52197e-05
0.000181873
0.000666867
0.000360565
7.25464e-05
0.000251761
0.000531891
0.00122133
0.000354522
0.000488003
0.000453549
0.000277377
0.000730698
0.000618751
0.000786657
0.000304854
0.000679056
0.000919209
0.00053909
0.000369625
0.000908404
0.000703811
0.000371628
0.000674329
0.000825072
0.000206133
0.00148257
0.00113519
0.000785533
0.000496831
0.000889902
0.00108059
0.000440362
0.00285111
0.000894382
2.17699e-05
0.000271834
0.000252876
5.02274e-05
0.000630885
0.000258665
0.000792826
0.000983365
0.000146479
0.000296729
0.000393589
7.23905e-05
0.000218706
0.000378093
0.00028777
0.000298129
0.000208672
0.0002654
0.000338437
0.000398308
0.00053458
0.000542856
0.000937442
0.000811917
0.000814636
0.000689559
0.000593973
0.000440241
0.000234099
0.000507321
0.000298289
0.000443738
0.000866821
0.000968564
0.0012104
0.00107027
0.000867236
0.00109065
0.000223628
0.00105503
0.000683019
0.000925756
0.00116901
0.00230613
0.000827425
0.000743223
0.00195253
0.000540764
0.00101183
0.000722105
0.00124842
0.00150871
0.000238233
0.000167646
0.000789739
0.000797761
0.00150729
0.000138204
0.00138283
0.000610303
0.000855781
0.000709273
0.000322767
0.000110642
0.000490462
0.000858262
0.133315
0
0.00713519
0.00126377
0
0
0
0
0
0
0.000377232
0.00033259
0.000256173
0.000533946
6.36038e-05
0.00027186
0.000272136
0.0003048
0.000427741
0.00047737
0.000536931
0.000127712
8.58742e-05
0.00038905
0.000302337
0.000423776
0.000257472
0.000340998
0.000256559
0.000412478
0.000264004
0.000229825
0
0
0
0
0.0179384
0
0
0.00692228
0.000478689
0.000624675
0.00035799
0.000149821
0.000151404
0.00031242
0.000259269
0.000410112
0.000151765
0.000268011
0.000470959
0.000204334
0.000451887
0.000257231
0.00014394
0.000434925
0.000780378
0.000101007
0.000558059
0.000521167
0.000546865
0.00142726
0.000553729
0.000535291
0.00154194
0.00136621
0.00210687
0.000767884
0.000520504
0.000894449
0.00163014
0.00185115
0.00321095
0.00223655
0.00129086
0.000831082
0.00128544
0.000202567
0.00149443
0.000811943
0.00129825
0.00173117
0.00160716
0.00355798
0.00123448
0.00323664
0.0026982
0.00219033
0.00108977
0.00127386
0.000630184
0.000374974
0.000685551
0.000458429
0.000776955
0.000853276
0.000339301
8.79452e-05
0.000636778
0.000284299
0.000222522
0.000136704
0.000246157
0.000380379
0.000382486
0.000221614
0.000260939
0.000837811
0.000669053
0.000845563
0.000967733
0.00114501
0.000686896
0.000924533
0.000854448
0.000989576
0.000804798
0.000892723
0.000820841
0.000634757
0.00082791
0.000317479
0.00108295
0.000533713
0.00060256
0.000683917
0.000380017
0.000807854
0.000643702
0.000773576
0.00213635
0.000552211
0.000616316
0.000975118
0.000790557
0.00108277
0.000753109
0.000672088
0.000145404
0.000320494
0.00118187
0.000570335
0.000403864
0.000606108
0.000970014
0.000811086
0.00043602
0.000355202
0.000684727
0.000459083
0.000662809
0.00157589
0.00191005
0.000633475
0.00109818
7.90537e-05
0.000841498
0.000634403
0.000312721
0.0035773
0.00374474
0.00161258
0.00261908
0.00121689
0.000680516
0.000847322
0.000697233
0.000988695
0.000348299
0.000777397
0
0
0.00686989
0
0.00495031
0.0152451
0
0.221463
0
0
0
0
0
0
0
0
5.16343e-05
0.000400447
0.000196473
0.000300851
0.0002327
0.000449557
0.000424914
0.000356394
0.000546046
0.000133458
0.000220199
0.000438036
0.00028218
0.000352561
0.000342814
0.000431571
0.000142602
7.13227e-05
0.000326571
0.000222298
0.00041102
0.000169298
0
0.00400849
0
0
0
0
0
0
0.00176949
0.00734843
0
0
0
0
0.00729815
0
0
0
0
0
0
0.0413266
0.0120417
0.017395
0.000422907
0.00328012
0.000295486
0.000320072
0.000250386
0.000233221
0.0002037
9.89043e-05
7.6369e-05
0.000319863
0.000269221
0.000396817
8.35373e-05
0.000280271
0.000767341
0.000527916
0.000457435
0.000515281
0.000112262
0.000354437
0.000195782
0.00100844
0.00129306
0.000475592
0.00124446
0.00151778
0.00166081
0.000700012
0.00116452
0.00136831
0.00392531
0.00201422
0.00397378
0.00134261
0.00149067
0.00421544
0.00182136
0.00356281
0.0024565
0.00204021
0.0056467
0.00679148
0.00632925
0.00275861
0.00730587
0.000970151
0.00119861
0.00085417
0.00129303
0.00133
0.00047011
0.00119061
0.000951001
0.00108075
0.000628539
0.00128708
0.000943131
0.00210665
0.00115047
0.000918409
0.00117943
4.87649e-05
0.000102182
8.5744e-05
8.80151e-05
0.000204198
0.000502958
0.000334398
0.000387777
0.000376298
8.42574e-05
0.000136383
0.000566812
0.000706717
0.00116852
0.00147677
0.000732918
0.0027961
0.00520638
0.00151483
0.00117653
0.000850608
0.00174363
0.00166095
0.00251072
0.00120724
0.00161326
0.00130417
0.000741571
0.000679707
0.000824942
0.000738923
0.000678106
0.00127696
0.0010197
0.000908255
0.00156724
0.000520282
0.00123675
0.000589145
0.000151293
0.00121772
0.000121392
0.0010965
0.000976665
0.000393598
0.00125829
0.000206775
7.5798e-05
0.000165237
0.000478641
0.0006161
0.000382936
0.000483169
0.000575798
0.000689147
0.000698265
0.000656279
0.000740019
0.000357696
7.26016e-05
0.000679049
0.000302135
0.000327615
0.00149602
0.000661834
0.00136537
0.000227083
0.000597573
0.000758282
0.000887277
0.0051486
0.00388185
0.00157595
0.000836301
0.000488975
0.000622102
0.000982877
0.00147617
0.000915761
0.00401416
0
0
0
0
0.0115606
0.00604133
0
0
0
0
0
0
0
0
0
0
0
0
0
0
0
0
0
0
0
0
0.00777664
0
0
0.000621305
0.00304385
0.00849573
0
0
0
0
0
0
0
0
0
0
0
0
0
0
0.000214111
0.000217064
0.000130109
0.000418451
0.000423206
0.00026326
0.000738848
0.000441866
0.000415019
0.000830977
0.000671362
0.00029976
6.11862e-05
0.000386807
0.000130298
0.000161357
0.00027384
0.000240713
0.000203955
0.000162211
0.000469879
0.000196082
0
0
0
0
0
0
0
0
0
0
0
0
0
0
0
0
0
0
0
0
0
0
0
0
0
0
0.0320484
0
0
0
0.00301638
0
0.00619428
0.00297326
0.000509567
0.00145626
0.000261989
0.000205967
0.00042678
0.000166399
0.000149568
0.000291144
0.000341853
0.000382323
0.000144082
0.000268441
0.000218549
2.82404e-05
0
0
0
0
0
0
0
0
0
0
0
0
0
0
0
0
0
0.000301683
0.00044957
0.000337909
0.000136663
0.000434725
0.000569795
0.000987717
0.00109245
0.00110168
0.000930926
0.0016938
0.00124262
0.0026347
0.00401564
0.0088169
0.00101511
0.00349065
0.00269133
0.00310169
0.00129241
0.00411269
0.00403323
0.00640317
0.00434322
0.00246783
0.0043135
0.008308
0.0110006
0.0191982
0.0363107
0.0626691
0.0425301
0.00038024
0.00062443
0.000626652
0.000450552
0.00077452
0.000712363
0.000514896
0.000316052
0.000365244
0.000565545
0.00063618
0.000840888
0.00118199
0.000720379
0.00123917
0.00164138
0.00104029
0.000198489
0.00456682
0.00513478
0.000893573
0.000692378
0.000721754
0.000355799
0.000590963
0.000442344
0.000415174
0.000388107
5.59573e-05
0.000204269
0.000639061
0.000974277
0.000864558
0.000791099
0.00187742
0.00474827
0.0033382
0.00641944
0.0306689
0.00876014
0.00901725
0.00506595
0.00449125
0.00730568
0.00348896
0.00163005
0.000718073
0.000576399
0.000822786
0.000460294
0.000302385
0.000878897
0.00140792
0.000881107
0.000367717
0.00121978
0.000326452
0.00011081
0.000457718
0.000116418
0.000863043
0.000129592
9.37834e-05
0.00061122
0.000168259
0.00117104
0.000305453
0.000537636
0.000576976
0.000730132
0.000664144
0.000725613
0.00065996
0.000542376
0.000554547
0.000931518
0.000370135
0.000700457
0.000404417
0.000711459
0.000576076
0.000401711
0.000330003
0.000319147
0.000422697
0.000485362
0.000423961
0.000562462
0.000410958
0.000431424
0.000367243
0.000379183
0.000339148
0.000370474
0.000312605
0.000396061
0.00028076
0.00034325
0.000152854
0.000146061
0.000155804
0.000129832
0.000159567
0.000155699
7.22665e-05
0.000120274
0.000188641
0.000184016
0.000225638
0.000158656
0.000258634
0.000202799
0.00016824
0.000228928
0.000174826
0.000221018
0.000182775
0.000195051
0.000236829
0.000237176
0.000243127
0.000714878
0.00042278
0.00027145
0.000624882
0.000905618
0.000639482
0.0010379
0.00137635
0.000898428
0.0135703
0.00602705
0.0017525
0.003093
0.0194283
0.00674516
0.0082238
0.00144279
0.00145546
0.00380414
0.00560832
0.00704232
0.0163061
0.000281237
0
0.0160432
0
0
0
0
0
0
0
0
0
0.0140649
0
0
0
0
0
0
0
0
0.016117
0
0
0
0
0
0
0
0
0
0
0
0
0
0
0
0
0
0
0.0131305
0
0
0.0200846
0
0.00572448
0
0.00544145
0.010557
0.000545539
0
0.0197429
0.00830617
0
0
0.0138045
0
0
0
0
0
0
0
0
0
0
0
0
0
0
0.0124233
0
0
0.000372342
0.000122323
0.000241893
0.000284972
0.000504822
0.000297389
0.000992183
0.000199495
0.000369006
0.000431348
0.000348694
0.000584165
0.000228866
0.000127662
0.000390702
0.000128724
0.00042474
9.01861e-05
0.000151901
0.000197857
0.000316466
0.000154909
0
0
0.0338508
0.0144943
0
0
0
0
0
0
0
0
0
0
0
0
0
0
0
0
0
0
0.02077
0.0142332
0
0
0
0.00383807
0.000654061
0.00708259
0.000630246
0.000393781
0.000206679
0.000364822
0.000181096
0.000212035
0.000209119
0.000306201
0.000510909
0.000101722
0.000286234
0.000205312
0.000450815
0.000405813
0.00671185
0
0.146079
0
0
0.000425026
0
0
0.000301531
0
0
0
0
0
0
0
0
0
0
0
0
0
0
0
0.0150644
0
0.000228375
0.000474049
0.000861027
0.000212396
0.00193815
0.000702809
0.00162857
0.00332476
0.0018033
0.00152789
0.00664498
0.00578379
0.00733935
0.00588568
0.0099477
0.0119087
0.00539806
0.00227807
0.00323912
0.00272233
0.446151
0.0752422
0.00291306
0.0145233
0.0287794
0.0333538
0.549164
0
0
0
0.320714
0.299825
0.000449164
0.000608713
0.000697928
0.000865556
0.000701115
0.000845305
0.000515918
0.000673108
0.000448422
0.00043369
0.000477211
0.000656581
0.000390008
0.000367929
0.000345466
0.000219796
0.000198277
0.000125535
0.000217097
9.66738e-05
0.000148033
0.000191205
0.000195132
0.000168904
0.000273543
0.000246608
0.000234363
0.000210525
0.000170454
0.000182853
0.000748688
0.000877294
0.000817477
0.000865936
0.00210905
0.000747954
0.0018811
0.00107692
0.00408441
0.00281291
0.00707841
0.00101631
0.00274271
0.000403387
0.000461666
0.000429746
0.000209544
0.000332033
0.0002583
0.00236896
0.00189959
0.00846746
0.00506431
0.00416563
0.0110572
0.0507965
0
0.124517
0.0138875
0.0191295
0.070871
0.0107967
0.0025539
0.00668168
0.000785211
0.00224053
0.000950489
0.00110735
0.000344964
0.000358361
0.000404192
0.000482149
0.000653318
0.000766269
0.000866118
0.0007772
0.00077065
0.000968377
0.000470452
0.000650092
0.000726616
0.000174981
0.000406656
0.000413306
0.000387595
0.000888531
0.000805451
0.000164718
0.000583367
0.000683904
0.000615585
0.000452475
0.000624012
0.000522924
0.000521009
0.000357392
0.000404924
0.00044687
0.000459955
0.000556672
0.000389881
0.000356567
0.000373184
0.000335667
0.000362075
0.000377729
0.000310784
0.000197717
0.000137637
0.000186059
7.30924e-05
0.000191022
0.000127649
0.000230967
0.00020119
0.000216856
0.00025834
0.000171546
0.000179593
0.000241903
0.000215905
0.000209112
0.000234792
0.000208793
0.000240247
0.000264721
0.00023797
0.000249573
0.000216887
0.000223093
0.000239708
0.000245935
0.000208478
0.00348176
0.00283615
0.00209348
0.000689283
0.000442782
0.000594665
0.000499151
0.000296753
0.0001594
0.000905959
0.00126044
0.0130314
0.00713397
0.0027053
0.00114169
0
0
0.0131435
0
0.0196266
0.0184459
0.0242384
0.0163739
0.0167428
0.0363662
0
0
0
0
0.0106874
0.0082034
0
0
0
0.020255
0
0
0
0
0
0
0
0.016567
0
0
0
0
0
0
0
0
0.00086532
0
0
0
0.00644096
0
0
0
0
0
0
0
0
0
0
0
0
0
0
0
0
0.0131102
0
0.00749879
0
0
0
0
0
0
0
0
0
0
0.000135877
0.000479409
0.000314428
3.48419e-05
0.000695051
0.000268918
0.000737965
0.000595214
0.000513422
0.000737881
0.000463446
0.000562206
0.000291838
0.000276041
0.000315401
0.000596895
0.000351754
0.000442886
0.000213048
7.51682e-05
0.000121494
0.000236991
0.116068
0
0.033031
0
0
0
0
0
0
0
0
0
0
0
0
0
0
0
0
0
0
0
0
0.0270673
0
0
0.00576405
0.00303512
0.000505688
0.00205065
0.000154479
0.000178067
0.000106286
0.000295065
0.00026919
0.000302971
0.00038497
1.51761e-05
0.000690439
0.000331988
0.000293336
0.000431442
0.000126244
0.000509766
0
0
0
0
0
0
0
0
0
0
0
0
0.0128758
0
0
0
0
0
0
0.000819608
0
0.000807815
0
0
0
0
0
0
0
0
0
0.000280355
0.00110271
0.00117994
0.00141988
0.00144851
0.0021607
0.00538829
0.00366205
0.000565366
0.00116943
0.00143793
0.0141114
0.0344274
0
1.0592
0.00507941
0.00322746
0.0113379
0.0161192
0.00534169
0.0110944
0.00136323
0.0133646
0.0922146
0.533155
0.109272
0.0114475
0
0
0
0
0
0
0
0
0.000167244
0.000159813
0.000120513
0.000180358
0.000159824
0.000166731
0.000137823
0.000161312
0.000137726
0.000153383
0.000183733
0.000142991
0.000101351
0.000175006
0.000236547
0.000236011
0.000190111
0.000199847
0.000229201
0.000226415
0.0002332
0.000180567
0.000203312
0.000231897
0.000215276
0.000210897
0.000219253
0.00021946
0.00022247
0.000262595
0.000206868
0.000232122
0.000231712
0.00022623
0.000243327
0.000495479
0.000625511
0.000600475
0.000577764
0.000514626
0.000587752
0.000567622
0.000625719
0.000504059
0.000361135
0.000582832
0.00036069
0.000367781
0.000389246
0.000276703
0.00017187
0.000140461
0.000144744
0.000101864
0.000119475
0.000108942
0.000155375
0.000154903
0.000145378
0.000166153
0.000166087
0.000193927
0.000103089
0.00108643
0.00109136
0.00133582
0.00141347
0.00188655
0.000813569
0.000389129
0.00149004
0.000661417
0.00194036
0.00497212
0.00021896
0.000211747
0.000237505
0.000210509
0.000212164
0.000177144
0.000181866
0.000155916
0.000165601
0.000136044
0.000165098
0.000138714
0.000152808
0.000176492
0.000137637
0.000178402
0.000156482
0.00012221
0.00436948
0.026615
0.0143852
0.000750489
0.00452318
0.000765915
0.00260498
0.00164479
0.00579847
0.0103499
0.00551209
0.00626397
0
0.0573348
0
0
0
0
0.0106943
0.071022
0
0.00391219
0.0109707
0.00478097
0.00457964
0.00282694
0.000487442
0.00093127
0.00119084
0.000574354
4.98299e-05
0.000983766
0.000445068
0.000395567
0.000248633
0.00034327
0.000384783
0.000287197
0.000780404
0.000492308
0.000462347
0.000457125
0.000388721
0.000409149
0.000310355
0.000486693
0.000701749
0.000255568
0.000465341
0.000509648
0.000488185
0.00045987
0.00019526
0.0003057
0.000450515
0.000408336
0.00026961
0.000627756
0.000333864
0.000424473
0.000326376
0.000328834
0.000337074
0.000366671
0.000316968
0.000171908
0.000123503
0.000150336
0.000103871
0.000202433
0.000223373
0.0001118
0.000156773
0.000231064
0.000201762
0.000180303
0.000165057
0.000219452
0.00022664
0.000167787
0.000183049
0.000178492
0.000211243
0.000175665
0.000197514
0.00455966
0.00352107
0.00606479
0.00976618
0.00763785
0.00487909
0.0487908
0.00357883
0.00617413
0.275352
0.032207
0.0215629
0
0.0084192
0.0213129
0
0
0
0
0.00989091
1.30128
0.205257
0.568598
0
0
0
0
0
0.00921129
0.00985624
0.0114777
0
8.5688e-05
0
0
0
0
0
0
0
0
0
0.0338233
0
0
0
0
0
0
0
0
0.213638
0
0.000793212
0
0
0
0
0
0
0
0
0
0
0.00746837
0
0
0.00937726
0
0
0
0
0
0
0
0
0
0
0.0272393
0
0
0
0
0
0
0
0
0
0
0.00745759
0
0
0
0
0.00685871
0.000148229
0.000240623
0.000182189
0.00015041
0.000122994
0.000181293
0.000578422
0.000497416
5.9212e-05
0.000461222
0.000699581
0.000606547
0.000891546
0.000691533
0.000685222
0.00045423
0.000175851
0.000294939
0.000172495
6.97117e-05
0.000112403
0.000893086
0.000118463
9.69902e-05
0.0001258
0
0
0
0
0.0128672
0
0
0
0
0
0
0
0
0.0088397
0.00349955
0.00316553
0
0
0
0
0
0
0
0
0
0
0
0.000882466
0.000653131
0.000350737
0.000196949
0.000321213
0.00075874
0.000491982
0.000291777
6.06671e-05
0.000491767
0.000490385
0.000594512
0.000426782
3.45903e-05
0.000670736
0.000269269
0
0.00411109
0
0
0
0
0
0
0
0
0
0
0
0
0.0219277
0
0
0.0019828
0
0.0267893
0
0
0
0.0218141
0
0
0
0
0
0
0.00712755
0
0
0
0
0
0
0.00116006
0.000568931
0.000997404
0.00102317
0.00138844
0.00145084
0.00131724
0.0205185
0.0120232
0.364996
0.406831
0.00155301
0.00268095
0
0
0
0.0618041
0.0367548
0.679879
0.0389736
0
0.00495214
0.0241236
0.0108163
0.00543027
0
0
0
0
0
0
0
0
0
0
0
0
0.000188687
0.000149274
0.000150672
7.81386e-05
0.000189163
0.00014285
0.000247825
0.000227329
0.000251255
0.00019364
0.000232422
0.000214502
0.000208446
0.000225381
0.000155341
0.000248957
0.000209872
0.000224662
0.00024461
0.000264977
0.000263816
0.000221679
0.000504116
0.000628313
0.000539704
0.000502738
0.000592908
0.000786543
0.000519036
0.000589436
0.000442668
0.000310517
0.000427433
0.000520224
0.000410498
0.000274455
0.000428505
0.000446425
0.000301522
0.000262671
0.000162575
0.000137988
0.000100366
5.05462e-05
4.85574e-05
7.72588e-05
0.0001126
0.000111123
0.000133604
0.000164138
0.000136272
0.000122854
3.97159e-05
0.00081493
0.00112436
0.000853315
0.000858207
0.000623055
0.00100184
0.000607414
0.000471419
0.000672784
0.000866953
0.00414881
0.00176691
0.00020215
0.00021978
0.000206381
0.000201428
0.000222251
0.000215773
0.000177562
0.000148728
0.000171038
0.00014405
0.000100623
0.000128915
0.00014367
0.000146074
0.000161665
0.000169814
0.000133989
0.000123201
0.000175717
0.000163744
0.000182254
0.00017532
0.000125501
0.0001744
0.000120214
0.0209369
0.0356373
0.01887
0.0469533
0.00458405
0.00762584
0
0
0.106018
0
0
0
0
0.00948534
0
0.00429812
0
0
0.415517
0
0.00460739
0.0383704
0.0105428
0.0321655
0.00149392
0.00102649
0.00224741
0.00380039
0.00161284
0.0018124
0.00109593
0.00114556
0.000214539
0.000523461
0.000352094
0.000473004
0.000337303
0.000621561
0.00016278
0.000431008
0.00011871
0.000528252
0.000546947
0.000443668
0.0004397
0.000411898
0.000255816
0.000297889
0.000339996
0.000112496
0.000358879
0.000493754
0.000334944
0.0003074
0.000407799
0.000758647
0.000369183
0.000476722
0.000311385
0.000266037
0.000324412
0.00029877
0.000114737
0.000113299
0.000125219
0.000182873
0.00013501
0.000144387
0.00020914
0.000216927
0.000120223
0.000138602
0.000200673
0.000130635
0.000184495
0.000156287
0.000155868
0.000157436
0.000195662
0.000175618
0.000149737
0.000170303
0
0
0
0
0.0369853
0.0182235
0.0413657
0.0881726
0.0644544
0
0
0
0
0
0
0
0
0
0
0
0
0
0
0
0
0
0
0
0.0139121
0.00544178
0
0
0
0
0
0
0
0
0
0
0
0
0.0486681
0
0
0
0
0
0
0
0
0.147857
0
0
0
0.00466883
0.00556359
0
0
0
0
0
0
0
0.011279
0.0135069
0
0
0.00552595
0.01141
0
0
0
0
0.0121086
0
0.0199952
0
0
0
0
0.00920459
0.00764921
0.00789731
0
0
0
0
0
0
0
0
0
0
0.00676407
0
0
0
0
0
0
0
0
0.000267413
8.93802e-05
0.000119241
0.000181795
0.000157458
0.000121184
0.000153873
0.000152129
0.00013259
0.000207901
0.000494807
0.000611876
0.000859279
0.000436523
0.000710981
0.0005821
0.00047376
0.000171415
0.000369128
0.000219321
8.04951e-05
0.000209724
0.000116537
4.5249e-05
0.00104628
0.000212952
0.000329639
0
0
0
0
0
0
0
0.00685626
0.000309343
0.00281164
0
0
0
0
0
0
0
0
0
0.000997021
0
0
0
0
0
0.000584618
0.000610873
0.000343655
0.000744683
0.000485199
0.000261148
0.00045541
0.000711078
0.000488132
0.000140498
0.000237276
0.00040034
0.000460156
0.00117168
0.000554986
0.00038535
0
0
0.00248071
0.0131463
0
0
0.01329
0.0023738
0
0
0
0.0195466
0
0
0
0.0193009
0.0207394
0.0026881
0
0
0
0.00414104
0
0
0
0.0309951
0
0
0
0
0
0
0
0
0
0
0
0
0
0
0
0
0
0
0
0.000328238
0.000651953
0.00053483
0.0020036
0.00259941
0.00249606
0.00250957
0.0149224
0.00406005
0
0
0.021236
0.0364197
0.0152934
0.0226747
0
0
0
0
0
0
0
0.119622
0.00370766
0.0152326
0.00581775
0.0147488
0
0
0
0.00943813
0
0
0
0
0
0
0
0.00681052
0.000162065
0.000195958
7.08415e-05
0.000185678
0.000227202
0.000154391
0.000479823
0.000294715
0.00053781
0.000371704
0.000444669
0.000475863
0.00015499
0.000243291
0.000257276
0.000249587
0.000235321
0.000215135
0.000260083
0.000185183
0.000246592
0.000287775
0.000243324
0.000184832
0.000262872
0.000287855
0.000283227
0.00028844
0.000625968
0.000632015
0.00073106
0.000544121
0.000802578
0.000573266
0.0006395
0.000755788
0.000471461
0.000438649
0.000542071
0.000510265
0.000290121
0.000260773
0.000299341
0.000386734
0.000162709
0.00015914
0.000107084
8.20593e-05
4.50532e-05
4.41145e-05
0.000103333
7.00474e-05
2.95613e-05
0.000151366
0.000126684
0.000169088
0.000110901
9.28278e-05
0.000517351
0.000602361
0.00091672
0.000757235
0.000693922
0.000673857
0.000570039
0.000814239
0.000397065
0.000893879
0.00105789
0.00138152
0.000205094
0.000158149
0.00018908
0.000143552
0.000180876
0.000200671
0.000132751
0.000155823
0.000146795
0.000162433
0.000133939
0.000104612
0.000142675
0.000130185
9.78463e-05
0.000164182
0.000128405
0.000131103
0.000154499
0.000112502
0.000122717
0.000156455
0.000140893
0.000141737
0.000132029
0
0
0
0
0
0
0
0
0.00995821
0
0
0
0
0
0
0
0.000851484
0
0
0
0
0.0829428
0.00339635
0.0307185
0.00209629
0.0020997
0.00081648
0.00503036
0.000558561
0.0010311
0.000851614
0.000769528
0.000922297
0.000855054
0.000763939
0.000391532
0.000231307
0.000400249
0.000702107
0.000113165
0.00011734
0.000275984
0.000224688
0.000479656
0.000160867
0.000453511
0.000250639
0.000308611
0.000343009
0.000188951
0.000475561
0.000350971
0.000317144
0.000244923
0.000407347
0.000424156
0.000347941
0.000308557
0.000396699
7.49531e-05
0.000188444
0.00011756
0.00012934
0.000188947
0.000158025
0.00019577
0.000151232
0.000167233
0.000185973
0.000113148
9.58373e-05
0.000179712
0.000118531
0.000177929
0.000142939
0.000146189
0.000136399
0.000182384
0.000170786
0
0
0.136663
0.0006314
0
0
0
0
0
0
0
0.0111244
0
0.0116468
0.0116323
0.0168359
0.0034328
0
0.0186587
0.130953
0
0
0
0.00439792
0
0.00295527
0.00427725
0
0
0
0
0
0
0
0.0258399
0.00907293
0
0
0
0
0
0
0.0353654
0
0
0
0
0
0
0
0
0
0
0
0
0
0
0
0
0
0
0
0
0
0
0
0
0
0
0
0
0
0
0
0
0
0
0
0
0
0
0
0.0203411
0
0
0
0
0
0
0
0
0
0
0
0
0
0
0
0
0
0
0
0
0
0
0
0
0
0
0
0
0
0.00480908
0
0
0
0
0.000122188
0.000105343
0.000142853
0.000153665
0.000150433
0.000156068
0.000129754
0.000204566
0.000148514
0.00021516
0.000114001
0.00017443
0.000171095
0.000177201
0.000124891
8.19688e-05
0.000673299
0.000833048
0.000376632
0.000440486
0.000289428
0.000289084
0.000241586
0.000164871
0.000271017
0.000134867
0.0003882
0.000364039
0.00162417
0
0
0
0.00776167
0.00503789
0.000580241
0.00488745
0
0
0.00839001
0
0
0
0
0
0
0
0
0.107928
0
0
0
0
0
0.00033875
0.00040416
0.000169049
0.000525313
0.000521202
0.000668637
0.000595167
0.000556269
0.00037511
0.000927223
0.000521477
0.000320592
0.000204798
0.000142323
0.000930904
0.000214731
0
0.00389664
0
0
0
0
0
0.000370005
0
0
0.00212686
0
0
0
0
0
0
0
0
0.000305404
0
0
0
0
0
0
0
0
0
0
0
0
0
0
0
0
0
0
0.00432293
0.0243456
0
0
0
0
0
0
0
0
0
0
0
0
0
0
0
0
0
0.000367938
0.00147661
0.00145923
0.00390155
0.00410094
0.109972
0.291662
0
0
0
0.0113387
0
0
0
0
0
0
0
0
0
0
0.0143385
0.00482809
0.032328
0
0
0
0
0.0313455
0
0
0
0
0.00699839
0.00834526
0
0
0
0
0
0
0.000159276
0.000164504
0.000247275
0.000217979
0.00058957
0.000149343
0.000458605
0.000242298
8.60029e-05
0.000349577
0.000262176
0.000138981
0.000125933
0.000232679
0.000302528
0.000209959
0.000257034
0.000239225
0.000264236
0.000175283
0.000272711
0.000253582
0.000283368
0.000298394
0.000275703
0.000343048
0.000302725
0.000697145
0.000599752
0.000535133
0.000583913
0.000488969
0.000533983
0.000755904
0.000535903
0.000402092
0.000475517
0.000463745
0.000550224
0.000210386
0.000237526
0.000309358
0.00029604
0.000163073
0.000177082
6.42299e-05
9.52147e-05
8.40355e-05
7.55446e-05
0.000262828
0.000266619
0.000394367
0.000322179
0.00019232
0.000116313
0.000114297
0.000228577
0.000291154
0.000279974
0.000716296
0.00091582
0.000969542
0.000957502
0.000781638
0.000377271
0.000503433
0.000765049
0.00157761
0.00250481
0.0363643
0.0108172
0.00187769
0.000159042
0.000160826
0.000143111
0.000151363
0.000154158
0.00012861
0.000132142
0.000116727
0.000140796
0.000117687
0.000118666
0.000124138
9.88312e-05
0.000110777
8.93334e-05
0.000133824
0.000140167
0.000100724
0.000120196
0.000121533
0.000102876
0.000117632
0.000103596
0.000131021
0.000142914
9.20411e-05
0
0
0
0
0
0.00716675
0.014824
0
0
0
0
0.00571495
0.00635257
0
0
0
0
0
0.0104136
0
0
0.00652748
0.0048524
0.0101578
0.00593202
0.00353655
0.000175885
0.00430171
0.000956535
0.000755406
0.000682819
0.000527105
0.000794228
0.000823064
0.000453279
0.000676795
0.000435182
0.000473813
0.000167095
0.000144058
0.000360375
0.000349688
0.00024052
0.00038647
0.000270256
0.000323408
0.000271381
0.000324622
0.000361507
0.000226017
0.000313753
0.000600299
0.000188281
0.000317689
0.000223679
0.000444163
0.00036151
7.33694e-05
0.000247904
9.91709e-05
0.000130721
0.000176118
0.00015346
0.000174954
0.000141846
0.000128117
0.000138709
0.000124363
7.51561e-05
0.000184627
7.57119e-05
0.000184012
0.000123705
0.000178858
0.00014965
0.000124869
0.000172764
0.000129098
0
0
0.0166988
0
0
0
0
0.0364054
0
0.010239
0
0
0
0.0276519
0.00974663
0.0198411
0.00901356
0.014332
0.0100601
0
0
0
0
0
0
0
0
0
0
0
0
0
0
0
0
0.0225784
0
0
0
0.0517838
0
0
0
0
0
0
0
0
0
0
0
0
0
0
0
0
0
0
0.630891
0
0
0
0
0
0.00366118
0.00137261
0.0048832
0
0
0
0
0
0
0
0
0
0
0
0
0
0
0
0
0
0
0
0
0
0
0
0
0
0
0
0
0
0
0
0
0
0
0
0
0
0
0
0.00580669
0
0
0
0.00131067
0
0
0.0103291
0.0191077
0
0.000154167
0.000161007
0.000149463
0.000140333
0.000168451
0.000146845
0.000182049
0.000230247
0.000191222
0.000188891
0.000192619
0.000211619
0.000199973
0.000198928
0.000158752
0.000215529
0.000195883
0.000184413
0.000139909
0.000310483
0.000203034
0.000317457
0.000449284
0.000476834
0.000458952
0.000305228
0.000556625
0.000222855
0.000319549
0.000982085
0.000785099
0.000259019
0.00129202
0
0
0.00194632
0.00132878
0.00288504
0
0
0.0057747
0.00916246
0
0
0
0
0
0
0
0
0.0189166
0
0
4.94723
0
0
0
5.10168e-05
0.000309759
9.11016e-05
0.000448519
0.000790132
0.00127185
0.00045029
0.000500454
0.000260851
0.000236172
0.00036966
7.8415e-05
0.000192122
0
0
0
0
0
0
0.0105908
0.00163867
0
0
0.0063008
0
0
0
0
0
0
0.739337
0
0
0
0
0
0
0
0
0
0
0.0539751
0
0
0
0
0
0
0
0
0
0
0
0
0
0
0
0
0
0
0
0
0
0
0.0135068
0
0
0
0
0
0
0
0
0
0
0
0.00146927
0.0052197
0.00463693
0.0127398
0.0232604
0.395806
0.0566211
0
0.0255674
0
0
0
0
0
0
0
0
0
0
0
0
0
0
0
0.0125141
0
0
0
0.0829351
0.00543846
0.0298733
0
0
0
0.00473346
0
0
0
0
0
0
0
0
0.000606056
0.000329962
0.000253333
0.000180311
0.000922177
0.000353909
0.000186668
0.000121744
0.000159286
0.000124691
0.00013962
0.000146471
0.000185231
0.000117301
0.000299801
0.000226328
0.000290518
0.00019824
0.000239824
0.000222091
0.00039142
0.000249128
0.000316689
0.000245138
0.000207619
0.00022399
0.000329296
0.000302251
0.000614223
0.000527606
0.000370081
0.000666403
0.000310874
0.000523607
0.000501117
0.00065077
0.00044233
0.0004215
0.000525775
0.000497125
0.000167826
0.000196508
0.000217344
0.000365112
0.000135333
0.000183138
0.000104442
4.68974e-05
0.000267444
8.24281e-05
0.000255969
0.00034259
0.000325501
0.000297959
0.000183102
0.000157653
0.00017017
0.000209872
0.000857054
0.000400985
0.000369453
0.000880346
0.000230602
0.000387479
0.000599037
0.000594995
0.000868973
0.000750952
0.000983741
0.00163027
0.0051543
0.00102757
0.000116591
0.000146267
0.000147931
0.00015008
0.000114763
0.000127677
8.47271e-05
0.000118474
8.70365e-05
0.000109658
9.32225e-05
0.000125195
7.23653e-05
0.000100321
0.000129499
0.000115584
9.56391e-05
8.11951e-05
0.000124344
8.39354e-05
0.000144477
9.98292e-05
0.000114091
0.00012342
0.00015684
0
0
0
0
0
0
0
0
0
0.00661254
0
0
0
0
0
0
0.0150858
0
0
0
0
0.0167124
0.00394795
0.00332267
0.0097243
0.00321802
0.00280946
0.0016229
0.000633144
0.00160307
0.00136003
0.000797957
0.000601196
0.00136993
0.000766815
0.000141782
0.000473401
0.000199469
0.000284216
0.000113565
0.000462637
0.000323253
6.41463e-05
0.000436706
0.000118435
7.90315e-05
0.000226657
0.000293854
0.000125545
0.00012949
0.000360249
0.000225128
0.000204731
0.000198198
0.000231753
7.20261e-05
9.93932e-05
0.00018299
0.000116209
0.000111767
0.000155962
9.99457e-05
0.000113601
0.000103553
0.000104164
9.302e-05
8.98271e-05
0.00014012
0.000191319
5.11732e-05
0.000174206
7.25662e-05
0.000120557
0.000172594
0.000170941
0.000102227
7.92753e-05
0.000173972
0
0
0
0
0
0
0
0
0
0
0
0
0
0
0
0
0
0.0102843
0
0
0.00770287
0
0
0
0.000572283
0
0
0
0
0
0.000722653
0
0
0
0
0
0
0
0
0
0
0
0
0
0
0
0.0101179
0.0159071
0.0142526
0
0
0
0
0.00490432
0
0
0.00627082
0
0
0
0
0.0172077
0
0.00947729
0
0
0
0
0
0
0
0
0
0
0
0
0
0
0
0
0
0
0
0
0
0
0
0
0
0
0
0
0
0
0
0
0
0
0
0
0
0
0
0
0
0
0
0
0
0
0
0
0
0
0
0
0
0.00353749
0
0
0
0.0100288
0
0
0.000139747
0.000174266
0.00019151
0.00017689
0.000196231
0.000217423
0.000207532
0.000196883
0.000209693
0.000200822
0.000238818
0.000185428
0.000157752
0.000228091
0.00019399
0.000236741
0.000201609
0.000197002
0.000189188
0.000130768
0.000212072
0.000173206
0.000210312
0.000194171
0.000316026
0.000709528
0.000989037
0.000587053
0.000583718
0.000799251
0.00083475
0.00101157
0.000429809
0.0010558