/*--------------------------------*- C++ -*----------------------------------*\
  =========                 |
  \\      /  F ield         | OpenFOAM: The Open Source CFD Toolbox
   \\    /   O peration     | Website:  https://openfoam.org
    \\  /    A nd           | Version:  8
     \\/     M anipulation  |
\*---------------------------------------------------------------------------*/
FoamFile
{
    version     2.0;
    format      ascii;
    class       volScalarField;
    location    "6480";
    object      H;
}
// * * * * * * * * * * * * * * * * * * * * * * * * * * * * * * * * * * * * * //

dimensions      [0 1 0 0 0 0 0];

internalField   nonuniform List<scalar> 
526318
(
0.729888
0.686176
0.759001
0.673526
0.745446
0.697423
0.716003
0.63061
0.692039
0.573675
0.552111
0.670769
0.618449
0.660451
0.617999
0.642676
0.617807
0.814506
0.725969
0.767832
0.763178
0.71946
0.481085
0.724994
0.603934
0.469026
0.743009
0.739745
0.741254
0.753032
0.785182
0.828266
0.813
0.695424
0.699375
0.661045
0.674676
0.757913
0.681678
0.642308
0.692775
0.668686
0.331376
0.386525
0.292279
0.338255
0.315184
0.435904
0.616144
0.516062
0.604663
0.601903
0.554378
0.515525
0.0110752
0.260047
0.249593
0.0581597
0.771982
0.784039
0.807262
0.754114
0.70103
0.832574
0.822225
0.784879
0.771546
0.771762
0.673146
0.666044
0.779092
0.559762
0.612405
0.510669
0.46408
0.452061
0.550958
0.544554
0.46117
0.501314
0.584977
0.583385
0.533728
0.494644
0.517171
0.583036
0.588462
0.564123
0.517985
0.586522
0.494604
0.439354
0.434298
0.367425
0.363048
0.367309
0.366055
0.362928
0.3597
0.361237
7.97638e-05
2.15653e-06
0.000980873
0.000522795
0.000702374
0.000148343
0.271669
0.0854185
0.400519
0.362694
0.403314
0.522421
0.74559
0.63287
0.739924
0.759662
0.823136
0.792199
0.837633
0.356483
0.35686
0.359369
0.363289
0.317796
0.357031
0.268477
0.311901
0.219871
0.27093
0.219732
0.21973
0.20906
0.184931
0.173793
0.204363
0.147299
0.199547
0.148585
0.168948
0.11629
0.116676
0.143305
0.171339
0.155213
0.112542
0.111612
0.132809
0.115251
0.111487
0.123642
0.132268
0.118138
0.12643
0.128037
0.127616
0.0912114
0.121416
0.128292
0.0879147
0.0444779
0.128504
0.0799186
0.128091
0.627908
0.723177
0.66426
0.651609
0.453344
0.522773
0.45685
0.450227
0.449286
0.452472
0.47593
0.451195
0.388561
0.358123
0.325035
0.265942
0.323
0.367912
0.364619
0.367821
0.253841
0.304095
0.19161
0.201603
0.210416
0.202252
0.2022
0.205544
0.192846
0.199265
0.19524
0.18179
0.164328
0.186539
0.178866
0.149155
0.125443
0.159027
0.138099
0.129909
0.156636
0.140082
0.147124
0.105726
0.130841
0.155778
0.158874
0.606302
0.624859
0.654474
0.630089
0.607458
0.616314
0.606581
0.489392
0.527608
0.271889
0.25367
0.252943
0.373357
0.512035
0.384087
0.41812
0.422988
0.369058
0.347215
0.000525022
1.89859e-16
1.63746e-05
0.194239
0.00027704
9.76159e-09
0.000995694
0.000255125
0.000396609
0.000963311
0.823283
0.804541
0.853036
0.8439
0.810409
0.804884
0.715643
0.797325
0.642874
0.588179
0.588383
0.588474
0.587539
0.590621
0.572825
0.574133
0.49324
0.555645
0.37111
0.428966
0.354745
0.372734
0.00100536
4.55059e-11
0.000154997
0.00100202
0.000103589
0.000987509
2.17695e-06
0.000813997
0.370268
0.183858
0.419892
0.422256
0.53028
0.63615
0.751419
0.760248
0.795953
0.767449
0.83627
0.866961
0.334784
0.339633
0.299761
0.268167
0.167368
0.207181
0.129102
0.142033
0.130702
0.124809
0.111576
0.119658
0.0426101
0.0716889
0.103765
0.140425
0.191462
0.164047
0.122526
0.118155
0.057362
0.0487072
0.0953818
0.152841
0.0749322
0.113547
0.110769
0.082399
0.0802748
0.0467854
0.0404432
0.00425219
0.00515845
0.00986197
0.000972799
0.120708
0.155236
0.115479
0.159114
0.527773
0.48215
0.379448
0.464406
0.391537
0.438906
0.452607
0.441495
0.452108
0.45105
0.363249
0.279031
0.207208
0.190468
0.265825
0.206464
0.190742
0.303882
0.193829
0.244123
0.182357
0.184143
0.192985
0.182696
0.196902
0.192813
0.190452
0.193308
0.190861
0.192166
0.198806
0.193956
0.207881
0.206182
0.209286
0.186376
0.204529
0.189586
0.16344
0.162938
0.186973
0.216507
0.208038
0.182754
0.165483
0.190983
0.224978
0.23686
0.251364
0.206548
0.243621
0.26056
0.300751
0.248706
0.253789
0.271372
0.306988
0.432319
0.510463
0.428572
0.470404
0.532715
0.60384
0.512334
0.373833
0.491189
0.385393
0.406188
0.143608
0.0878688
0.116917
0.10741
0.222559
0.344419
0.272709
0.344267
0.341845
0.3657
0.342619
2.95166e-09
0.000979078
0.000442697
5.78497e-06
0.000601852
0.000926932
0.000599399
0.00100998
0.000160582
0.00100962
0.000664765
0.00100889
0.000730728
0.000955715
0.000582482
0.000952703
0.845643
0.838338
0.873798
0.861113
0.841196
0.813581
0.741251
0.654174
0.587146
0.600731
0.576017
0.581521
0.55547
0.554897
0.533911
0.536636
0.482726
0.527413
0.452115
0.394654
0.340469
0.29488
0.000970498
0.00112004
0.00112008
0.000663073
0.000440426
0.000731205
0.000592034
0.000704618
0.00112113
0.00112167
0.000875156
0.00100984
0.000670099
0.00100942
0.00124172
0.00017911
0.000293883
0.000487392
0.000977135
0.00096135
7.31626e-08
0.000978536
0.000793614
1.85613e-05
0.0743134
3.35443e-06
0.282266
0.44306
0.455467
0.550088
0.770557
0.660047
0.77869
0.782989
0.793206
0.82556
0.856271
0.87228
0.258861
0.254537
0.210166
0.238381
0.17706
0.144294
0.129422
0.130496
0.123095
0.128248
0.0802208
0.0743579
0.0226499
0.0369225
0.0929374
0.0638949
0.0368687
0.0863803
0.0829834
0.102894
0.00508919
0.00104781
0.0219927
0.032988
0.0320927
0.000914365
0.00044001
0.000864815
0.000923265
0.000396731
0.000872478
0.273864
0.249383
0.248111
0.252196
0.267234
0.381076
0.335759
0.317594
0.195117
0.247211
0.227392
0.236515
0.130085
0.070935
0.250242
0.358084
0.248545
0.254917
0.234118
0.318588
0.293857
0.36804
0.401254
0.324045
0.308582
0.339616
0.218416
0.191997
0.190977
0.188874
0.106791
0.158885
0.0825116
0.036959
0.0180749
0.134862
0.134826
0.184017
0.182548
0.182543
0.185473
0.18203
0.188694
0.183791
0.198598
0.191758
0.21034
0.20102
0.205717
0.208575
0.232448
0.222395
0.242485
0.249945
0.196921
0.174349
0.244943
0.224812
0.216714
0.234075
0.213084
0.20554
0.264297
0.24179
0.330754
0.344742
0.291413
0.331771
0.340425
0.312985
0.400673
0.372451
0.445576
0.464773
0.487983
0.40247
0.40659
0.40755
0.36967
0.34616
0.319839
0.402767
0.256125
0.238348
0.286712
0.307129
9.03518e-05
0.0331616
0.119046
0.240247
0.272526
0.307793
0.210625
0.176274
0.137705
0.0834891
0.000965631
0.000310861
1.42674e-06
1.84795e-07
0.000851013
0.00103234
0.000993891
0.000234006
0.00100979
0.000545241
0.00024476
0.000470015
0.000926911
0.000208943
0.000889372
0.000986846
0.000766556
0.000551352
0.000138864
0.000388285
0.00097475
0.00101
0.000136575
0.00100009
0.000978278
0.000380673
0.00118537
0.000969417
0.000997579
0.00118539
0.00118539
0.00118537
0.000889062
0.000999494
0.0009727
0.000201819
9.59135e-05
0.000989075
0.000892979
0.0009482
0.00100959
0.000881287
0.00100987
0.00100592
2.67802e-05
0.000964812
0.8408
0.854316
0.876726
0.860189
0.844504
0.768315
0.589421
0.673926
0.559291
0.557548
0.539553
0.531865
0.52934
0.529585
0.523193
0.523111
0.465651
0.436561
0.338099
0.381446
0.233987
0.278163
0.000851104
0.000624444
0.000948563
0.000967574
0.000969466
0.000982262
0.000986514
0.000879074
0.000998153
0.000675845
0.000677989
0.000965569
0.000971308
0.000759356
0.000380116
0.000991326
0.000690401
0.00100737
0.000803925
0.000839513
0.000369052
0.000975289
0.000889611
0.000439439
0.000917861
0.00068906
0.00101
0.000641909
9.21082e-06
6.82991e-05
0.000566986
0.000719123
0.00114212
0.000609257
0.25764
0.0867828
0.464829
0.422681
0.488813
0.598041
0.699464
0.783365
0.795279
0.780109
0.823516
0.854358
0.839242
0.839902
0.00101
0.000734461
0.000886173
0.000268167
0.00088354
0.000922867
0.00081396
0.000933557
0.000890554
0.000725685
0.000975785
0.00092383
0.000794854
2.99799e-07
0.000836048
0.00101
0.000170373
0.23569
0.234613
0.234825
0.200935
0.119793
0.156914
0.0829742
0.0779142
0.0401231
0.0338638
0.000995673
0.000648103
0.0181073
0.0141808
0.000801091
0.00833267
0.00511416
0.0543444
0.035039
0.0378789
0.00098965
0.000921773
0.000703425
0.000698114
0.000784326
0.000818397
0.000964289
0.000555971
0.000325844
0.000996791
0.000920408
0.000390313
0.478121
0.444107
0.485562
0.492048
0.446312
0.397922
0.564033
0.588115
0.647855
0.65874
0.212328
0.255371
0.293556
0.38468
0.193718
0.154089
0.187045
0.192106
0.0255095
0.0879838
0.129442
0.0203126
0.232549
0.23647
0.23054
0.236533
0.255001
0.231251
0.24561
0.261761
0.143917
0.140228
0.0330263
0.115475
0.120823
0.0712363
0.026911
0.03036
2.93234e-32
0.00171203
0.000979651
0.0685519
0.134894
0.0639897
0.128172
0.182031
0.18158
0.183073
0.186664
0.185367
0.205767
0.203071
0.223653
0.215479
0.23402
0.232
0.250763
0.245744
0.250918
0.246122
0.259293
0.256007
0.295904
0.26335
0.238587
0.233455
0.297739
0.262171
0.267202
0.306166
0.341425
0.344768
0.348276
0.354944
0.393994
0.437365
0.503291
0.520418
0.528194
0.509079
0.649873
0.588076
0.714172
0.754941
0.744676
0.781718
0.839219
0.704104
0.785946
0.81333
0.892748
0.940151
0.965216
0.988305
1.01996
0.958679
1.01583
0.972486
1.05275
1.05387
1.10032
1.06766
1.13044
1.15924
1.15012
1.09527
1.1654
1.18703
1.15495
1.14878
1.21794
1.19314
1.22482
1.16454
1.16373
1.22914
1.19515
1.14949
1.14786
1.17998
1.21414
0.205989
0.173457
0.344324
0.337064
0.308944
0.303077
0.304896
0.0708433
0.198557
0.00074672
0.000585962
0.0336591
0.0234619
0.000968381
0.00023923
5.72497e-05
0.138275
0.0442028
0.0435777
0.000598853
0.000721701
0.000638327
0.000759019
0.000348275
0.00101
5.27544e-07
5.8384e-05
9.70941e-06
5.35186e-05
0.00101
0.000966006
0.000995857
0.000638598
1.80769e-05
0.00146982
0.000842141
0.000928041
0.000844807
0.000691483
0.000281633
0.00069126
0.000943677
0.000831092
0.00125226
0.000578973
0.00012748
0.000146108
0.000949
0.000404855
9.77421e-06
1.61879e-05
0.000990101
0.000818938
0.00100231
0.000950256
0.000911134
0.000410555
0.000772737
0.00105678
0.00115703
0.000880522
0.000972843
0.00105692
0.000989455
0.000999391
0.0010149
0.000582096
0.000996576
0.000949067
0.00103753
0.00103763
0.00101213
0.000983643
0.00103767
0.00103741
0.00046961
0.000632314
0.00101
0.000773625
0.000908767
0.000377029
0.000991017
0.000960908
0.00100983
0.00100977
0.000136678
0.000964461
0.000950381
0.000921886
0.000915695
0.000919934
0.000741642
0.00115815
0.000736082
0.000968314
0.833699
0.818772
0.792078
0.793597
0.709151
0.778763
0.599194
0.54256
0.530836
0.527589
0.529782
0.528181
0.465208
0.472757
0.31743
0.276443
0.23638
0.410684
0.409809
0.359076
0.360658
0.359072
0.000647301
0.000456201
0.00105243
0.00105237
0.000962471
0.000414864
0.000711517
0.000410365
0.00105235
0.00098213
0.000161511
0.00100893
0.000972717
0.000941946
0.000297472
0.000985833
0.000726155
0.00091818
0.00021426
0.00071546
0.000522867
0.000951565
0.0012547
0.00125493
3.81621e-05
7.08927e-06
0.000175815
0.00114699
0.0910267
2.01792e-05
0.251319
0.423683
0.451426
0.485359
0.561676
0.680932
0.74688
0.720047
0.767802
0.702015
0.752149
0.793363
0.748268
0.745997
0.00122627
0.000927787
0.00101
0.000849207
0.00099691
0.0011994
0.000757495
0.000799094
0.00119941
0.000952606
0.000973001
0.00100941
4.36969e-05
1.14836e-05
0.000910842
0.00038795
5.42118e-06
0.000656439
0.00098774
0.000236686
0.000248866
0.000869931
0.00096459
0.000795867
0.00112096
0.00101014
0.211533
0.206912
0.13152
0.142991
0.0241385
0.0466173
0.000662982
0.000675595
0.000754623
0.00163589
0.000275067
0.000751573
0.000694211
0.000630537
0.000117536
0.000927903
0.0263962
0.000533249
0.0274882
0.0278638
0.000526564
0.0002975
0.000351218
0.0008342
0.00030944
0.000950196
0.000717662
0.000602104
0.000980152
0.000764758
0.00123799
0.000733766
0.697723
0.691882
0.526244
0.44449
0.435707
0.41191
0.688194
0.605505
0.850837
0.930753
0.825359
0.747953
0.945225
0.923879
0.991562
1.04015
1.06869
1.06656
1.09568
1.06614
1.11943
1.14913
1.14418
1.14459
1.16106
1.1489
1.14999
1.19511
1.13755
1.13206
0.264406
0.189341
0.320331
0.399377
0.166048
0.141242
0.197807
0.184963
0.0159653
0.069808
0.00052725
0.0734139
0.000710453
0.231475
0.175907
0.2339
0.225623
0.232486
0.12637
0.028255
0.000882679
1.90681e-14
1.15636e-05
0.000977186
6.12788e-212
2.50194e-28
1.81001e-06
0.000998818
0.00088291
0.000848363
3.63154e-05
0.0103332
0.0793293
0.0243224
0.132093
0.0794249
0.118761
0.180136
0.21214
0.188165
0.221168
0.222136
0.233176
0.223541
0.25054
0.263427
0.263471
0.27859
0.281528
0.287973
0.31489
0.324754
0.325174
0.316127
0.311869
0.306271
0.329414
0.343621
0.398305
0.39468
0.357212
0.387825
0.385045
0.416999
0.447605
0.506597
0.537241
0.534831
0.548058
0.619234
0.704631
0.774365
0.786164
0.91619
0.78789
0.847725
0.998638
1.01618
1.01765
1.05303
1.10094
1.1511
1.16196
1.16557
1.19343
1.22135
1.24505
1.24213
1.24811
1.24855
1.24307
1.22244
1.16318
1.2288
1.19543
1.14578
1.14978
1.18132
1.21362
1.22331
1.14765
1.2114
1.17066
0.000281816
0.000845535
0.0656812
0.136554
0.0268947
0.0934144
0.231759
0.166745
0.185463
0.0322039
0.00061329
2.14248e-06
0.000764615
0.00210614
2.61184e-05
7.95306e-05
1.59151e-05
0.00056739
0.000982144
0.00138015
0.00138184
0.000284872
0.000319595
0.000184832
0.000999876
0.000871197
0.000795729
0.000978231
0.000947284
0.00134682
0.00134364
0.00086849
0.000172666
0.000653786
0.00146952
0.000981197
0.000815653
0.000478021
0.000315336
0.000563379
0.00101
0.000787079
0.0012519
0.000932575
0.00101336
0.000704088
0.000660221
0.000998234
0.000701989
0.000884797
0.000874495
0.00105257
0.000949754
0.00099758
0.000744326
0.00106055
8.32924e-05
0.00099613
0.000976554
0.000151607
0.000650036
0.000544652
0.000936558
0.000816347
0.000895911
0.000781112
0.000993967
0.000978339
0.000943996
0.000974885
0.00092222
0.000227127
0.0012618
0.000929189
0.00103165
0.000786827
0.00100962
0.000641972
0.000367709
0.000916152
0.000960434
0.000959563
0.000892128
0.000610929
0.000479733
0.739942
0.73989
0.723765
0.727009
0.656608
0.718806
0.527084
0.59712
0.4899
0.487439
0.433002
0.417193
0.358913
0.360299
0.275123
0.168857
0.146767
0.314194
0.361025
0.361366
0.35926
0.360009
0.00105259
0.000921768
0.00105262
0.000381475
0.000973634
0.000973647
0.00094649
0.000972052
0.00100548
0.000830393
0.000135327
0.000443538
0.00093376
0.000997208
0.00060297
0.00100999
0.00098232
3.53596e-05
0.000985985
0.000873381
0.000276721
0.000607354
0.000655599
0.00101
0.000321117
3.32274e-05
0.00016739
0.000967041
0.154596
5.90411e-05
0.291488
0.428391
0.397353
0.513984
0.67937
0.57687
0.656731
0.65883
0.651055
0.679024
0.735341
0.730046
0.735481
0.707817
0.000769413
0.000922585
0.000573493
0.000958878
0.000712787
0.000933944
0.000627141
0.00041602
0.000815777
0.000879841
0.000957505
0.00103874
0.00097132
8.40208e-06
0.000915771
0.000873917
0.00096514
0.000987798
0.000824097
0.0010524
0.000488353
0.00105158
0.00105838
0.000901385
0.00101
0.000860782
0.000668131
0.000489708
0.000136748
6.18375e-05
0.00098545
0.087959
0.0888394
0.0490779
0.0281159
0.000779858
0.00599338
0.000956993
0.000448032
0.127768
0.0699974
0.0474616
0.000187059
0.0009323
0.000408908
0.00100989
0.00133703
0.00133706
0.000251592
0.000606414
0.00194219
0.000895544
0.000875646
0.00092247
0.000830286
0.000589239
0.000349619
0.000338142
0.000587295
0.00100971
1.30661e-05
0.00052455
0.000737284
0.000689738
0.000594218
0.000809643
1.2708
1.28085
1.31112
1.28761
1.33207
1.31793
1.33987
1.3364
1.38862
1.37472
1.33882
1.38508
1.35173
1.40794
1.23663
1.19232
1.21143
1.26011
1.23626
1.2088
1.21486
1.26536
1.26502
1.24894
1.22418
1.27853
1.25926
1.26911
1.29661
1.14604
1.14881
1.14966
1.14661
1.16346
1.18823
0.744002
0.683817
0.583936
0.495855
0.399897
0.483921
0.674613
0.660401
0.898228
0.925257
0.808137
0.891205
0.931557
0.981329
1.02928
1.07062
1.06678
1.06843
1.0636
1.09354
1.10761
1.13177
1.11834
1.12143
1.12738
1.13766
1.11238
1.10813
0.306719
0.239
0.177444
0.173433
0.237356
0.397257
0.376643
0.120026
0.16164
0.0397248
0.000541045
1.25701
1.27648
1.29102
1.29493
1.30315
1.3137
1.3157
1.34725
1.33048
1.35226
1.352
1.39684
1.42299
1.44011
1.44148
1.4475
1.45945
1.48369
0.000441616
0.000594777
0.00140532
0.156947
0.0444957
0.217428
0.117357
0.0361391
0.00122414
2.18189e-12
0.00122426
0.00122412
0.000150505
0.000233255
0.000592061
0.000634227
1.56935e-49
6.10001e-120
0.00311685
0.000823571
0.000395231
0.0247873
0.0260864
0.025601
0.0815193
0.038954
0.165809
0.116411
0.203702
0.160613
0.198009
0.221512
0.239876
0.271272
0.290242
0.291563
0.304564
0.299572
0.353211
0.344021
0.329793
0.331238
0.382759
0.355676
0.425601
0.385052
0.366022
0.414667
0.468333
0.446379
0.475468
0.505808
0.504913
0.459663
0.560353
0.595914
0.562995
0.550753
0.633503
0.714927
0.789511
0.857471
0.802787
0.828076
0.958655
1.00992
1.05464
1.03426
1.09745
1.13204
1.17266
1.18563
1.18014
1.20054
1.25677
1.23696
1.25136
1.2586
1.24595
1.24028
1.25189
1.25028
1.24425
1.24404
1.24612
0.000984658
2.20535e-05
0.00186693
0.000361358
0.000312066
0.000810774
0.000629396
0.0371785
0.000898267
0.000847761
0.000807745
0.000992538
0.000103132
0.000525543
0.00140526
0.000974105
0.000243313
9.71391e-05
4.28478e-05
0.00137907
0.000711692
0.00038011
0.000926452
0.0001026
0.000735431
0.00014751
0.000728231
0.000792481
0.00112198
0.000955198
0.00134497
0.000806183
0.00105246
0.000974589
0.000776109
0.00096702
0.000896738
0.000998449
0.00026155
0.000888291
0.00100984
0.000894905
0.00112164
0.00041631
0.000398457
0.000668916
0.000991766
0.000269368
0.000740386
3.35985e-10
6.02598e-07
0.00241558
0.000383877
0.00102197
0.000694792
0.000545923
0.000997667
0.000396648
0.00100993
0.000972649
0.000977525
0.000963111
0.000999516
0.000712646
0.00109732
0.000821775
0.000764044
0.000993192
0.000845118
0.00109689
0.00089779
0.000955844
0.000631827
0.000258775
0.000776488
0.000964465
0.000941166
0.000838222
0.00101
0.000334973
0.000769708
0.000685233
0.000978177
0.000925692
0.000935309
0.000915167
0.00091709
0.000695524
0.000567275
0.0019422
0.00021675
0.000674617
0.000835469
0.000996645
0.00194306
1.43824
1.40076
1.38537
1.47656
1.51482
1.50923
0.721629
0.719337
0.710235
0.704255
0.632092
0.695925
0.52234
0.450278
0.376848
0.388986
0.359772
0.360106
0.360415
0.359317
0.238668
0.152962
0.242932
0.325999
0.325302
0.00093523
0.000820697
0.000875173
0.000890082
0.000941699
0.0009764
0.000965395
0.000493094
0.000931051
0.000554111
0.00100943
0.00103825
0.000996343
0.000968182
0.00032364
0.00071293
0.00100998
0.000498781
0.000128694
0.000927014
4.59314e-06
0.000274108
0.000921556
0.000785239
0.00052174
0.000783296
0.000978157
0.127222
0.271182
0.382794
0.379944
0.698738
0.621977
0.631151
0.417983
0.507658
0.596834
0.64928
0.650151
0.648299
0.668431
0.695322
0.690898
0.000733139
0.00113134
0.00062248
0.000982796
0.000734772
0.000720222
0.00100904
0.000845157
0.000731498
0.000948262
0.000817811
0.000932446
0.000763197
0.000834556
0.00100996
0.00085024
0.000749393
0.00101276
0.000971675
0.00089208
0.000929535
0.000682923
0.000770427
0.000937995
0.000997599
0.000969344
0.0003406
0.0010573
0.000966264
0.000973622
0.00101
0.000984843
0.000871643
0.000978065
0.000827832
0.00112711
0.000952858
0.0860391
0.121503
0.111445
0.0479586
0.048313
0.0203066
0.0421668
0.000183343
0.000643193
0.000278868
0.000919076
0.055061
0.0425616
0.000406768
0.000956
0.000612942
0.000962556
0.000490688
0.000432878
0.000753925
0.000136085
7.42918e-05
0.00065721
0.000224512
0.000994212
5.79952e-05
0.000680105
0.000702988
0.000420221
0.000653842
0.000551523
0.000693939
9.93495e-05
0.000358069
0.000994303
6.3628e-05
0.000979051
1.26823
1.28376
1.31311
1.33398
1.34642
1.34508
1.38246
1.35763
1.20697
1.20271
1.18629
1.20785
1.24268
1.20329
1.2451
1.22283
1.13563
1.12287
1.12342
1.15503
1.18577
1.15798
0.745467
0.668836
0.572459
0.655642
0.504922
0.413335
0.668097
0.664185
0.903481
0.907558
0.923801
0.820857
0.894152
1.01303
0.957479
0.896422
0.940837
1.04419
1.05841
1.05229
1.05586
1.06477
1.08719
1.11146
1.10491
1.11028
1.11591
1.10942
1.11515
1.10987
1.11111
0.156072
0.158061
0.294726
0.374394
0.156274
0.243216
0.39444
0.403032
0.153146
0.0874507
0.00153055
0.0661625
1.2847
1.25079
1.26319
1.308
1.30789
1.31021
1.3174
1.34425
1.36477
1.37761
1.37744
1.38333
1.40263
1.44067
1.42298
1.44009
1.45958
1.50809
1.48809
1.31735
1.32984
1.34528
1.51227
1.52059
1.51618
0.0014047
0.00140459
0.00140482
0.000302792
0.000327679
0.000944428
0.000685223
0.000928091
0.000634608
0.000659527
0.000757232
0.000881632
0.00063955
0.00118607
0.000639679
0.00118604
0.000969713
4.67245e-06
0.000754408
2.54353e-09
0.00179307
0.000690279
0.0281861
0.000914379
0.102492
0.125423
0.0634228
0.102116
0.157346
0.126134
0.252569
0.197201
0.273251
0.289846
0.291697
0.283601
0.322702
0.363465
0.405616
0.409482
0.412747
0.404362
0.425472
0.407766
0.465422
0.45942
0.484953
0.490063
0.463866
0.460452
0.588245
0.628608
0.528433
0.587323
0.637794
0.604407
0.698176
0.745429
0.844478
0.88634
0.862512
0.957583
1.00678
1.10555
1.09167
1.15185
1.12139
1.21666
1.2264
1.21959
1.24664
1.27368
1.27409
1.32976
1.2971
1.31974
1.27901
1.29479
1.3254
1.24272
1.28238
1.2533
0.000278737
5.49148e-06
0.000809039
0.000599838
0.000769361
0.000964183
0.00057408
7.79696e-07
0.00101
0.000199154
0.000154096
0.000512431
0.000164148
0.000632165
0.000518409
0.000345942
0.000738795
0.000127444
0.000302915
2.85011e-05
0.000124015
4.98173e-05
5.50518e-07
0.000284598
0.000978557
0.000964722
0.000999883
4.2074e-05
0.0011217
0.00112167
0.000992304
0.000995782
0.000992745
3.82214e-05
0.00101
0.000912008
0.0010004
0.000112849
0.00044385
0.000919656
1.51335e-05
0.000297927
0.00207235
5.22102e-06
0.000984734
7.0477e-05
0.0009581
0.000364482
0.000984664
3.20685e-05
0.000987383
0.00219849
0.000979439
0.000134455
0.000950738
0.00116595
0.00118209
0.000439207
0.00100983
0.000979813
0.000465046
0.000983408
0.000969573
0.000835887
0.00109701
0.00109693
0.000938621
0.000923054
0.00109689
0.0010969
0.000955402
0.000712548
0.000711032
0.000919589
0.00139242
0.000102425
0.00139218
0.000883946
0.00098702
0.000966821
0.000976046
0.00100119
0.00104563
0.00104565
0.000826898
0.000805878
0.000827454
1.22783e-05
9.12481e-06
0
0.000996414
0.000799517
0.000430028
0.000878201
0.001182
0.000898711
0.00100958
0.00100997
0.000968619
0.000998553
0.000946811
0.000914726
0.00101
1.38446
1.40718
1.40461
1.40908
1.44096
1.54769
1.53418
1.53437
1.55151
1.49835
0.629841
0.618906
0.551862
0.555384
0.512789
0.536793
0.455181
0.410004
0.394397
0.359763
0.332128
0.336842
0.241032
0.259353
0.124849
0.164405
0.167583
0.000529692
0.000965684
0.000913493
0.00101
0.000988132
0.000917688
0.000585991
0.00119942
0.0942956
0.00047404
0.000919443
0.000220381
0.000954139
0.000961382
1.54994e-06
0.000368616
0.00101
0.000973131
0.000924721
0.00102225
0.000849804
0.000992718
0.000944045
0.000847483
0.00025022
0.49472
0.493935
0.541296
0.241496
0.380512
0.38041
0.414616
0.54054
0.610283
0.569847
0.479282
0.560956
0.588476
0.592853
0.510215
0.542242
0.000957717
0.000985563
0.00113139
0.00102444
0.000621189
0.000834281
0.00101
0.00118939
0.000991757
0.000994844
0.000160682
0.000907638
0.000827345
0.000936631
0.000510229
0.00149224
0.00149345
0.000988716
0.000618999
0.000983028
0.000795041
0.00101276
0.000850525
0.000976059
0.000922437
0.00101699
0
0
0
0.000949764
0.00105351
0.00097317
0.00100563
0.000960895
0.000473953
0.000983298
0.000981389
0.000963917
0.00097325
0.000338297
0.000895901
0.000914242
0.000953661
0.000987215
0.000970856
0.101243
0.114457
0.120899
0.000375465
0.0126015
0.00087006
0.000160055
0.00097388
0.000753827
0.000925273
0.000479969
0.0010519
0.00205189
0.000521439
0.000502989
0.000406739
0.000494361
0.000242686
0.000584634
0.000389242
0.000901763
0.000270985
0.000575667
0.000666396
0.000877991
0.000915542
9.3863e-07
0.000158107
0.00113875
0.000603514
0.00115717
0.000312228
0.000747328
0.00074252
0.000346646
0.00101
0.000942721
0.000630488
0.00113871
1.27582
1.23256
1.30615
1.26968
1.28556
1.31708
1.31579
1.35262
1.37139
1.39186
1.38727
1.32766
1.38588
1.35089
1.17278
1.1703
1.16143
1.17623
1.18853
1.1959
1.19959
1.2011
1.11416
1.11235
1.13413
1.11849
1.14727
1.16144
0.746593
0.670187
0.598705
0.670091
0.462628
0.554085
0.669382
0.675612
0.897953
0.895942
0.897987
0.828629
0.985143
1.03614
0.94645
0.895775
1.04243
1.03912
1.0573
1.04244
1.08384
1.10494
1.11022
1.11236
1.10609
1.11062
1.11338
1.11088
1.10622
1.11586
0.149427
0.142908
0.315928
0.386606
0.294694
0.218102
0.443948
0.39008
0.130069
0.14838
0.124626
0.0356785
1.29703
1.31877
1.30048
1.33328
1.35044
1.33896
1.37652
1.38772
1.36658
1.37549
1.36729
1.37434
1.3812
1.39852
1.4237
1.44102
1.4395
1.49806
1.47387
1.52102
1.53327
1.40019
1.41413
1.53241
1.54095
0.000415286
0.000115346
0.000696944
0.000551543
0.000525579
9.3846e-05
0.000260243
0.000211085
0.00101
1.00585e-05
0.000927799
0.000258474
0.000640794
0.000657476
5.07035e-06
0.000780461
0.00179301
0.000526318
0.000872027
0.000687083
0.000536725
2.22436e-16
0.0214724
2.60458e-164
0.113932
0.120457
0.0817504
0.0364861
0.156567
0.198191
0.257905
0.2519
0.259424
0.254647
0.375305
0.317584
0.427344
0.413607
0.442499
0.449366
0.42634
0.476983
0.520449
0.495668
0.483061
0.502822
0.552814
0.541642
0.51835
0.563471
0.646085
0.653784
0.638585
0.66278
0.794046
0.703336
0.880739
0.908062
0.91103
0.975207
1.04801
1.12577
1.12876
1.14606
1.1897
1.23998
1.27571
1.27475
1.31511
1.28798
1.3406
1.35608
1.35671
1.35839
1.35786
1.36122
1.31194
1.35183
1.33212
0.000849744
0.000129462
0.00622526
0.00102554
0.000693552
7.73581e-05
0.000686777
0.000538285
0.00079675
0.000700239
0.00101
0.00128518
0.000587542
0.00128353
0.00128362
0.001283
0.00128418
0.000995599
0.00128534
0.00642744
0.000990748
0.000638589
0.000184916
0.00205384
0.000420182
0.00205426
0.002054
0.000409738
0.000261506
0.00100217
0.000993637
0.000687571
0.000856518
0.000790755
0.00101
0.00104177
0.000780444
0.000959982
0.00100986
0.000887496
0.000962023
0.000990806
0.00180788
0.000976688
0.000146754
1.36216e-05
0.000607696
0.00096357
0.000988249
0.000479144
0.000826696
0.00096414
0.00100941
0.00031059
5.7923e-05
0.000987756
0.00100992
0.000817418
0.000560979
0.000820678
0.00101
0.000799183
0.000972102
0.000279366
0.000904827
0.00095865
0.000982651
0.000998751
0.000952709
0.000941374
0.000886752
0.00100949
0.00097168
0.000773375
0.000984106
0.000952799
0.000753455
0.00098992
0.000934564
0.000964099
0.000974876
0.000974485
0.00110414
0.000988276
0.000905098
0.000521559
0
0
0
0
0
0
0
0
0
0
0
0
0
0
0
0
0
0
0
0.00099334
0.000900496
0.000937661
0.000812305
0.000908875
0.000434354
0.000930589
0.0010667
0.000325168
0.000811332
0.00035232
0.000878445
1.58842
1.5631
1.58475
1.58057
1.59299
1.58953
1.42464
1.44625
1.50116
1.46627
1.56198
1.58953
1.54581
1.41338
1.37143
0.490205
0.494678
0.492609
0.482058
0.494019
0.426142
0.470416
0.255283
0.313073
0.173908
0.177814
0.125471
0.120807
0.121761
4.53839e-05
0.000870295
0.000495047
0.000982711
0.000833353
0.120881
0.000403149
0.000961728
0.000977449
0.000625545
0.000686377
0.000984192
0.000961616
0.000962997
0.00097202
0.000717645
0.000335301
0.000983795
0.00101
0.000213894
0.00100974
0.000932938
0.0004632
0.000600884
0.495974
0.495982
0.493995
0.496117
0.495292
0.211339
0.32212
0.268917
0.383758
0.448656
0.468375
0.401528
0.485222
0.436388
0.437766
0.422592
0.000954778
0.00113573
0.000712921
0.000970576
0.000973219
0.000935143
0.000866165
0.00101492
0.000144762
0.000883507
0.00101384
0.00062783
6.92933e-05
0.000527482
0.000948367
0.000516055
0.000763669
0.000753016
0.000999076
0.00101579
0.000820917
0.000947289
0.000740767
0.000726241
0.000621516
0.00100972
0.000684552
0.000985216
0.000351873
2.15212e-05
0
0
0
0
0
0.000931264
0.00105442
0.000978274
0.00105407
0.000956566
0.000918145
0.000786567
0.000898052
0.000952909
0.00100113
0.000974052
0.000953825
0.00103344
0.000965002
0.000787048
0.000895146
0
0
0
0
0
0
0.103275
0.0299595
0.0177185
0.000668304
0.000910472
0.000680509
0.00078824
0.000960083
0.000791447
0.000311719
0.00100956
0.000870904
0.000375808
0.000550644
0.00033854
0.000760208
0.000752664
0.000795758
0.000905726
0.000971356
0.000987639
6.51335e-05
0.000656464
4.9469e-05
0.000486704
0.000731179
0.000634249
0.000404769
0.000958393
0.00027789
0.000630211
1.31742e-05
0.000467482
0.00184063
0.00183875
0.000687564
0.000959699
0.000281529
0.000798649
0.00100972
0.000818552
1.24068
1.21966
1.26047
1.26213
1.2508
1.29892
1.29276
1.29203
1.30525
1.31114
1.40021
1.35653
1.31418
1.15967
1.15881
1.19012
1.17595
1.1985
1.20232
1.21828
1.2066
1.1156
1.12185
1.14526
1.12746
1.1421
1.15109
0.788356
0.707912
0.635879
0.673016
0.615658
0.519269
0.710905
0.67106
0.905033
0.903503
0.860994
0.907851
0.991355
1.04521
0.904233
0.9547
1.04401
1.04593
1.06794
1.04575
1.09072
1.10567
1.11655
1.10853
1.10105
1.1117
1.11035
1.10547
1.10621
1.10572
0.137977
0.21068
0.386684
0.368785
0.294988
0.37439
0.391899
0.466655
0.133778
0.142255
0.132486
0.0476769
5.3971e-05
0.000106489
0.0125593
1.36206
1.35868
1.39497
1.37444
1.40446
1.42122
1.41861
1.41424
1.45187
1.43181
1.44204
1.40826
1.43421
1.44736
1.47485
1.48626
1.50594
1.5019
1.55757
1.55629
1.57748
1.55698
1.46989
1.47349
1.59364
1.5972
0.00016622
0.000334169
0.00101
8.25928e-06
0.000729054
0.00122861
0.00122824
0.000971104
0.000305007
0.000142036
0.000153863
0.00193812
0.00120916
0.000529833
0.000822227
0.000856655
0.00100232
0.000626775
0.000320397
0.000824137
8.63116e-05
0.000995528
0.000301624
0.000817878
0.000998479
0.0607114
0.138601
0.0145994
0.241173
0.178067
0.244527
0.246288
0.342622
0.281173
0.392894
0.433375
0.429244
0.439552
0.565895
0.519214
0.492304
0.542804
0.577704
0.565449
0.555378
0.547929
0.56756
0.562276
0.643611
0.685359
0.722462
0.676704
0.723029
0.751796
0.892134
0.826518
0.922692
0.907284
0.985299
1.06162
1.14474
1.1435
1.17745
1.21469
1.28965
1.28115
1.30251
1.30994
1.3389
1.3492
1.36629
1.35994
1.36965
1.36491
1.35682
1.36905
1.35636
1.35491
0.000975872
0.000864682
0.00101
0.00067133
0.000954684
0.000657298
0.000566723
0.000789161
0.000642839
0.00128329
0.000339481
0.000777264
0.000295436
0.00128392
0.00128519
0.00128453
0.00128468
0.00128563
0.00128434
0.000312298
0.000371652
0.00100461
0.000689527
0.000938422
0.000788581
0.00100179
0.000929845
0.000997704
0.000180038
0.000954666
0.000624923
0.00101
0.000209386
0.000613088
0.00100863
0.00104175
0.00066307
0.000881619
0.000974459
0.00378833
3.45503e-05