/*--------------------------------*- C++ -*----------------------------------*\
  =========                 |
  \\      /  F ield         | OpenFOAM: The Open Source CFD Toolbox
   \\    /   O peration     | Website:  https://openfoam.org
    \\  /    A nd           | Version:  8
     \\/     M anipulation  |
\*---------------------------------------------------------------------------*/
FoamFile
{
    version     2.0;
    format      ascii;
    class       surfaceScalarField;
    location    "6480";
    object      phi;
}
// * * * * * * * * * * * * * * * * * * * * * * * * * * * * * * * * * * * * * //

dimensions      [0 3 -1 0 0 0 0];

internalField   nonuniform List<scalar> 
788991
(
-0.041785
0.00530702
-0.0330785
-0.0418359
0.00375007
-0.0421698
-0.00431808
0.00418137
-0.0411007
0.0285147
-0.0178631
0.0288252
-0.00125915
-0.0434132
-0.0244121
-0.0276711
0.0405034
0.00531678
-0.0325529
0.0366327
0.0174614
0.0244707
-0.0300568
0.0147542
-0.0241981
0.0268659
-0.02184
0.0184522
-0.00721126
0.0215742
0.0120893
0.0298504
0.0366999
0.00163008
0.0489366
0.00282664
-0.00322033
-0.0299373
-0.0412683
0.00478843
-0.0227008
0.029281
0.00797062
-0.0377915
0.0273642
-0.0151707
-0.0261434
0.0106901
-0.00598955
-0.0387145
-0.0462551
0.022476
-0.0301712
0.00485377
0.0326038
0.00871633
0.0051395
0.00551523
0.0318114
0.010235
0.0142553
-0.00691068
-0.0110693
0.0123789
0.0056495
0.0169548
0.00585576
-0.00238231
0.00867272
0.00190241
-0.00245633
0.0121632
0.05667
0.0237565
0.0208708
-0.025047
0.0105034
-0.0403519
0.0161099
0.0129013
0.0268136
-0.0395712
0.04007
-0.0246061
0.00801182
-0.0275364
0.0221166
-0.0246935
-0.0254971
-0.0138311
0.0185509
-0.00842334
-0.0272634
-0.0325575
0.00350198
0.0211541
-0.00447933
0.0266151
-0.0353973
-0.00125492
0.0235762
0.0166301
-0.0215402
-0.0218303
0.0190954
0.0294071
0.0210901
0.00779545
-0.0177955
-0.0181869
0.016179
0.0306019
0.000755668
-0.0134158
0.00475961
-0.0080765
0.0100109
0.0100859
-0.0130043
0.00738387
0.0562078
0.0114186
-0.047815
-0.0938415
0.0047202
-0.0238844
0.0442527
0.0563701
0.0317532
-0.0149304
0
0
0
0
0
0
0.00449285
-0.00211066
0.00988805
0.00121917
0.0335319
0.00370287
0.030807
0.0262183
0.00755586
-0.0178083
0.0513607
0.0103686
0.0340671
0.0268839
0.0155338
-0.0335714
0.0063487
0.00047571
0.0283997
0.00926814
-0.0209068
-0.014624
0.00890383
-0.0812855
0.0686872
-0.0349224
0.0146105
0.0658159
-0.0674337
0.0647454
-0.0487543
0.0408554
0.0876719
-0.0548201
0.0573576
-0.0660898
0.0435217
0.0921198
0.0340974
0.0581692
0.0852076
0.019523
0.0722968
0.0165683
0.0250449
-0.0778574
0.0322435
0.0631991
-0.0126083
0.00456908
-0.0432154
0.0244564
0.0492654
0.0068477
0.00884601
0.0404083
-0.0270189
0.073361
-0.00199708
0.0534449
-0.0698607
-0.0457582
-0.0206939
0.0132939
0.00682548
0.0152638
-0.0387602
0.0227754
0.0573305
0.0209198
-0.00706845
-0.000796817
0.0890105
0.00972482
-0.00989043
-0.00266989
-0.0169985
0.00603881
0.0296482
-0.0136208
0.0253259
0.0174877
0.0117287
-0.00734729
0.0261387
0.0114057
-0.000249923
-0.00999343
0.0400426
0.0192734
-0.00378099
0.0323248
0.0330072
-0.0116933
0.0119768
0.0472669
0.0398921
-0.0398492
0.0505693
-0.0283168
-0.0455634
-0.00698364
0.0924294
0.13989
-0.0707208
0.0915031
0.017976
0.0207717
-0.0270118
0.0404758
0.0412397
0.0208565
0.0343631
0.0570631
-0.0158439
0.0269508
0.0432248
-0.0138947
0.0343312
0.0530564
-0.0280245
0.0569759
0.0520631
0.036856
0.0291249
0.037814
-0.0305423
0.0648463
0.0643846
-0.000388832
0.0946333
0.0737748
-0.0246493
0.0712308
0.0275249
0.0809667
-0.0328594
0.0479135
0.0248929
0.0246513
-0.017005
-0.013161
-0.0288888
-0.0367877
-0.0342069
-0.00262739
-0.0352736
0.0269593
0.00377189
0.00682659
-0.016125
0.00264177
0.0264249
-0.0267799
-0.0132921
-0.0181497
-0.0132335
-0.00516137
0.0172823
0.0112975
-0.000324582
0.00103491
0.0276342
0.0244684
0.00963229
0.0345796
-0.0202067
0.00264384
0.0256206
0.0157605
-0.00141523
0.011171
-0.0163993
-0.0351506
0
0
0.0194743
0
0.0329473
0
0
0
0
0
0
0
0
-0.0271566
-0.0185528
-0.0181762
-0.00863384
-0.00910864
-0.00881443
-0.0452133
-0.0339672
-0.00311676
-0.0354798
-0.0374217
-0.00525667
-0.0348998
-0.0322837
0.0130336
-0.0238797
-0.016533
0.0180578
-0.0150781
-0.0186159
0.00316402
-0.0098579
-0.0229308
0.0150991
0.0115696
-0.0346026
0.0200243
0.0252867
-0.0198027
0.0191935
0.0220494
0.00911893
-0.016816
0
0
0
0
0
0
0
0
-0.00802121
0
0
0.0385144
0.0144964
0.0140914
0.0296776
0.0201889
0.0179663
0.0582655
0.023894
-0.0310112
0.0442683
0.020564
-0.0239285
0.0316587
0.0262981
0.0182544
0.00252367
0.009233
-0.0110277
0.012406
0.0363994
-0.0142335
0.00269874
0.0404124
0.0180405
-0.0281864
0.0430358
-0.0384432
-0.0513412
0.0362573
-0.0363422
-0.0591253
0.00616009
0.0626325
-0.0413748
0.0195635
-0.0523712
-0.0713087
0.0219396
-0.00969844
0.0136084
-0.031667
0.0315401
-0.00861754
-0.0124587
-0.0053535
0.037421
-0.0476465
0.0125653
0.00288169
-0.0275094
0.00339128
-0.00144612
-0.0314279
-0.0417698
0.0460917
0.0265437
-0.0335203
0.0117906
-0.0393853
-0.0597395
-0.0539492
-0.00797082
-0.0271765
0.00439706
-0.0269014
-0.0346343
-0.0226122
0.00542863
-0.0134143
-0.000857467
-0.0409999
-0.0114669
-0.0272212
-0.0064983
-0.0157098
-0.01407
0.0324298
0.0110317
-0.016396
0.0247786
-0.00789983
-0.00727204
0.0224665
0.00667807
0.00327521
0.0258052
0.0222703
-0.0219367
0.0296324
0.0392893
0.0373521
0.0375099
0.0774722
-0.0709653
-0.126978
0.101217
-0.0691956
-0.0645526
-0.0718742
-0.0709193
0.11813
0.000116585
-0.00651427
0.0313221
-0.00170227
-0.0324807
0.0282051
0.0250313
0.0120379
0.0264405
0.0256068
0.00281899
0.032667
0.0299213
0.0175152
0.0347557
0.0563748
-0.0266082
0.0454363
0.057897
-0.0242873
0.0241508
0.0534443
-0.0339579
0.0214031
0.0411556
0.013716
4.78291e-05
0.0457029
0.00461675
-0.0335974
-0.0491744
0.0048179
0.00215361
-0.0016935
-0.00136563
-0.0387565
0.00613692
-0.00479833
-0.0281671
0.0289803
0.0211575
0.000604353
0.0521543
-0.00112356
-0.0312253
0.00546442
-0.0268215
0.0348748
-0.0488751
-0.0547239
-0.0395128
0.0499284
-0.0290111
-0.0388455
-0.00920849
0.0168672
-0.0299491
-0.013825
-0.0102237
-0.0166324
-0.0450658
-0.0276048
0.00670256
0.0101023
-0.0237722
-0.00210972
0.0303817
0.0045507
-0.0191588
0.00586644
-0.0150619
0.0161421
-0.0164188
0.0277263
-0.0421768
-0.0176974
0.00703853
-0.00132348
0.025066
0.0099804
0.0431755
-0.0357808
0.00854073
0.0327661
-0.0259563
-0.0118043
0.0186067
-0.0353157
0
0
0
-0.0232847
0
0
-0.0308938
0
0
0
0
0
0
0
0
0
0
0
0
0
0
0
0
-0.0250488
-0.0421239
0.00218492
-0.00461034
-0.0271485
0.00988946
-0.0483263
-0.0335005
0.00740004
-0.0425119
-0.0347121
0.0230113
-0.0317885
-0.0243712
-0.0190501
-0.013762
-0.0197933
0.00897859
-0.00256404
-0.0106184
0.0126946
0.00762212
-0.0197759
-0.00661958
-0.00283239
-0.0102659
-0.0127801
-0.00109539
-0.0124658
0.00418978
0.0199324
0.00904223
0.00302211
0.000109372
0
4.98292e-05
0
0
2.73923e-05
-3.43667e-05
-0.000131422
-3.35246e-05
0.000113553
0
-6.40483e-05
0
0
0
0
6.00734e-05
0
0
-3.86821e-06
0
0
0
0
0
0
0
0
0
0
0.0336851
0
-0.0238135
0.0415805
0.107767
-0.0101865
0.056587
0.0119678
-0.0155241
0.0445192
0.0213631
0.0191993
0.0405737
0.0316928
-0.00646751
0.0213278
0.0314467
-0.00141795
-0.014348
0.0148022
0.00764565
0.0225804
0.0207279
-0.00870902
0.0203511
0.0291148
-0.0112565
-0.0140379
0.0144483
0.0255528
-0.018451
0.0284362
-0.013306
-0.0326778
0.0123623
-0.0523408
-0.0495507
0.00626668
0.042006
0.0639221
0.0274117
0.0204807
-0.0868505
0.0147799
-0.0129865
-0.0164786
0.059388
-0.068377
0.115647
0.0507843
-0.0805578
0.0147091
0.0109193
-0.0127404
0.0331642
-0.0354393
-0.00895375
0.0494474
-0.0199548
-0.0148306
0
-0.00206173
0
0
-0.00127626
0
0
-0.106497
-0.0402395
0.0346502
-0.00499165
0.0441296
0.0270978
0.0699357
-0.0899101
-0.0507269
0.0865703
0.03911
0.0122644
-0.0478612
-0.00545461
-0.0168621
-0.015416
-0.00499357
-0.056491
-0.0591931
0.00267157
0.0180364
0.00115417
0.00321013
-0.0113583
-0.00321665
-0.0191509
-0.00351345
-0.00921095
0.00505557
0.0107728
0.00765701
0.0172085
0.0169439
-0.0198281
0.0298361
0.0252011
-0.0243783
0.037442
0.0437486
0.0777428
0.0138367
0.107396
0.100472
-0.267432
0.132117
-0.152027
-0.0924749
-0.173532
0.0559508
-0.0984829
0.029365
-0.0154253
0.0251199
-0.00998364
-0.0111194
0.0364603
-0.00943453
0.00369294
0.045996
0.0148078
-0.00690511
0.0497412
0.0474901
-0.0152817
0.0237215
0.0538301
-0.00568268
-0.00702904
0.0255324
-0.0214878
-0.00448901
0.03361
0.0386173
0.00496275
0.0394866
-0.0246529
0.0180927
0.0419471
-0.0202655
0.0269511
0.0519159
0.0153754
0.0625968
0.0323455
0.00861082
0.043552
0.023926
0.0404055
0.05637
0.00654435
-0.00931397
-0.0320195
-0.0357573
0.0384722
-0.0303963
-0.0271816
-0.000170868
-0.0143987
0.106096
-0.0198065
0.0503639
0.0254247
-0.0105864
0.0595604
0.0355167
0.0578067
0.0840752
0.00310024
-0.0140587
0.0909779
-0.0170906
-0.0141659
-0.0059638
-0.0180935
-0.000723239
-0.000329664
0.0141576
0.0336148
-0.0247193
-0.0214639
0.00985881
-0.0197096
-0.023153
0.00210706
-0.01125
0.0240115
-0.0176169
0
0.0137335
0.00973926
-0.0132157
-5.96917e-05
0.0047992
0.0109663
0.00578495
7.33676e-05
0.0101585
-0.0158355
-0.0269362
-0.0112565
-0.0518754
0
0
0
0
0
0
-0.000217294
0
0.000339222
0
0
0
0
0
0
0
0
0
0
0
0
0
0
0
0
0
0
0
0
0
0
0
0
-4.57018e-05
0
1.34992e-05
0
-4.38119e-06
-3.54019e-06
2.45491e-06
0
-2.73355e-06
5.62688e-08
-1.93295e-06
0
-2.41371e-06
0
0
0
0
0
0
0
0
0
0
0
0
0
0
0
0
0
-0.0212311
-0.0414942
-0.0157407
0.000485571
-0.029973
0.0270291
-0.044997
-0.024936
0.0214431
-0.0419328
-0.0234851
-0.0289001
-0.0208212
-0.0223679
-0.00991804
-0.0109241
-0.014555
0.00543798
-0.0116034
-0.0206227
-0.000399443
-0.0178056
-0.0146292
-0.00722319
-0.0046485
-0.00606799
0.00581617
0.00542465
-0.0119337
-0.0028821
0.019668
0.00615309
0.000893484
0
0
0
0
0
0
0
0
0
0
0
0
0
0
0
0
0
0
0
0
0
0
0
0
0
0
0
0
0
0
0
0
0
0
0
0
0
0
0
0
0
0
0
0
0
0
0
0
6.96435e-05
0.000589614
0.0630062
0.0826007
-0.031956
0.0396773
0.0813369
-0.00512774
0.0414852
0.0524275
0.00496234
0.0356596
0.0492463
-0.00306575
0.0359387
0.0400013
-0.0118385
0.00372602
0.034986
0.0183073
-0.0234558
0.0235351
-0.0305939
0
0
0
1.42868e-06
0
0
0
0
0
0
0
0
0
0
0
0
0
0
0
0
0
0
0.0214945
0.000934782
-0.0042123
0.0360668
0.000519235
0.00697125
-0.0267917
-0.00347523
-0.0105433
-0.00527595
0.023182
-0.0240616
-0.00897642
0.0535065
0.0176518
-0.0317806
-0.0359943
0
-0.0307825
-0.0038442
0.00903479
-0.0156392
-0.0459005
0.0169097
-0.043814
-0.0195809
0.0119584
-0.0115507
-0.0688484
0.0153704
-0.041444
0
0
0.000609302
0
0
0
0
0
0
0
0
0
0
0
0
0
0
-0.0871538
0.116943
0.00290452
-0.075618
0.0267109
-0.076415
-0.0940943
-0.0176569
0.0515108
-0.0668276
0.123558
-0.077801
0.047344
-0.150478
-0.036866
-0.0232503
-0.123829
-0.0728077
0.113443
-0.038021
0.0123877
-0.0812207
-0.0501154
0.024904
-0.0181434
-0.00591666
-0.00952591
0.0217656
-0.00322742
-0.000944416
-0.0599786
0.0324532
0.000895072
-0.00829945
0.00831912
0.0231688
-0.00415711
0.0107985
0.010021
-0.00803857
0.0155778
0.00695884
0.00975904
0.0107253
0.00985024
0.00144805
-0.0236501
0.0437799
0.139515
0.0237538
0.110472
-0.119107
-0.353769
-0.0390145
-0.223906
-0.0288053
-0.206274
0
0.00947746
-0.0149809
0.0319554
0.00498262
7.25126e-05
0.00906172
0.0130225
0.0296541
0.00666775
0.0178825
0.0351518
-0.0195061
0.0172844
0.0419813
0.0239123
0.0312389
0.0429792
-0.0115171
0.0231107
0.0355603
0.0186089
0.0115422
0.0113618
-0.035525
0.0397085
0.0666644
0.0419681
0.0381807
0.0683701
0.0291262
0.0573218
-0.0191913
0.000557218
0.0793468
0.0154536
-0.00328914
-0.0187711
-0.0393718
0.012014
0.0211882
0.0251365
0.0183738
0.0742574
0.0261326
-0.0367938
0.0830436
0.155902
-0.0505421
0.0761444
0.0565624
-0.0187234
0.0796727
0.0108955
-0.0602407
0.0554743
-0.0257538
-0.090901
0.104031
-0.0280161
-0.0919782
0.127278
0.0282495
0.0617735
0.114092
0.0442653
0.0600143
-0.0722675
0.0588646
-0.0680188
0.0933591
-0.0437187
0.0445966
0.0615004
0.00778334
0.0988236
0.00318556
-0.0609848
0.0389576
-0.0529964
0.01534
-0.0127062
-0.059777
0.0516176
-0.0556159
-0.0134313
-0.0174338
-0.060713
0.055948
-0.062024
0.00230798
-0.00889436
0.0592292
-0.0288968
-0.0607723
-0.0174223
-0.00904525
-0.0578397
0.00109095
-0.0520249
-0.0367075
-0.0325558
-0.0415585
-0.0206569
-0.0396731
0.0358717
-0.0488356
-0.0323978
-0.0196953
-0.0246703
0.0369303
-0.0525253
0.0101576
-0.0133177
-0.00285271
0.00308769
-0.00348565
-0.0256601
0.0100786
-0.0186397
0.00758535
0.00330534
-0.0221194
-0.088376
0.0192689
-0.0169255
-0.0174681
-0.0645039
0
-0.0168314
-0.016491
0.0262357
-0.0303073
0.000125275
0
-0.00297627
0
0.0244774
-0.046252
-0.0113133
-0.0262587
-0.0392923
-0.0109698
0
-0.0168132
0
0
0
0
0
0
0
0
0
0
0
0
0
0
0
0
0
0
3.62958e-05
9.66499e-05
0
0
0
0
0
0
0
0
0
0
0
0
0
-2.69778e-05
-0.000126059
0
0
0
0
0
0
0
0
0
0
0
0
-2.26953e-06
0
0
0
0
0
8.35048e-06
2.9861e-05
0
-4.70679e-05
-5.23421e-05
-9.1563e-05
0
0
0
-3.60837e-05
0
-0.00012347
-5.95781e-05
4.90254e-05
0
1.51998e-05
-9.97836e-05
-0.000101579
-0.000120648
-3.18431e-05
-2.4131e-05
-7.33038e-05
-2.9355e-05
0
0
0
-0.000134276
0
0
0
0
0
0
0
0
0
0
0
0
0
0
0
0
0
0
-0.000114611
0
5.31542e-05
0
-6.16226e-05
0
-0.00851623
-0.0443927
0.0308054
0.0127414
-0.0404648
-0.0438689
-0.0489374
-0.0154985
-0.0248286
-0.0446148
-0.0161945
0.0141792
-0.0119881
-0.00778247
0.00559202
-0.0184794
-0.00374675
-0.00556702
-0.0174086
-0.00976483
-0.0104582
0.00179569
-0.00201883
-0.00472524
-0.0202233
-0.0185495
-0.0140691
-0.00128133
-0.00868366
-0.0210956
-0.00132665
0.00672782
-0.0110867
0
0
0
-3.32328e-05
3.6659e-05
6.73716e-05
0
0
0
0
0
0
4.58741e-05
0
-1.74008e-05
0
0
0
0
0
0
0
0
0
0
0
0
0
0
0
0
0
0
5.83789e-05
6.15181e-05
3.30342e-05
0
-5.53053e-05
0
-0.000918892
0
0.000246931
0.0107221
-0.000151847
-0.0223764
0.0501647
-0.0342382
0.00665103
0.0482692
0.0467753
0.0191283
0.035679
0.0686683
0.0234705
0.0315992
0.0582984
-0.021956
0.0204565
0.0491194
-0.0340804
-0.00865619
0.0437438
0.0416837
-0.0266267
0.0457049
0.0348859
2.85276e-05
0
0
5.6469e-06
0
2.25428e-05
0
-7.05725e-07
0
6.7471e-08
0
1.83179e-06
-1.27358e-06
0
0
0
0
0
0
1.04837e-05
0
0
-8.02251e-06
0
0
0
0
0
0
0
0
0
0
0
0
0.00102325
0.0335707
-0.0159
0.00912418
-0.0161543
-0.00135932
0.0188282
0.00353819
-0.0161494
-0.000631062
-0.02976
-0.00222255
0.00630344
0.00443442
0
0
-0.000413574
0.000284131
0
0
0
0
0
0
-0.0103066
0
0
-0.0389893
0
-0.0220102
-0.0226722
-0.0156107
0.0127603
0
0
0
0
0
0
0
0
0
0
0
0
0
0
0
-1.44227e-05
0
-1.43626e-05
-0.0595088
-0.102437
-0.0332255
-0.0819494
-0.126609
-0.0105474
-0.0726219
-0.0724513
-0.00913896
-0.113121
-0.0696937
-0.0473555
-0.0490266
-0.0488809
0.00802015
-0.0543803
-0.0699916
-0.0394668
-0.0456374
-0.051177
0.0105677
-0.0599554
-0.0580085
-0.00382086
-0.047117
-0.0562885
0.0186042
-0.0228033
-0.0592049
0.0311265
-0.00615327
-0.0467988
-0.0325354
0.00321092
-0.0286049
-0.0209651
-0.00629554
-0.0309967
-0.000752757
0.023612
-0.0198332
-0.0132448
0.0164677
0.0125412
-0.200479
-0.0816073
-0.0163888
-0.121546
-0.0479616
0.106267
-0.0978276
-0.0837742
-0.0831661
-0.132106
-0.0381153
-0.00414697
0.00920726
0.0205331
0.00764646
-0.0562386
0
0
-0.0287015
-0.0146454
-0.0300744
-0.0167059
0.00346645
-0.025652
0.00699434
-0.0107848
0.00905657
-0.00229826
-0.0446238
-0.0643249
-0.00579021
-0.036713
0
0.00166924
0
0
-0.545363
0
0
0
0
0
0
0
0
0
-0.000289507
0.0247295
0.0281174
0.0448369
-0.0107478
0.0113029
0.0205815
0.00506906
-0.00425599
0.0579885
0.0417778
0.0140713
0.00746185
-0.0129693
-0.00336064
-0.000230958
-0.00802039
0.020378
0.0197206
-0.0375537
0.0343448
0.0572591
0.0693161
0.0346151
0.0332995
-0.0644182
0.0329605
0.0833848
0.0343099
0.0459486
0.0552731
0.0191516
0.0199533
0.00231544
-0.00680683
0.0611645
0.10539
-0.00925138
0.0243087
-0.00711695
0.0330223
-0.0329892
0.00732228
0.000522237
-0.0190097
0.00684388
-0.0395885
0.00929788
0.0780485
0.0518804
0.0437309
0.00557416
-0.0752341
0.0695399
0.00460806
0.0820868
0.111685
-0.00472748
-0.0681986
0.109995
0.0542383
-0.0626998
0.0638518
0.0473901
0.0709458
0.0948693
0.00450133
0.0721317
0.0515723
-0.0111438
-0.0664707
0.0483716
-0.00692969
-0.0671039
0.0469518
-0.0118419
-0.064613
0.0409563
-0.0198305
-0.0611018
0.00920467
-0.0260539
-0.0473444
-0.0212874
-0.0339569
-0.0274376
-0.0316891
-0.0576243
0.00782415
-0.0336674
-0.0300408
-0.00128551
-0.0289288
-0.0171227
-0.0438198
0.0131531
-0.0281043
0.0126337
-0.00724349
-0.0167351
-0.0150869
0.0238738
0.0148725
-0.0103146
0.0145981
-0.0111412
0.0123687
-0.0243775
0
0.00848941
-0.0373178
0.0035674
-0.0414146
0.0276737
-0.0260524
-0.0176764
0.0140174
0.00620831
0.0229947
0
0.00390251
-0.0149916
0
0
0
0
0.00192681
-0.00291927
0
0
0
-0.0205375
0
0
-0.000167931
0.000259059
0.000147865
0
-2.18769e-05
0
0
0
0
0
0
0
0
0
0
7.23052e-05
8.83277e-05
-2.49983e-05
0
0
0
-3.03535e-05
0
0.000115718
0
-4.75383e-05
0
0
0
0
0
0
0
0
5.382e-07
-5.75823e-05
-0.00023825
0
3.88297e-05
0
-0.000156521
0
0
0
0
0
-0.000199144
0
0
-6.96965e-07
-1.96377e-06
0
0
0
0
-6.10128e-05
-2.54907e-05
0
0
0
-6.22061e-05
0
0
0
0
0
-1.77082e-05
0
0
-0.000134142
0
0
0
0
0
0
0
0
-0.00013397
0
7.60023e-05
-5.6302e-05
0
5.5678e-06
0
-5.06455e-05
0
0
0
0
0
0
0
0
1.26794e-06
0
0
0
0
-0.00229552
-0.0592343
0.032646
0.0183412
-0.050788
-0.0431602
-0.0425647
-0.012242
-0.0135036
-0.0228601
-0.00834572
-0.0223304
-0.0231639
-0.00769055
0.000510538
-0.017112
-0.000700708
0.0160057
-0.015121
-0.0120083
0.0038963
-0.00126936
-0.0308945
-0.00226713
-0.0279444
-0.00373348
0.0205548
-0.000330622
-0.007646
-0.0143759
-0.00252206
0.0047546
-0.00367349
-3.71059e-05
0
-1.51337e-05
7.3932e-05
-8.81115e-06
-2.25344e-06
0
0
0
0
0
0
0
0
0
0
0
0
0
0
0
0
0
0
0
0
0
0
0
0
-8.51285e-05
0
0
0
0
0
0
0
0
0
0
0
-0.0280958
0
-0.014038
0.022867
-0.0383171
-0.00800371
0.032607
0.0196226
0.0200833
0.0277316
0.0501906
-0.0357492
0.0263206
0.0574321
0.0344507
0.00734156
0.0555031
0.0496981
-0.000618462
-0.0200872
0.0430569
-0.0371307
0.0504822
-0.0504129
0
0
0
0
0
0
0
0
0
0
1.46854e-06
0
0
0
0
0
0
2.91088e-05
2.4818e-06
-0.00136917
0
0
0
-6.72167e-05
0
0
0
0.000225055
0
-0.00021331
0.0121448
4.99719e-05
-0.000294539
0
0
0
0
0
0
0
0
0
0
-0.00095137
0
-0.0648475
-0.00293551
0.00755047
-0.0448825
-0.0159149
0.0199356
0
-0.049097
0.0148925
-0.000129713
0
0
-0.0463453
0.00675868
-0.00192486
0.0295451
0
0
0
0
0
0
-1.17996e-05
-1.72083e-05
1.09932e-05
0
-8.57664e-06
0
-0.0203612
0
0.00136019
-0.0118067
0.00101448
0
0
-8.79909e-08
0
-2.99183e-06
0
0
0
0
0
0
0
0
0
0
0
0
0
0
0.0339834
0.0321667
0.012163
0.0165339
-0.0102822
-0.0208441
0.0433397
0.024876
-0.0175376
-0.0210108
-0.0105584
0.0468541
-0.00846084
-0.0473992
-0.00622489
0.0512265
0.0140689
0.00886413
-0.0158726
-0.010016
-0.0117291
-0.00486196
-0.00494099
-0.0120038
0.00593857
0.00700097
-0.0166833
0.0221178
-0.0061818
0.0156011
-0.0266211
0.0256596
-0.00656512
-0.0359117
0.0121437
0.0414772
0.0192566
0.0073682
-0.009499
0.0130892
0.0100182
0.00171629
0.0203773
0.0167437
-0.00050312
-0.0567844
-0.0824926
-0.0225508
-0.0800248
-0.102333
-0.00124389
-0.077596
-0.059145
0.0107839
-0.0983822
-0.0585262
-0.0307227
-0.0353303
-0.0520182
0.0136735
-0.0481996
-0.05232
0.0267671
-0.0601214
-0.0560465
0.0104918
-0.0340995
-0.0535734
-0.0381306
-0.0215463
-0.0654011
-0.0496713
-0.0128907
-0.0523843
-0.0485371
-0.0155569
-0.0481449
-0.0216708
-0.0119335
-0.0331184
-0.00985984
-0.00257669
0.0137473
-0.0131086
-0.018175
0.00280755
0.00048623
-0.112027
-0.133439
-0.0589294
-0.0446704
-0.0358757
-0.100699
-0.0404933
-0.100096
-0.0411832
-0.0703786
0.046963
-0.0400752
-0.0117578
0
-0.039547
-0.0620216
-0.0181735
-0.0261826
-0.0054964
0.0162182
-0.00319724
0.00394352
-0.0102014
0.00925859
0.00741594
0.00904245
0.0224079
0.00865068
-0.00528463
0.038735
0.0116477
-0.0248446
0.0464181
0.015966
-0.00654315
0.0437582
0.0365708
0.00641628
0.0507451
0.0513555
0.0606472
0.0130535
0
2.09252e-05
3.09451e-05
0
-0.00527502
0.0456527
-0.0484162
0.00288296
-0.010634
-0.0764874
-0.00777631
0.0171249
1.80432e-05
-0.0446929
-6.90063e-06
3.92654e-05
-3.42385e-05
-2.25659e-05
0
-5.3339e-05
0
0
0
0
0
0
0
0.00469826
0
0
-0.00734499
0.0194944
0.0574305
0.0100982
0.0126989
-0.000475038
-0.0174927
0.0472493
0.000981856
0.0337491
0.0348753
-0.060646
0.028696
-0.0188437
0.0459283
0.000146362
0.00472768
0.0139548
-0.00469864
0.0920202
0.0498046
0.00441107
0.0394692
-0.0727283
-0.00232568
0.0408604
-0.0608299
0.0188673
-0.000408534
-0.0747624
0.0488858
0.0130425
0.0281847
0.111353
0.035974
0.0354674
0.0419002
0.0679969
-0.00398608
0.0775156
0.0158913
0.0177648
0.0805041
0.00840981
-0.0293045
0.0304359
0.123167
-0.0665818
0.00401459
0.119058
0.0507369
0.105364
0.0611154
0.0810279
0.0893322
0.00609904
-0.0913848
0.0991857
-0.0146349
-0.0536668
0.0639917
0.032933
0.0862333
0.0818111
-0.00628251
0.0925745
0.061072
-0.00181813
-0.0763584
0.0627374
0.00229761
-0.0778795
0.0475574
-0.00417318
-0.0724919
0.0369514
-0.0254677
0.0694861
0.0262067
-0.0371065
-0.0561926
-0.0158246
-0.030482
0.0224652
-0.0324117
-0.0392453
-0.00266655
-0.047726
-0.0198925
0.00227229
-0.0451754
-0.0662939
-0.011936
-0.0321964
-0.0104033
-0.020546
-0.0190371
-0.019169
0
0.00377922
0.001878
0
-0.0219915
0
0
-0.0365091
0
0
0.0981044
0
-0.000321784
-0.0227911
-0.00431815
0
0
0
0
-2.43594e-07
0
0.00015742
0
0.000812348
0
0
-8.00473e-05
0
6.89614e-06
0
-0.000253059
0
3.19125e-06
0
0
0
0
0
0
0
0
6.83305e-05
-3.91984e-06
0
-7.90067e-05
0
5.51897e-05
1.32673e-05
-4.32864e-05
2.18372e-05
0
0
0
0
0
0
0
0
0
0
0
0
1.79228e-05
0
-0.000186624
0
0
0
0
0
0
0
0
0
0
0.00328553
0.00207496
0
-5.20456e-06
-3.3686e-06
0
0
0
-3.55847e-05
0
0
0
0
0
0
0
0
0
0
0
0
-4.50209e-06
-9.97144e-05
0
0
0
0
-6.07489e-06
-6.03064e-06
0
0
0
0
0
0
0
0
0
0
0
0
0
0
0
0
0
0
0
0
0
0
0
0
0
0
0
-1.45579e-05
0
-2.33769e-06
0
0
0
-6.6294e-05
0
1.48465e-05
0.00542825
-0.00845998
-0.0596593
-0.0211617
0.0399074
-0.0278148
0.0658902
0.0208376
0.000484588
-0.0412065
-0.0206668
0.0223033
-0.0206656
0.033262
-0.0226314
-0.00509932
-0.0193956
-0.0232951
-0.00301969
0.00214859
-0.0171207
-0.00713579
-0.0121006
-0.00506848
-0.00618942
-0.0121813
0.00233845
-0.000862825
-0.00426394
-0.00687976
0.0299546
-0.00921232
0.00455644
0.0162404
-0.00656951
0.00692075
0.000980231
6.79131e-06
0
0
0
0
0
0
0
0
0
0
0
0
0
0
0
0
2.43109e-05
0
-9.30117e-08
0
0
0
0
0
0
0
0
0
0
0
0
0
0
0
0
0
0
0
0
0
-0.0287347
0.0199381
0.00991721
0.00138983
-0.00859527
-0.0103707
0.00125481
-0.00319836
0.0319007
0.0305855
0.00884447
0.00792144
0.0167266
0.0210351
0.0458002
0.0305811
0.00766719
0.0437064
-0.0335992
0.00749177
0.0470511
0.0422464
-0.0434932
0.035078
0
0
1.25658e-05
-3.96587e-07
0
0
0
0
0
0
0
0
0
0
2.65408e-05
0
0
0
0
0
0
0
0
0
0
0
0
0
6.55158e-06
1.17192e-05
0
0
0
0
0
0
0.000176125
0
0
0.000182705
0
-7.11655e-05
0
0
0
0
0
0
0
0
0
0.000122272
0.000254
-0.00013475
-0.00755959
-0.0652034
0.0054107
-0.0135865
0.0028351
-0.0286688
-0.000361717
0.0287556
-0.0322453
0.0351942
0
0.000708406
0
0
0
0
0.00574246
-0.0314893
0.0167196
0
0
0
0
0
0
0
0
0
0
0
0
0
0
0
0
0
0
0
0
0
0
0
0
0
0
0
0
0
0
0
0
0
0
0
0
-0.0340869
0.0260045
0.0181412
-0.0337163
-0.0126683
0.021103
-0.04886
-0.0333566
-0.00893948
-0.0807875
-0.0402638
-0.0373147
0.0125516
0.00894026
0.00280625
-0.00543646
0.0100085
0.0127263
-0.0136276
0.0145557
-0.027703
0.0010371
0.0258706
-0.0370973
0.0141376
0.00537199
0.00278825
0.0109888
0.00734297
0.00679675
0.00700109
0.010844
-0.00590863
-0.0593701
-0.0625103
-0.0060883
-0.0712531
-0.0686726
-0.0205301
-0.069015
-0.0518021
-0.0111887
-0.0742676
-0.0609757
0.000596501
-0.0332893
-0.0756113
0.0121805
-0.029298
-0.0473325
-0.00377604
-0.000344787
-0.0723531
-0.0161736
0.0425837
-0.0421513
-0.0332249
-0.00076685
-0.000268773
-0.0571153
-0.0574101
0.000505044
-0.0556746
-0.0595003
-0.00673472
-0.049176
-0.0502584
-0.022414
-0.0436762
0.026626
-0.0192375
-0.0401825
0.00186542
-0.000619527
0.0146798
0.00924601
-0.0293539
-0.000967978
0.00986984
-0.0696537
-0.0610541
0.0631956
-0.059362
-0.101206
0.0567506
-0.0559926
-0.103701
-0.0358665
-0.102011
-0.0578456
0.0444054
-0.0243294
-0.165354
-0.00582303
0.00933507
-0.0537051
0.0521197
-0.0112035
-0.0306358
0.0129772
-0.0201909
-0.00537056
0.00692698
-0.0198406
0.000653798
0.00942565
0.0122641
0.0094659
0.00339508
-0.00781933
0.0183004
0.00451382
0.0142766
0.0270497
-0.000980458
-0.0161198
0.0427713
0.0359691
0.000377533
0.0290725
0.0453387
0.0165319
0.0101139
0.028425
-0.012887
-0.00175897
0.0123616
-0.00118664
0.00736421
0.0124016
0.0229035
0.0379723
0.0248574
-5.30386e-05
3.03004e-05
0.000170069
-0.00015177
-0.035173
7.2113e-05
0
-0.0237137
0
0
0
0
-0.000174193
0
0
0
0
0
-9.92804e-05
0
3.7997e-05
0
-1.73231e-05
-2.21191e-05
0
0
0
0
4.31949e-05
3.59896e-05
0
-0.0219035
0
0.0412771
0
-0.00835295
-0.0114296
0.0133577
-0.00138784
0.00954304
0.013768
-0.0377554
0.0488027
0.0792524
-0.061386
-0.0257506
0.0977785
-0.0573869
-0.0571829
0.0240427
0.017227
-0.0530087
-0.020832
-0.0757171
0.0505269
0.104193
0.0844996
0.0354447
0.11321
0.0251391
0.0586475
-0.00223857
-0.0305886
0.0804066
0.00473385
-0.0295084
0.0061167
0.00798846
-0.00822745
0.0093166
-0.0258544
0.00966243
0.0579475
0.00203285
-0.0384535
0.0457057
0.103823
-0.0661817
0.0288506
0.093156
-0.05148
0.079462
0.0451681
-0.0828478
0.0375679
0.000334275
-0.0731637
0.0735357
-0.0538928
0.0966665
0.0220379
-0.112874
0.079862
-0.00356334
-0.0854005
0.0736977
0.0150356
-0.0819758
0.0651762
0.00245369
0.0837177
0.0389552
-0.0179299
-0.0786681
0.0229678
-0.0426449
0.068089
-0.00467983
-0.0403167
-0.0334057
-0.0391044
-0.0356217
0.00907068
-0.0497067
-0.0283897
0.0154316
-0.0481351
-0.0418088
-0.0337325
-0.0484127
0.00648139
-0.0170766
-0.0258131
-0.0370484
0
0
0
0
0
0
0
0
0
0
0
0
0
0
0
0
0
0
0
0
0
0
-0.000316503
0
0
0
0
0
0
-8.55781e-06
0
0
0
0
0
0
0
0
0
0
0
0
-1.11734e-05
6.8282e-05
5.49766e-05
0
2.57395e-05
0
0
0
0
0
0
0
0
0
0
0
0
0
0
0
0
0
0.00291751
-0.0026274
-8.74563e-05
0
0
0
0
0
-8.55981e-06
0
0
0.00110641
0
-0.00166699
0
-0.00592806
0
0
4.25749e-05
-9.59383e-05
7.01692e-06
0
-3.37183e-05
0
0
0
0
0
0
0
0
0
5.3233e-05
-1.95833e-05
0.000118274
0
-9.73362e-05
0
-2.87459e-05
8.17664e-05
-5.55912e-05
0
1.02008e-05
0
0
0
0
1.29158e-05
0
-7.39554e-05
0
-2.71945e-05
-3.31047e-05
0
0
0
-8.04851e-07
-5.72164e-06
0
0
-2.28987e-05
0
-9.88032e-06
0
0
0
0
0
8.08591e-06
0
0
0
0
0
-8.2561e-06
0
9.52715e-06
0
0
0
-3.92728e-05
0
0
0
0
0
0
0
0
0.0397888
0.0228462
0.0287894
0.0264531
0.0220628
0.00661417
0.0156866
0.0162576
0.026249
0.0283156
-0.00493003
-0.0368894
0.014338
3.37209e-06
0.0142666
-0.0146895
0.0142877
0.0290153
0.0161725
-0.0180328
-0.0235155
-0.0068863
0.00715939
-0.0101102
-0.0116367
0.0149741
-0.0036065
-0.0039585
0.00954948
0.00358692
0.00929827
0.0083027
0.0102554
0.0116072
0.00976357
-0.011438
-0.00568764
0.0566342
-0.00899141
0.00308615
0
0
0
0
0
0
0
2.52017e-05
0
0
0
6.4379e-05
-0.0589877
-0.0400759
0.000108373
0
0
0
0
0
0
0
-4.38653e-05
0
0
0
0
-9.21515e-07
0
1.80545e-06
0
8.81884e-07
0
0
0
0
0
0
-0.00878719
0.00588075
-0.00550039
-0.0129163
-0.0122708
-0.0174663
0.0184242
-0.009606
-0.00494999
0.00256391
0.00424221
-0.021006
-0.00680342
0.000518298
-0.00357977
-0.0146435
0.0094832
0.00573068
0.00898571
0.00552648
0.0164109
-0.012292
-0.0206282
0.0179042
5.50845e-07
0
0
1.90651e-06
6.48864e-05
-1.05069e-05
8.43518e-05
0
-1.95208e-05
0
1.0289e-06
0
-8.52337e-06
0
9.56965e-06
0
0
0
0
0
0
0
3.8229e-05
0.000192988
5.30058e-06
0.000257549
2.50891e-05
0
1.17302e-06
0
0
-1.90675e-05
0
-1.57884e-06
0
0
9.14306e-05
-8.37403e-05
0
0
0
0
0
0
6.10826e-06
4.54108e-05
0
0
0
0
0
0
0
0
0
0
0
0
0
0
0
0
0
0
0
0
0.0181045
0.00824333
-0.00027931
0.00154081
-0.0291599
-0.0230119
0.00963742
-0.0303416
-0.0171812
0
0
0
0
0
0
0
-3.55327e-05
-2.01146e-05
2.12486e-05
0
0
0
0
-2.20292e-05
0
0
0
0
0
0
0
0
0
0
0
0
0
0.00803566
0
0
0
1.03029e-05
3.95517e-06
-6.91879e-05
0
7.55632e-05
0
0
0
0
0
0
0
0
0
-3.01272e-05
0
3.05856e-05
-0.0419882
0.0101526
-0.0307116
-0.0545275
-0.00648854
0.00159425
-0.0210409
-0.0236907
0.0122986
0.0333843
0.00207367
-0.0219912
-0.0111353
-0.0367914
-0.0304585
-0.0456412
0.0220088
-0.0188921
-0.0251723
0.0421899
0.00726242
0.0164226
0.0194096
-0.00115673
0.0117836
0.0173576
-0.00447482
0.0157862
0.0229816
-0.0150711
0.0206763
0.0314188
0.00836446
0.0080965
0.0159147
0.00460622
0.0131227
-0.0103125
-0.00572318
0.00975396
0.0244943
-0.0558455
-0.0376286
0.00391168
-0.0777417
-0.0454461
-0.0454701
-0.075285
-0.058813
0.0100832
-0.0597462
-0.0747746
-0.0265946
-0.00815287
-0.04116
0.0348397
-0.0341063
-0.0349873
-0.0204707
-0.0358422
-0.0049835
-0.0308182
-0.00612094
-0.00928618
-0.0062894
0.0105809
-0.0321181
0.0333915
0.0128297
-0.021981
0.0473798
-0.0118626
-0.0399467
-0.0366322
-0.0271444
-0.0508063
-0.0308191
-0.0219515
-0.037109
0.0212906
-0.0071246
0.0197941
-0.00649498
0.00269331
0.0156527
0.0243647
-0.0921911
-0.0278018
-0.0689575
-0.0771835
-0.0908047
0.0425237
-0.0742042
-0.0829819
0.0466289
-0.0922048
-0.061515
-0.00134236
-0.0243977
-0.0349705
-0.0184666
0.0275589
0.00757232
0.0366514
-0.013053
-0.0272708
0.0249548
0.0228019
-0.00269498
-0.00299055
-0.0288579
-0.0201183
0.0275867
0.00311499
-0.00327909
0.00921313
0.0161617
0.0159971
0.00679128
0.00381316
0.0322608
0.0166086
-0.0112766
0.0366868
0.0290554
0.00136477
0.0236223
0.0359285
0.0100911
0.0184139
0.0312832
-0.0134533
-0.00190218
0.0173991
-0.0186669
0.0211054
0.016667
-0.00376802
-0.00676263
0.0143161
0.0316574
-9.71135e-05
0
0
0
0
0
0
0
0
0
0
0
0
0
0
0
0
0
2.21302e-05
0
0
0
0
0
-1.25617e-05
0
-5.31929e-05
0
-2.95477e-05
0
0
0
0
0.0533488
0
-0.440377
0.00165805
-0.00203199
-0.112752
0.152741
-0.0839521
-0.0720039
-0.031723
0.0520068
0.0761255
-0.0747866
-0.0650672
-0.0049092
-0.0137069
-0.0197949
-0.0510929
0.0349847
0.105203
-0.0551402
0.0487169
0.0330654
0.0369983
0.0475465
0.0679705
0.0044609
0.0470247
0.0222258
0.0358834
-0.0132078
-0.00728459
0.041002
0.0206589
0.025156
0.0334565
0.0453541
0.0934734
-0.0300591
0.105272
0.0447263
-0.0516498
0.0668766
0.117054
-0.0840413
0.0733289
0.130073
-0.0792057
0.0948868
0.0351601
0.0775684
0.131439
-0.0143131
-0.106342
0.0910582
0.0308357
-0.0896956
0.0891468
0.0215242
-0.0836852
0.0783339
0.0111225
-0.0887583
0.0617958
-0.0136292
-0.0859445
0.0372719
-0.0249045
-0.079941
-0.00486838
-0.0429911
0.0454893
-0.0469869
-0.0416596
0.00751386
-0.0650557
-0.0386075
0.0342777
-0.0486035