/*--------------------------------*- C++ -*----------------------------------*\
  =========                 |
  \\      /  F ield         | OpenFOAM: The Open Source CFD Toolbox
   \\    /   O peration     | Website:  https://openfoam.org
    \\  /    A nd           | Version:  8
     \\/     M anipulation  |
\*---------------------------------------------------------------------------*/
FoamFile
{
    version     2.0;
    format      ascii;
    class       volScalarField;
    location    "4440";
    object      Hclip;
}
// * * * * * * * * * * * * * * * * * * * * * * * * * * * * * * * * * * * * * //

dimensions      [0 1 0 0 0 0 0];

internalField   nonuniform List<scalar> 
526318
(
0.807748
0.765773
0.838807
0.748245
0.822453
0.776854
0.788768
0.705553
0.777225
0.642509
0.640587
0.753841
0.701543
0.735744
0.695199
0.723277
0.696102
0.894952
0.802732
0.847701
0.844255
0.796477
0.551659
0.794032
0.688361
0.560548
0.817687
0.821764
0.820856
0.834961
0.863065
0.908275
0.893478
0.774392
0.770766
0.743067
0.745444
0.83812
0.767235
0.713069
0.776093
0.746733
0.406352
0.471638
0.37794
0.416644
0.406574
0.510222
0.691919
0.607977
0.682476
0.685098
0.638451
0.590771
0.0980821
0.340203
0.337672
0.137452
0.854271
0.860321
0.886529
0.834634
0.78422
0.912636
0.900005
0.865133
0.853607
0.848073
0.758753
0.750427
0.858988
0.633782
0.688202
0.588493
0.53847
0.53549
0.628615
0.622689
0.53913
0.582471
0.658859
0.663256
0.619832
0.5678
0.598831
0.66768
0.667623
0.6454
0.59599
0.664935
0.571238
0.517897
0.517258
0.445631
0.44303
0.446514
0.447138
0.446386
0.438962
0.442458
0.001
0.001
0.001
0.001
0.00299968
0.001
0.355011
0.148623
0.471724
0.438629
0.483377
0.593305
0.819758
0.709941
0.820517
0.832206
0.902118
0.873763
0.915979
0.435713
0.442235
0.444674
0.440705
0.397045
0.440302
0.351212
0.387593
0.300462
0.352223
0.30056
0.300385
0.290463
0.26465
0.255301
0.283022
0.225197
0.278355
0.225412
0.248526
0.19129
0.200265
0.221244
0.246764
0.231831
0.189649
0.189739
0.205392
0.19954
0.191759
0.197935
0.217026
0.200347
0.2031
0.207213
0.204677
0.172385
0.200363
0.210067
0.170054
0.12148
0.209054
0.152801
0.209745
0.701695
0.800484
0.743885
0.728976
0.530505
0.603988
0.531389
0.533264
0.530073
0.53481
0.556481
0.532392
0.46586
0.436452
0.401259
0.344739
0.408724
0.444742
0.449499
0.449235
0.33785
0.383791
0.268813
0.281617
0.28632
0.280196
0.280671
0.284238
0.275004
0.278764
0.271995
0.262468
0.241587
0.2685
0.267277
0.229681
0.211379
0.243407
0.22306
0.214187
0.232526
0.22009
0.228905
0.194981
0.201461
0.237618
0.239777
0.68567
0.702224
0.734381
0.7051
0.690019
0.688789
0.68918
0.562298
0.604984
0.352253
0.325772
0.340339
0.447199
0.592505
0.469088
0.497583
0.509976
0.451792
0.423726
0.001
0.001
0.0730281
0.294358
0.001
0.001
0.001
0.001
0.001
0.001
0.907813
0.879531
0.937416
0.920164
0.896981
0.886082
0.796482
0.87704
0.718205
0.669011
0.667979
0.665749
0.665452
0.667481
0.654245
0.654572
0.57066
0.634014
0.449019
0.511771
0.435313
0.454169
0.00100536
0.001
0.001
0.00100202
0.001
0.001
0.001
0.0710209
0.445229
0.259571
0.492901
0.498624
0.606542
0.709371
0.828065
0.834684
0.870682
0.84711
0.918557
0.94333
0.416513
0.420255
0.378296
0.348157
0.24929
0.285095
0.210515
0.220137
0.210221
0.202551
0.193977
0.199049
0.124057
0.146642
0.175446
0.225872
0.275952
0.244724
0.206464
0.204457
0.134902
0.121814
0.183478
0.228478
0.148467
0.191189
0.190195
0.158258
0.158118
0.124045
0.126007
0.0830868
0.0882534
0.0914329
0.0770294
0.201205
0.240755
0.202059
0.244135
0.601918
0.565931
0.46142
0.547405
0.468811
0.518405
0.531845
0.520642
0.534976
0.534034
0.445781
0.358908
0.282829
0.265116
0.341053
0.291369
0.270196
0.389958
0.27864
0.325389
0.264445
0.263101
0.270265
0.261372
0.273347
0.271764
0.273141
0.274038
0.275907
0.272857
0.281656
0.273383
0.286622
0.284457
0.290221
0.267145
0.280014
0.266557
0.237264
0.236695
0.266864
0.29281
0.293543
0.265577
0.249186
0.27286
0.314639
0.316128
0.321381
0.284407
0.315638
0.332076
0.373928
0.320004
0.326903
0.355747
0.380983
0.512494
0.589941
0.50271
0.532465
0.618523
0.679634
0.586418
0.453315
0.568798
0.46443
0.484405
0.205847
0.163029
0.166782
0.187254
0.303532
0.43248
0.351146
0.429917
0.419038
0.444085
0.418404
0.001
0.001
0.0037635
0.001
0.0878544
0.001
0.001
0.00100998
0.001
0.00100962
0.001
0.00100889
0.001
0.001
0.001
0.001
0.93366
0.914776
0.958623
0.938845
0.923191
0.894173
0.815474
0.736066
0.668254
0.677503
0.654241
0.657278
0.634282
0.636277
0.614358
0.61306
0.559529
0.61134
0.532489
0.470889
0.417036
0.375807
0.001
0.0011238
0.00112366
0.001
0.001
0.001
0.001
0.001
0.00112359
0.00112287
0.001
0.00100984
0.001
0.00100942
0.00128847
0.001
0.001
0.001
0.001
0.001
0.001
0.001
0.00105585
0.001
0.162574
0.00145265
0.363984
0.518528
0.534718
0.623377
0.845578
0.737488
0.854835
0.859773
0.871616
0.902594
0.937082
0.949666
0.331752
0.337578
0.291526
0.314808
0.257752
0.21655
0.210619
0.209858
0.203961
0.210369
0.164843
0.157231
0.0964857
0.121861
0.169476
0.147646
0.120808
0.160547
0.156419
0.183732
0.0895885
0.0809071
0.0998657
0.114031
0.113521
0.0691815
0.0762533
0.0643034
0.0743591
0.0550169
0.055627
0.355837
0.326982
0.333799
0.327852
0.349802
0.465166
0.420121
0.396256
0.282014
0.324684
0.306021
0.313854
0.21774
0.157586
0.329811
0.44427
0.326994
0.332472
0.312517
0.396607
0.37076
0.447207
0.479592
0.40784
0.385676
0.425631
0.296225
0.27306
0.265317
0.268174
0.186416
0.239194
0.165049
0.108169
0.09798
0.213722
0.214719
0.259379
0.262374
0.26545
0.26752
0.264767
0.274336
0.265772
0.278056
0.265508
0.287698
0.281249
0.293843
0.289126
0.314196
0.299782
0.327914
0.328402
0.278316
0.260623
0.326665
0.308721
0.30151
0.313059
0.297479
0.291267
0.332439
0.322581
0.412188
0.42094
0.377209
0.41295
0.426227
0.399413
0.493301
0.459059
0.529005
0.550703
0.565205
0.486427
0.479733
0.487406
0.440993
0.431364
0.392977
0.489298
0.339731
0.317633
0.365448
0.383116
0.0709126
0.115476
0.198874
0.323449
0.349299
0.39142
0.291425
0.247584
0.212068
0.154073
0.001
0.001
0.001
0.001
0.00165658
0.0601198
0.001
0.001
0.00100979
0.001
0.001
0.001
0.001
0.001
0.001
0.001
0.001
0.001
0.001
0.001
0.001
0.00101
0.001
0.00100053
0.001
0.001
0.00118836
0.001
0.001
0.00118836
0.00118837
0.00118837
0.001
0.001
0.001
0.001
0.001
0.001
0.001
0.001
0.00100959
0.001
0.0010078
0.00100281
0.001
0.001
0.919756
0.936356
0.957602
0.939297
0.919888
0.84963
0.670038
0.750919
0.63774
0.636061
0.616985
0.616043
0.605848
0.610218
0.598727
0.607871
0.547439
0.515315
0.420621
0.456459
0.321264
0.348128
0.001
0.001
0.001
0.001
0.001
0.001
0.001
0.001
0.001
0.001
0.001
0.001
0.001
0.001
0.001
0.001
0.001
0.00100737
0.001
0.001
0.001
0.001
0.001
0.001
0.001
0.001
0.00105858
0.001
0.001
0.001
0.0221043
0.001
0.0403286
0.0393703
0.337516
0.17066
0.542038
0.507926
0.567767
0.675557
0.775657
0.860959
0.874596
0.85544
0.901042
0.931999
0.91604
0.920016
0.00101
0.001
0.001
0.001
0.001
0.001
0.001
0.001
0.001
0.001
0.001
0.001
0.001
0.001
0.001
0.00101
0.001
0.309784
0.320256
0.313303
0.282527
0.199425
0.234342
0.160351
0.154255
0.117799
0.112472
0.0666441
0.0645881
0.0955588
0.0977676
0.0543871
0.0907168
0.0825452
0.135706
0.112017
0.117291
0.0335809
0.00862889
0.00762605
0.0495168
0.0604804
0.0581845
0.035424
0.0380618
0.00111035
0.001
0.001
0.001
0.548463
0.528557
0.55804
0.573082
0.531595
0.47779
0.64726
0.6779
0.738822
0.737747
0.281288
0.327168
0.377261
0.467352
0.29265
0.233675
0.271641
0.269807
0.0972002
0.158752
0.20783
0.0902901
0.3162
0.314668
0.30723
0.314265
0.333266
0.307882
0.330383
0.337784
0.222529
0.213637
0.109266
0.209093
0.190628
0.146137
0.103205
0.117279
0.0629259
0.0826216
0.0624759
0.146622
0.212017
0.142861
0.212461
0.265088
0.262655
0.259764
0.263061
0.268568
0.286743
0.279544
0.298297
0.291445
0.313568
0.309765
0.332879
0.330863
0.335037
0.33096
0.34292
0.331568
0.373537
0.346564
0.318504
0.305205
0.378444
0.341568
0.355056
0.391642
0.436185
0.44054
0.432852
0.434076
0.465343
0.519691
0.578263
0.601905
0.606914
0.585945
0.727406
0.676258
0.790118
0.829204
0.825603
0.85864
0.924004
0.779826
0.866052
0.898153
0.974614
1.0203
1.04889
1.06658
1.09762
1.04467
1.09662
1.056
1.13202
1.13217
1.18222
1.14897
1.21295
1.24144
1.23223
1.1798
1.24999
1.27036
1.23521
1.23389
1.29587
1.26954
1.30625
1.2421
1.24722
1.30512
1.2799
1.2299
1.23615
1.26037
1.28992
0.2827
0.251003
0.422654
0.419082
0.383552
0.384263
0.384766
0.143731
0.285257
0.001
0.00998615
0.119839
0.109367
0.001
0.0534509
0.0436316
0.213592
0.114
0.127811
0.0317781
0.028131
0.0402763
0.0511543
0.001
0.00103898
0.001
0.001
0.001
0.001
0.00101
0.001
0.001
0.001
0.001
0.00137669
0.001
0.001
0.001
0.001
0.001
0.001
0.001
0.001
0.00118541
0.001
0.001
0.001
0.001
0.001
0.001
0.001
0.001
0.001
0.00100231
0.001
0.001
0.001
0.001
0.00104256
0.001
0.001
0.001
0.00105128
0.00100986
0.001
0.00116144
0.001
0.001
0.0011301
0.00103088
0.001
0.00114152
0.001
0.0011162
0.00111612
0.001
0.001
0.00102026
0.001
0.001
0.001
0.001
0.001
0.00100983
0.00100977
0.001
0.001
0.001
0.001
0.001
0.001
0.001
0.00124087
0.001
0.001
0.911924
0.898482
0.870424
0.873944
0.788859
0.857721
0.679783
0.618533
0.607664
0.609594
0.607476
0.609646
0.545688
0.555369
0.40162
0.352163
0.320685
0.490175
0.493148
0.441746
0.436506
0.431262
0.001
0.001
0.00112278
0.0011231
0.001
0.001
0.001
0.001
0.001
0.001
0.001
0.00100893
0.001
0.001
0.001
0.001
0.001
0.001
0.001
0.001
0.001
0.001
0.00119883
0.00119912
0.001
0.001
0.001
0.0399667
0.155966
0.0426151
0.34468
0.499316
0.537636
0.561943
0.643572
0.761745
0.826687
0.796602
0.84663
0.778806
0.831071
0.869742
0.831439
0.823306
0.00124048
0.001
0.00101
0.001
0.001
0.00120231
0.001
0.001
0.0012023
0.001
0.00100237
0.001
0.001
0.001
0.001
0.001
0.001
0.001
0.001
0.001
0.001
0.001
0.001
0.001
0.00137047
0.00100963
0.289646
0.289275
0.206294
0.22651
0.103913
0.122551
0.0648149
0.0651776
0.0632481
0.0647033
0.0367441
0.0389018
0.0118532
0.011754
0.001
0.0265702
0.106936
0.0648047
0.112062
0.11063
0.001
0.001
0.001
0.001
0.001
0.001
0.001
0.001
0.001
0.001
0.0012497
0.001
0.772717
0.771758
0.603756
0.522628
0.518304
0.492913
0.77874
0.687358
0.934724
1.00748
0.898432
0.823353
1.02306
1.00934
1.07302
1.11962
1.15184
1.14565
1.17834
1.14649
1.20419
1.23275
1.22872
1.22961
1.24124
1.22986
1.23135
1.27233
1.22582
1.21735
0.334121
0.262982
0.406731
0.483018
0.269896
0.215084
0.267867
0.27149
0.0983039
0.142817
0.001
0.151856
0.0405204
0.302673
0.259163
0.317686
0.302456
0.311522
0.206014
0.103193
0.0319844
0.0162705
0.0326517
0.0645185
0.001
0.001
0.001
0.001
0.0765505
0.0688078
0.001
0.0906644
0.159863
0.108289
0.209132
0.163291
0.199191
0.253827
0.293426
0.267341
0.303612
0.304286
0.311996
0.306561
0.338405
0.343942
0.346231
0.363124
0.36374
0.364668
0.394535
0.407283
0.399966
0.393446
0.395993
0.389532
0.409158
0.425485
0.475889
0.469736
0.442015
0.472685
0.464428
0.495314
0.527766
0.595083
0.622543
0.621084
0.629961
0.698988
0.775802
0.856201
0.866351
0.997871
0.869449
0.928365
1.07556
1.09595
1.09422
1.13134
1.18312
1.2293
1.25037
1.24566
1.27857
1.29659
1.32891
1.32694
1.3155
1.32255
1.32147
1.30974
1.24274
1.30527
1.27219
1.22845
1.22758
1.25963
1.29193
1.3019
1.22901
1.29657
1.24624
0.0763336
0.0694534
0.142683
0.218182
0.105072
0.17731
0.303217
0.242713
0.28557
0.106361
0.0152945
0.001
0.001
0.073422
0.0674821
0.001
0.001
0.0236385
0.001
0.0278873
0.024137
0.0365725
0.0256131
0.0390994
0.0601105
0.001
0.001
0.001
0.001
0.00126559
0.0012593
0.001
0.001
0.001
0.00137629
0.001
0.001
0.001
0.001
0.001
0.00101
0.001
0.00118487
0.001
0.001
0.001
0.001
0.001
0.001
0.00100779
0.001
0.00105287
0.001
0.001
0.001
0.00112119
0.001
0.001
0.001
0.001
0.001
0.001
0.001
0.001
0.001
0.001
0.001
0.001
0.001
0.001
0.001
0.001
0.00137532
0.001
0.0010465
0.001
0.00100962
0.001
0.001
0.001
0.001
0.001
0.001
0.001
0.001
0.822353
0.818646
0.802319
0.807896
0.736187
0.798176
0.607847
0.66735
0.569085
0.565007
0.512327
0.49669
0.441188
0.442557
0.354717
0.252078
0.228426
0.393222
0.442896
0.4446
0.436967
0.433382
0.00112288
0.001
0.00112294
0.001
0.001
0.001
0.001
0.001
0.001
0.001
0.001
0.001
0.001
0.001
0.001
0.00100999
0.001
0.001
0.001
0.001
0.001
0.001
0.001
0.00101
0.001
0.001
0.00469899
0.0412501
0.227743
0.0651926
0.375724
0.506355
0.482542
0.592622
0.761116
0.66057
0.736238
0.737071
0.73121
0.756761
0.817711
0.810832
0.813363
0.788591
0.001
0.001
0.001
0.001
0.001
0.001
0.001
0.001
0.001
0.001
0.001
0.001
0.001
0.001
0.001
0.001
0.001
0.001
0.001
0.00110533
0.001
0.00110597
0.00120284
0.001
0.00101
0.001
0.001
0.001
0.001
0.001
0.001
0.162973
0.164385
0.12755
0.104226
0.0669588
0.0856988
0.0514689
0.0515679
0.205355
0.155306
0.132935
0.001
0.001
0.001
0.001
0.00153185
0.00153902
0.001
0.0193926
0.0787784
0.0349118
0.069093
0.0528243
0.001
0.001
0.001
0.001
0.001
0.00101647
0.001
0.001
0.001
0.001
0.001
0.001
1.35401
1.36193
1.39025
1.37178
1.40978
1.39469
1.41915
1.41096
1.46801
1.45392
1.41882
1.4681
1.43534
1.49319
1.32242
1.27062
1.28845
1.33887
1.3247
1.29229
1.29589
1.34542
1.35616
1.32835
1.31106
1.36494
1.34729
1.35359
1.37752
1.22945
1.23072
1.22501
1.22331
1.24611
1.26717
0.817897
0.767808
0.669694
0.565071
0.480282
0.570736
0.759775
0.744664
0.979839
1.00093
0.887836
0.965612
1.01262
1.06302
1.10668
1.15377
1.14328
1.15348
1.14432
1.17975
1.187
1.21733
1.20431
1.20604
1.20671
1.22081
1.19623
1.19762
0.381082
0.320518
0.264476
0.253737
0.30471
0.484493
0.460231
0.191944
0.250402
0.127835
0.0551683
1.338
1.35776
1.37756
1.38173
1.38913
1.39839
1.40118
1.42811
1.41281
1.43013
1.43372
1.47538
1.50114
1.52103
1.52229
1.52899
1.54313
1.56725
0.0251256
0.001
0.00165729
0.229432
0.128634
0.298829
0.195155
0.112041
0.0164614
0.0150452
0.0170933
0.0177318
0.001
0.001
0.001
0.001
0.001
0.001
0.0817599
0.0137952
0.001
0.105931
0.105233
0.108709
0.158513
0.11832
0.249184
0.190458
0.282669
0.244712
0.281329
0.304412
0.324012
0.353256
0.368693
0.369541
0.37849
0.375554
0.42762
0.418202
0.409783
0.409108
0.465042
0.440722
0.511717
0.469371
0.452108
0.492361
0.542553
0.531244
0.550771
0.588151
0.585364
0.53085
0.641547
0.67413
0.637835
0.625022
0.706463
0.791916
0.867224
0.93723
0.88168
0.907183
1.03492
1.0905
1.13093
1.11347
1.18
1.20919
1.2509
1.2737
1.269
1.2767
1.3344
1.32096
1.3175
1.33632
1.32723
1.33511
1.31361
1.32571
1.33198
1.32778
1.32688
0.0642443
0.0500909
0.0768188
0.001
0.0176258
0.03708
0.001
0.104225
0.018255
0.001
0.001
0.001
0.001
0.001
0.00166324
0.001
0.001
0.001
0.001
0.0238744
0.001
0.001
0.001
0.001
0.001
0.001
0.001
0.001
0.00116392
0.00116378
0.00125956
0.001
0.00108641
0.001
0.001
0.001
0.001
0.001
0.001
0.001
0.00100984
0.001
0.00116368
0.001
0.001
0.001
0.00100238
0.001
0.001
0.001
0.001
0.00240554
0.001
0.00100904
0.001
0.001
0.001
0.001
0.00100993
0.001
0.001
0.001
0.001
0.001
0.00107824
0.001
0.001
0.00104442
0.001
0.001
0.001
0.001
0.001
0.001
0.001
0.001
0.001
0.001
0.00101
0.001
0.001
0.001
0.001
0.001
0.001
0.001
0.001
0.001
0.001
0.00177665
0.001
0.001
0.001
0.001
0.00177087
1.5169
1.48386
1.46109
1.55841
1.59411
1.58675
0.799869
0.798685
0.784639
0.785508
0.709592
0.769371
0.602961
0.527826
0.456022
0.466406
0.440987
0.43936
0.439061
0.441809
0.312999
0.238426
0.325074
0.402809
0.400718
0.001
0.001
0.001
0.001
0.001
0.001
0.001
0.001
0.001
0.001
0.00100943
0.00106124
0.001
0.00232208
0.0366598
0.0669721
0.00100998
0.001
0.001
0.001
0.001
0.001
0.001
0.001
0.001
0.001
0.001
0.201184
0.347309
0.462505
0.461451
0.778672
0.700412
0.713448
0.500833
0.588819
0.678403
0.727658
0.727638
0.731905
0.749102
0.773221
0.771734
0.001
0.00111739
0.001
0.001
0.001
0.001
0.00100904
0.001
0.001
0.001
0.001
0.001
0.001
0.001
0.00100996
0.001
0.001
0.00101713
0.001
0.001
0.001
0.001
0.001
0.001
0.00102606
0.001
0.001
0.001
0.001
0.001
0.00103323
0.001
0.001
0.00100967
0.001
0.00107921
0.00104459
0.165267
0.196875
0.189663
0.123971
0.124331
0.100954
0.126752
0.001
0.0175903
0.001
0.001
0.135052
0.122175
0.001
0.001
0.001
0.001
0.001
0.001
0.001
0.001
0.0250168
0.001
0.0281372
0.037724
0.001
0.001
0.001
0.001
0.001
0.001
0.001
0.001
0.001
0.001
0.001
0.001
1.35063
1.36757
1.38999
1.41435
1.42854
1.41977
1.46233
1.42635
1.27894
1.28153
1.26589
1.28685
1.31867
1.28447
1.32948
1.30424
1.21915
1.20392
1.2012
1.23271
1.25719
1.23356
0.822582
0.757426
0.639427
0.741212
0.590309
0.497698
0.751293
0.748058
0.984159
0.987379
1.00412
0.903285
0.974147
1.09424
1.03988
0.978428
1.02238
1.12605
1.14309
1.13309
1.1376
1.14992
1.16752
1.19441
1.18977
1.19483
1.19418
1.19429
1.19343
1.19322
1.19398
0.228454
0.23864
0.378518
0.452589
0.238
0.309446
0.475102
0.490495
0.239437
0.159441
0.0830199
0.155733
1.37258
1.32126
1.34988
1.39247
1.39149
1.39664
1.40096
1.42824
1.44652
1.45588
1.45581
1.45974
1.48516
1.52587
1.50577
1.51993
1.54261
1.5879
1.56366
1.39775
1.41025
1.42219
1.59136
1.59315
1.59358
0.00165109
0.00166966
0.00167821
0.001
0.0468123
0.0635823
0.001
0.001
0.001
0.001
0.001
0.001
0.001
0.00127906
0.001
0.00127902
0.001
0.001
0.001
0.001
0.00176386
0.0359237
0.111007
0.0256587
0.182959
0.211238
0.141553
0.180202
0.247342
0.212498
0.340879
0.27846
0.345059
0.362713
0.373721
0.358923
0.407494
0.443645
0.493912
0.486635
0.495852
0.48033
0.508771
0.486775
0.539803
0.539504
0.560059
0.565072
0.540849
0.541114
0.665076
0.704004
0.613271
0.666549
0.713123
0.676546
0.779575
0.822117
0.926168
0.967032
0.942726
1.03275
1.08838
1.18322
1.17296
1.23258
1.20406
1.30049
1.30476
1.29524
1.33175
1.35633
1.35167
1.40459
1.37152
1.39947
1.37457
1.34675
1.39774
1.34858
1.37081
1.33196
0.001
0.001
0.001
0.001
0.001
0.00104485
0.001
0.001
0.00104713
0.001
0.001
0.001
0.001
0.001
0.001
0.001
0.001
0.001
0.001
0.001
0.001
0.001
0.001
0.001
0.001
0.001
0.001
0.001
0.00116386
0.0011638
0.001
0.001
0.001
0.001
0.00101
0.001
0.0010004
0.001
0.001
0.001
0.001
0.001
0.00178419
0.001
0.001
0.001
0.001
0.001
0.001
0.001
0.001
0.00220318
0.001
0.001
0.001
0.00125796
0.00114374
0.001
0.00100983
0.001
0.001
0.001
0.001
0.001
0.00107912
0.00107931
0.001
0.001
0.00108103
0.00108034
0.001
0.001
0.001
0.001
0.00131481
0.001
0.00131452
0.001
0.001
0.001
0.001
0.00100545
0.00105574
0.00106213
0.001
0.001
0.001
0.001
0.001
0.001
0.001
0.001
0.001
0.001
0.00114364
0.001
0.00100958
0.00100998
0.001
0.001
0.001
0.001
0.00101
1.4816
1.48475
1.49248
1.49579
1.52946
1.63653
1.60956
1.60545
1.63543
1.57467
0.705263
0.698376
0.633686
0.634686
0.592566
0.619088
0.533901
0.48854
0.475283
0.43968
0.412352
0.41544
0.32145
0.335175
0.211266
0.239796
0.244809
0.001
0.001
0.001
0.00101
0.001
0.001
0.001
0.0379054
0.17215
0.0384719
0.001
0.001
0.001
0.001
0.001
0.001
0.00101
0.001
0.001
0.00102251
0.001
0.001
0.001
0.001
0.001
0.574879
0.574179
0.620772
0.316312
0.46362
0.460753
0.49674
0.620797
0.685374
0.649633
0.562113
0.643392
0.66332
0.669567
0.593932
0.624604
0.001
0.001
0.00111748
0.00104973
0.001
0.001
0.00104488
0.00121581
0.001
0.001
0.001
0.00196973
0.001
0.001
0.001
0.0029812
0.00297797
0.00297305
0.001
0.001
0.001
0.00101714
0.001
0.001
0.001
0.00103473
0.001
0.001
0.001
0.001
0.001
0.001
0.00100136
0.001
0.001
0.001
0.001
0.001
0.001
0.001
0.001
0.001
0.001
0.001
0.001
0.180974
0.19201
0.199013
0.0686647
0.0902901
0.0476891
0.050232
0.001
0.001
0.001
0.001
0.00110971
0.00210971
0.001
0.001
0.001
0.001
0.001
0.001
0.001
0.001
0.001
0.001
0.0203183
0.001
0.0556915
0.00605589
0.001
0.001
0.001
0.00120914
0.001
0.001
0.001
0.001
0.00101
0.001
0.001
0.0013195
1.36311
1.31466
1.38728
1.34744
1.36131
1.38983
1.40441
1.45012
1.40885
1.46958
1.43326
1.41597
1.46828
1.45202
1.24717
1.24717
1.23919
1.24649
1.26749
1.27771
1.28162
1.28323
1.18994
1.19359
1.21317
1.20087
1.22922
1.23469
0.82878
0.759387
0.667471
0.752671
0.549221
0.640539
0.74904
0.7584
0.978389
0.973882
0.977844
0.912583
1.07023
1.11354
1.01863
0.97783
1.11991
1.12519
1.13565
1.12884
1.16107
1.18338
1.19436
1.18899
1.19091
1.19063
1.19045
1.19553
1.19343
1.19166
0.229653
0.226693
0.393324
0.466536
0.362736
0.299049
0.528837
0.463063
0.197377
0.231042
0.198258
0.112209
1.34908
1.40332
1.3998
1.40771
1.43681
1.41926
1.4583
1.4706
1.44077
1.4526
1.44925
1.45638
1.4611
1.48149
1.50658
1.52329
1.52558
1.58102
1.55207
1.60299
1.60496
1.47828
1.49263
1.60958
1.61638
0.001
0.001
0.001
0.001
0.001
0.001
0.001
0.001
0.00101
0.001
0.001
0.001
0.001
0.001
0.001
0.001
0.00176447
0.001
0.001
0.001
0.001
0.001
0.108748
0.013066
0.193948
0.204174
0.164707
0.112271
0.238767
0.27934
0.335565
0.324578
0.345465
0.331073
0.455447
0.394687
0.503158
0.504454
0.519742
0.526709
0.500327
0.559259
0.603716
0.576097
0.558864
0.582459
0.637439
0.622875
0.608238
0.645916
0.722792
0.728138
0.717708
0.741346
0.876165
0.791294
0.965066
0.990208
0.986321
1.05722
1.12806
1.20857
1.21383
1.22841
1.27458
1.31984
1.3572
1.35661
1.39346
1.365
1.41603
1.43728
1.43198
1.43911
1.43276
1.43115
1.43028
1.43919
1.397
0.001
0.001
0.00599058
0.00102575
0.001
0.001
0.001
0.001
0.001
0.001
0.00105244
0.00126447
0.001
0.00126786
0.00126313
0.00126442
0.00126744
0.001
0.00126543
0.00609695
0.001
0.001
0.001
0.002135
0.001
0.00213494
0.00213487
0.001
0.001
0.00100217
0.001
0.001
0.001
0.001
0.00104829
0.00104977
0.001
0.001
0.00100986
0.001
0.001
0.001
0.00168502
0.001
0.001
0.001
0.001
0.001
0.001
0.001
0.001
0.001
0.00100941
0.001
0.001
0.001
0.00100992
0.001
0.001
0.001
0.00101
0.001
0.001
0.001
0.001
0.001
0.001
0.00100223
0.001
0.001
0.001
0.00100949
0.001
0.001
0.001
0.001
0.001
0.001
0.001
0.001
0.001
0.001
0.00120442
0.001
0.001
0.001
0.001
0.001
0.001
0.001
0.001
0.001
0.001
0.001
0.001
0.001
0.001
0.001
0.001
0.001
0.001
0.001
0.001
0.001
0.001
0.001
0.001
0.001
0.001
0.001
0.001
0.001
0.00110117
0.001
0.001
0.001
0.001
1.66849
1.64523
1.66554
1.65887
1.66512
1.66733
1.50361
1.50946
1.57732
1.54734
1.62876
1.65602
1.63215
1.52149
1.47584
0.574186
0.572019
0.572191
0.55991
0.576477
0.50511
0.551506
0.337278
0.389103
0.251686
0.253031
0.199723
0.206843
0.205976
0.001
0.001
0.001
0.00125936
0.0110492
0.205185
0.0341071
0.001
0.001
0.001
0.001
0.001
0.001
0.001
0.001
0.001
0.001
0.001
0.00101642
0.001
0.00101613
0.001
0.001
0.001
0.57635
0.571892
0.575413
0.573618
0.576259
0.288571
0.402764
0.348569
0.463889
0.524098
0.550014
0.480694
0.561226
0.515407
0.511267
0.501617
0.001
0.00114468
0.001
0.001
0.001
0.001
0.001
0.00101758
0.001
0.001
0.0010159
0.001
0.001
0.001
0.001
0.001
0.001
0.001
0.001
0.00101586
0.001
0.001
0.001
0.001
0.001
0.00100951
0.001
0.001
0.001
0.001
0.001
0.001
0.001
0.001
0.001
0.001
0.001
0.001
0.00117133
0.00101
0.001
0.001
0.001
0.001
0.00100983
0.001
0.001
0.001
0.001
0.001
0.001
0.001
0.001
0.001
0.001
0.001
0.001
0.174582
0.109211
0.0957102
0.023886
0.0166944
0.001
0.001
0.00108732
0.001
0.001
0.00109634
0.001
0.001
0.001
0.001
0.001
0.001
0.001
0.001
0.001
0.001
0.001
0.0484535
0.001
0.001
0.001
0.001
0.001
0.001
0.001
0.001
0.001
0.001
0.00183527
0.00184088
0.001
0.001
0.001
0.001
0.00100972
0.001
1.32525
1.29894
1.34355
1.34529
1.32447
1.36856
1.37208
1.36695
1.38982
1.38652
1.45671
1.42628
1.39552
1.23453
1.23689
1.26071
1.25234
1.27577
1.27824
1.30791
1.28487
1.19457
1.20239
1.22033
1.20603
1.22087
1.23116
0.871994
0.793582
0.716325
0.756981
0.705483
0.605144
0.792876
0.751255
0.985509
0.977845
0.946558
0.988614
1.07478
1.11814
0.984667
1.02569
1.12199
1.1199
1.14552
1.12293
1.16783
1.19198
1.18465
1.19634
1.18058
1.19039
1.19101
1.19097
1.17987
1.18793
0.231944
0.282224
0.461671
0.450894
0.373827
0.450859
0.459005
0.548285
0.215875
0.216082
0.203833
0.131364
0.001
0.00701284
0.0907652
1.42318
1.44838
1.46309
1.46908
1.48243
1.49405
1.49852
1.49787
1.53559
1.50683
1.52425
1.48746
1.51948
1.53069
1.5537
1.57577
1.58509
1.58412
1.63441
1.6403
1.65519
1.63756
1.55216
1.55582
1.67473
1.67213
0.001
0.001
0.00101
0.001
0.001
0.00123259
0.00123248
0.001
0.001
0.001
0.001
0.0018914
0.00127067
0.001
0.001
0.001
0.00100232
0.001
0.001
0.001
0.001
0.00117942
0.0426751
0.0644748
0.0446608
0.14303
0.220817
0.098137
0.312555
0.261579
0.325412
0.327187
0.42925
0.351954
0.49226
0.509221
0.508558
0.521937
0.641989
0.607828
0.576282
0.635084
0.656619
0.650125
0.635273
0.634241
0.653734
0.643267
0.72537
0.765559
0.803904
0.764171
0.803008
0.836671
0.975212
0.913249
1.0007
0.989095
1.06422
1.1436
1.22941
1.22602
1.2652
1.29765
1.37393
1.36128
1.38563
1.38621
1.41262
1.42904
1.44432
1.44374
1.45134
1.45402
1.43921
1.44959
1.43861
1.44319
0.001
0.001
0.00102352
0.001
0.001
0.001
0.001
0.001
0.001
0.00126658
0.001
0.001
0.001
0.00126466
0.00126809
0.00126553
0.00126785
0.00126518
0.0012653
0.001
0.001
0.00100989
0.001
0.001
0.001
0.00100179
0.001
0.001
0.001
0.001
0.001
0.00101
0.001
0.001
0.00100863
0.00104944
0.001
0.001
0.001
0.00363887
0.001
0.001
0.001
0.00100996
0.001
0.001
0.001
0.00100983
0.001
0.001
0.00100647
0.001
0.00100976
0.001
0.001
0.001
0.001
0.001
0.00361654
0.001
0.001
0.001
0.001
0.001
0.00113654
0.00113643
0.00113644
0.001
0.001
0.001
0.001
0.001
0.001
0.001
0.001
0.001
0.001
0.001
0.001
0.001
0.001
0.001
0.001
0.001
0.001
0.001
0.001
0.001
0.001
0.001
0.001
0.001
0.001
0.001
0.001
0.001
0.001
0.001
0.001
0.001
0.001
0.001
0.001
0.001
0.001
0.001
0.00101
0.001
0.00104922
0.001
0.00117978
0.001
0.001
0.00111732
0.00105212
0.001
1.68855
1.70112
1.71592
1.66724
1.6752
1.658
1.66478
1.5612
1.57495
1.59115
1.60566
1.61069
1.64584
1.66952
1.51478
1.54713
1.46641
1.50188
1.49382
0.571732
0.560848
0.466244
0.432716
0.530878
0.461201
0.474839
0.341792
0.364548
0.225193
0.201084
0.211239
0.202434
0.182502
0.001
0.001
0.119103
0.22865
0.0115037
0.001
0.001
0.001
0.001
0.001
0.001
0.001
0.00120659
0.001
0.001
0.001
0.001
0.00112371
0.001
0.001
0.001
0.001
0.001
0.001
0.528032
0.578887
0.547768
0.52834
0.292118
0.295533
0.312539
0.384821
0.500519
0.501189
0.450063
0.4992
0.498354
0.00100999
0.001
0.001
0.001
0.001
0.001
0.00131484
0.00131516
0.001
0.001
0.00102673
0.00100946
0.001
0.001
0.00100978
0.001
0.001
0.00180648
0.001
0.001
0.001
0.001
0.001
0.001
0.001
0.001
0.001
0.001
0.00136143
0.001
0.001
0.001
0.001
0.001
0.001
0.001
0.001
0.001
0.001
0.001
0.001
0.001
0.001
0.001
0.001
0.001
0.001
0.001
0.001
0.001
0.001
0.00172021
0.001
0.001
0.001
0.001
0.001
0.001
0.001
0.001
0.001
0.001
0.001
0.0966551
0.0120348
0.0121928
0.001
0.001
0.001
0.001
0.001
0.00139046
0.001
0.001
0.001
0.001
0.001
0.001
0.001
0.001
0.001
0.001
0.001
0.001
0.001
0.001
0.001
0.001
0.001
0.001
0.001
0.001
0.0116957
0.001
0.001
0.001
0.001
0.00141985
0.00101
0.001
0.001
0.001
0.001
0.00100999
0.001
0.001
1.32203
1.33796
1.28337
1.36895
1.33105
1.3626
1.38527
1.36623
1.37347
1.42928
1.37872
1.45498
1.42851
1.49705
1.22098
1.23975
1.2408
1.25952
1.2422
1.26551
1.29332
1.25747
1.18865
1.20321
1.20282
1.21486
1.20758
1.21291
0.927875
0.841114
0.736748
0.758028
0.64949
0.750111
0.75462
0.818465
0.988506
0.991849
0.992441
0.966613
1.07635
1.1228
1.04616
1.00131
1.12
1.12911
1.12786
1.15412
1.1764
1.17093
1.18106
1.20253
1.19744
1.18878
1.18622
1.18051
1.18809
1.19476
0.305947
0.221403
0.472515
0.481442
0.389257
0.490599
0.475386
0.582181
0.207136
0.215907
0.182076
0.166046
0.114129
0.207074
1.44933
1.46932
1.48894
1.52688
1.51636
1.53962
1.55028
1.56099
1.56844
1.55376
1.56306
1.58734
1.60573
1.61873
1.61995
1.62673
1.64916
1.67039
1.68321
1.67818
1.69241
1.56917
1.55443
1.71141
1.73465
0.001
0.001
0.001
0.001
0.001
0.001
0.001
0.001
0.001
0.00189125
0.001
0.001
0.001
0.001
0.001
0.001
0.00116753
0.001
0.001
0.001
0.001
0.001
0.0804273
0.0730102
0.001
0.144577
0.154208
0.236236
0.295226
0.268806
0.341915
0.284519
0.482532
0.418381
0.509798
0.515099
0.528175
0.591977
0.719587
0.722708
0.666081
0.698807
0.722365
0.67023
0.777362
0.711318
0.686842
0.719848
0.856924
0.862739
0.936565
0.980778
0.872588
0.955501
1.1028
1.04966
1.11961
1.08495
1.28244
1.24763
1.31279
1.33342
1.39817
1.41178
1.46859
1.43853
1.48193
1.4703
1.48983
1.52042
1.49434
1.52748
1.53758
1.49237
1.48092
1.52457
1.522
1.49262
0.001
0.001
0.00101
0.001
0.001
0.001
0.001
0.001
0.001
0.001
0.001
0.001
0.001
0.001
0.001
0.001
0.00100968
0.00126892
0.001
0.001
0.00126719
0.00101429
0.001
0.001
0.0013817
0.001
0.001
0.001
0.001
0.001
0.00111238
0.00102071
0.001
0.001
0.001
0.001
0.001
0.00100967
0.001
0.001
0.001
0.001
0.001
0.001
0.001
0.001
0.00102523
0.00102536
0.00102565
0.001
0.001
0.001
0.001
0.00106428
0.001
0.001
0.00106415
0.001
0.001
0.001
0.00100996
0.00104943
0.001
0.001117
0.001
0.001
0.001
0.001
0.00101
0.001
0.001
0.001
0.001
0.001
0.001
0.001
0.001
0.001
0.001
0.001
0.001
0.001
0.001
0.001
0.001
0.001
0.001
0.001
0.001
0.001
0.001
0.001
0.001
0.001
0.001
0.001
0.001
0.001
0.001
0.001
0.001
0.001
0.001
0.001
0.001
0.001
0.001
0.001
0.001
0.001
0.001
0.001
0.001
0.001
0.001
0.001
0.001
0.00117979
0.001
0.001
0.001
0.00111684
0.001
0.001
1.73777
1.72772
1.73419
1.71304
1.69601
1.72524
1.71327
1.6889
1.70816
1.57176
1.58768
1.59583
1.59483
1.6643
1.70157
1.72883
1.62616
1.50103
1.53496
1.50925
1.5046
1.49765
1.53552
1.42748
0.332239
0.432447
0.334869
0.377117
0.370262
0.281242
0.277292
0.286395
0.283309
0.281196
0.251995
0.176251
0.151867
0.0701521
0.0675957
0.19258
0.290692
0.001
0.001
0.00137927
0.001
0.001
0.00101
0.001
0.001
0.001
0.0010121
0.001
0.001
0.001
0.001
0.001
0.0012476
0.001
0.00111819
0.001
0.001
0.441456
0.363735
0.337767
0.42861
0.286135
0.3215
0.45636
0.376066
0.424138
0.502456
0.493895
0.00114051
0.001
0.001
0.00117068
0.001
0.001
0.00131509
0.00131526
0.001
0.001
0.00100995
0.001
0.001
0.001
0.001
0.001
0.00199617
0.00201421
0.001
0.001
0.00199468
0.001
0.00172059
0.001
0.001
0.001
0.001
0.00280731
0.001
0.00136167
0.00282221
0.001
0.001
0.001
0.001
0.001
0.001
0.001
0.001
0.001
0.001
0.001
0.001
0.00101
0.001
0.001
0.001
0.001
0.001
0.00110529
0.001
0.001
0.001
0.00140364
0.001
0.001
0.001
0.001
0.001
0.001
0.001
0.001
0.001
0.001
0.001
0.001
0.001
0.001
0.001
0.001
0.001
0.001
0.001
0.001
0.001
0.001
0.00132587
0.00132603
0.001
0.001
0.001
0.001
0.001
0.001
0.001
0.001
0.00152188
0.001
0.001
0.001
0.001
0.001
0.001
0.00152188
0.001
0.001
0.001
0.001
0.001
0.001
0.001
0.001
0.001
0.001
0.0947936
0.0158885
0.001
0.00101
0.0010979
0.001
0.00101462
0.001
0.001
0.001
0.001
0.001
0.001
0.001
1.2746
1.32402
1.28103
1.30623
1.30759
1.33528
1.3101
1.3402
1.3628