/*--------------------------------*- C++ -*----------------------------------*\
  =========                 |
  \\      /  F ield         | OpenFOAM: The Open Source CFD Toolbox
   \\    /   O peration     | Website:  https://openfoam.org
    \\  /    A nd           | Version:  8
     \\/     M anipulation  |
\*---------------------------------------------------------------------------*/
FoamFile
{
    version     2.0;
    format      ascii;
    class       surfaceScalarField;
    location    "4440";
    object      phi;
}
// * * * * * * * * * * * * * * * * * * * * * * * * * * * * * * * * * * * * * //

dimensions      [0 3 -1 0 0 0 0];

internalField   nonuniform List<scalar> 
788991
(
-0.0613188
0.00725129
-0.0583966
-0.0595232
0.0168974
-0.0682132
-0.0161395
0.0412106
-0.0624205
0.0712432
-0.0555685
0.118943
-0.0156227
-0.0919419
-0.0904219
-0.0775211
0.072724
0.0135891
-0.089569
0.066999
0.0400527
0.0385467
-0.0579479
0.0367026
-0.0390821
0.00921224
-0.102277
0.125181
0.19013
0.00375263
-0.0102011
0.0562371
0.0619445
0.0152348
0.0520659
0.0069946
-0.012067
-0.0212384
-0.0806097
-0.00807436
-0.0143838
0.0146086
0.0184562
-0.0459021
0.0805605
-0.0252886
-0.0590334
0.0624593
-0.00299222
-0.079138
-0.0682379
0.0948909
-0.0589294
0.0355193
0.0609072
0.000328456
0.18947
-0.358467
-0.101494
0.0741196
0.0498236
-0.073824
-0.158788
-0.0311206
-0.0604247
0.0660048
-0.0294353
-0.0794329
0.0300859
0.00527777
-0.076138
0.0348759
0.478479
-0.270427
-0.108781
-0.4398
0.147479
-0.0716392
-0.0252627
0.0683853
0.0743482
-0.0708259
0.0378401
-0.0229083
-0.041269
0.00689415
0.0745234
-0.0462709
-0.0628983
0.0354583
0.0516532
0.0313239
-0.0439157
-0.0375905
-0.0422319
0.0299951
0.0299689
0.0227752
-0.0176378
0.0237104
0.0137936
0.0173576
-0.0077256
-0.00313642
0.0129391
0.00130086
0.00908157
-0.00576806
0.00743301
0.000496744
-0.00370435
-0.00105667
0.00730157
0.0107086
0.00097766
0.0018071
-0.00689572
0.00687093
0.00258444
0.00382508
-0.0156499
0.00221835
0.000586262
0.00211186
0.00329765
0.0194331
0.00109913
0.0165018
0.000525978
-0.0145887
0.104309
0
0
0
0
-0.0126104
-0.0789349
0.00797293
0.0990813
-0.117089
0.196764
-0.112821
-0.0759222
0.116025
0.222546
0.05932
0.0517873
0.199296
-0.0383087
0.013791
0.0949041
0.0428049
0.0033867
0.0563828
-0.0414336
-0.0302656
0.0455686
0.00815053
0.0215889
-0.0122105
0.0217055
-0.0228823
0.0149062
0.0172328
-0.0068728
0.011843
-0.0160862
0.0260937
0.0234249
-0.0113266
0.00861209
-0.0196817
0.0307251
0.0457439
0.00283801
0.0213031
0.0236482
0.0284088
0.0426694
0.0172729
0.00600954
-0.045407
0.0379091
0.049388
0.0145168
0.000636801
-0.0209324
0.0303679
0.0356847
0.00817496
0.00327803
0.0292502
0.0147084
0.0294119
-0.0179462
0.00884374
-0.0476632
0.00563181
0.01936
-0.00613824
0.0162462
0.0111128
-0.0157384
0.00251583
-0.020989
-0.0133551
0.00821076
0.0274492
-0.0165773
0.00595068
-0.053192
3.75073e-05
-0.000355573
0.071916
0.059315
-0.007403
0.0555092
0.0490641
0.0528649
0.011344
0.0369185
0.0245693
0.0200502
-0.0113674
0.00544069
0.00460864
0.00531792
-0.00238595
0.000718819
-0.0102587
-0.00665172
-0.00331104
0.0148558
-0.000724281
-0.0153139
-0.00453938
0.00211841
-0.00232781
0.00070269
-0.00116191
0.00825183
0.00801209
0.0182272
0.0145147
-0.00963303
0.0410937
0.0189631
0.0289852
0.0405111
0.0304125
-0.0135772
0.0449035
0.0495766
-0.00505167
0.0354772
0.0415563
-0.0167672
0.0252915
0.0184443
0.000531119
0.00540153
0.00729873
-0.0192264
0.00268523
0.0300175
0.021018
0.0133898
0.0269866
0.000346352
0.00958509
0.0134225
0.0139695
-0.000746649
0.0137213
0.00656556
-0.00485604
-0.00837591
0.00713501
0.0314358
0.0318792
-0.0124967
0.000997199
-0.0430337
0.0714115
-0.0773157
-0.00576313
-0.0661976
-0.063535
0.0486159
-0.0522256
-0.0816015
-0.0624633
0.0209258
-0.0517344
0.119661
-0.215257
0.161447
-0.00386778
-0.0259931
-0.0396887
-0.0724541
0.00518935
-0.0614334
-0.0467133
0.00337438
0.0255257
0.000498982
-0.0295275
0.0192446
-0.162266
0
0
0.0893486
0.0318883
-0.0501464
0
0
0
0
0
0
0
0
-0.0312265
-0.0905978
0.065985
0.0154146
-0.0854471
0.087233
-0.0749868
-0.024799
0.0678119
-0.0317136
-0.0106757
-0.0338177
-0.0266064
0.00349498
0.0191129
-0.0122333
0.0107662
0.00996361
-0.000830109
0.0111822
0.00078981
-0.00136491
0.00461486
-0.0134085
-0.00273337
-3.74906e-06
-0.0135953
-0.000328143
0.00732887
-0.0240601
-0.00180897
0.0102754
-0.0150165
0
0
0
0
0
0
0
0
-0.123477
0
0.0431209
-0.166543
-0.0273864
-0.17721
0.124102
-0.100832
-0.0530654
0.101449
0.163841
0.0609349
0.0441723
0.176202
0.078352
0.011285
0.130607
-0.0910761
-0.0661481
0.10185
0.120206
-0.00196946
0.0195157
-0.0309168
0.00337497
0.0117677
0.03194
-0.00354009
0.00717096
-0.0266761
-0.013037
0.0283174
0.00375288
-0.0304383
0.00158522
0.0278873
-0.0413713
-0.00206752
-0.0105198
-0.00967466
-0.0110014
0.0174391
-0.0145601
0.0501398
-0.0358555
-0.012564
-0.0109525
-0.0146406
0.00784479
0.00308563
-0.0136954
-0.0134483
-0.00400453
0.00807906
-0.0446928
-0.0699427
-0.0534557
-0.00757691
0.0186246
-0.0813182
-0.0272716
0.0221077
-0.0418852
0.00735093
0.00483647
-0.0216124
-0.00971477
-0.0208355
-0.0165552
-0.0152042
-0.019132
-0.0256139
0.0272778
-0.0544873
-0.0420086
0.0472388
-0.0103691
-0.0408387
-0.0465472
0.0129123
0.0442527
-0.0372846
0.0219784
0.00499468
-0.0214405
-0.00221061
0.0103601
0.00439072
-0.00840371
0.0116856
-0.00459248
-0.00805297
0.0091382
0.00938653
-0.0190004
-0.0255848
-0.0147055
-0.016028
0.00657408
0.00837957
0.000957665
-0.0156615
-0.00510982
0.00290385
0.012833
0.00281679
0.0311349
0.0333074
0.00883955
0.0309269
0.0489374
-0.0142998
0.0308839
0.0433989
-0.0148478
0.023037
0.0274297
0.00153542
0.00645888
0.0194815
-0.0023248
0.00973471
0.0073835
-0.0109908
0.0156839
0.0460323
-0.0118204
0.0255203
0.0565273
0.0216139
0.0232279
0.0162058
0.00559446
0.0312149
0.0266814
0.00813454
0.0181125
0.0141453
-0.00380424
0.00859177
0.010261
0.0115539
0.028065
0.0104266
-0.0209381
0.0185863
-0.0292616
-0.0143024
0.00865689
-0.0665311
-0.00458407
0.0112045
-0.000885587
0.0371288
-0.00453881
0.0799459
-0.0222363
0.0365406
0.044714
0.0168328
-0.0111649
-0.054119
-0.0597703
0.0493141
0.0206296
-0.0517079
-0.0512122
0.0147205
-0.0416123
0.0694365
0.00916658
-0.00677985
-0.0305464
-0.0632228
0.0235364
-0.030664
0.111194
-0.00166898
0.0230171
0.0500821
-0.0881836
0.148275
0.250277
-0.0537117
0.0960268
-0.0551777
-0.0105219
0.0216437
0.0395392
-0.00625664
-0.0379508
0.0135619
-0.0210354
0
0
-0.22808
0
-0.0539542
0.0456423
-0.0388325
-0.131237
0
0
0
0
0
0
0
0
0
0
0
0
0
0
0.00314962
-0.0892094
0.0929217
0.0487324
-0.0875409
0.108845
-0.0510862
0.00195083
0.0564772
-0.0278755
0.00822536
0.0290545
-0.011241
0.0167568
-0.0195345
-0.0148874
0.0116159
0.0195848
-0.00406816
0.0144818
-0.018718
-0.00167737
0.0136921
0.0208547
-0.000324333
0.0164581
-0.02611
-0.00228641
0.0142828
0.0165786
-0.00488377
0.011594
0.0197802
7.54429e-05
0
4.35675e-05
0
0
1.70888e-05
0.000137106
-0.0001431
1.85066e-05
7.73692e-05
0
-6.95168e-05
0
0
0
0
6.50701e-05
0
0
-4.33069e-06
0
0
0
0
0
0
0
0
0.0109235
-0.0168368
-0.11837
0.00327938
-0.0281028
-0.130539
-0.0651056
0.0735977
0.0481345
-0.0971666
0.0445086
0.0573113
0.0914614
-0.0727104
0.035918
0.138235
0.0891079
-0.0140913
0.126376
0.113934
-0.059035
0.0908495
0.116725
-0.00133843
0.00641384
0.0414794
0.0129063
0.0194181
-0.0370073
0.0119317
0.0280942
0.0120736
0.0196191
0.00539364
0.00544434
0.00639942
0.0243621
0.00666719
0.0275768
0.0268827
-0.0217844
-0.00340826
-0.0198128
0.0123958
-0.0777856
-0.0350872
-0.0338534
-0.0243633
0.0368224
-0.0204649
-0.0683414
0.0536207
0.015446
0.0266999
-0.0728418
-0.012177
-0.040576
0.00913831
-0.0450458
-0.0225644
-0.0047541
-0.0172194
-0.00511122
-0.00631729
-0.0274999
0.00199395
-0.00571747
-0.00298078
0.0491183
-0.100185
-0.048446
0.0288786
-0.0390622
0.0428011
-0.00796054
0.0618327
-0.0781576
-0.0570744
0.0743889
-0.023453
-0.0275532
-0.0254043
-0.0719365
-0.0603952
0.00375242
-0.0242038
0.0217013
0.0378003
-0.0231407
-0.0254661
-0.01159
-0.0165242
-0.00372564
-0.0228806
0.0127044
0.0235755
-0.0243825
0.00810341
-0.0072134
-0.00234147
0.00342328
0.0117416
-0.00341475
-0.00223025
0.0201049
-0.00594622
0.00497948
-0.0120606
-0.00236562
-0.0036493
0.00513578
0.0112694
-0.00956984
0.0298894
-0.0138717
0.00383162
-0.0194932
0.0144552
0.0164919
0.02134
0.00815431
0.0336113
0.0278879
0.016315
0.018628
0.0433274
0.00917296
0.00321588
0.0205427
0.00180433
-0.00343188
-0.00199119
-0.00902062
0.0189374
0.0375704
-0.0181615
0.0143806
0.0393316
-0.0272646
0.00702661
0.0459196
0.0201414
0.0219781
0.053677
-0.0171897
0.0173886
0.0184147
-0.0135002
0.0256329
0.00741337
0.0213345
0.00708178
0.00862066
0.0215675
-0.0129812
0.0289906
-0.021142
-0.00216915
0.022987
0.00854808
0.041227
0.00552938
-0.00278449
0.0346976
0.0434434
0.00238876
0.0390993
0.0233759
-0.0109914
0.0162069
-2.666e-05
-0.0458833
0.0136549
-0.0453884
0.0499869
0.0491684
-0.000780889
0.00725655
0.0501161
-0.021342
-0.0632508
0.0339771
0.0363807
-0.0226151
-0.036437
-0.0323527
0.00185864
-0.0198763
-0.034179
-0.0248247
-0.00911711
-0.00604294
-0.0615009
0.00893747
-0.0266662
0.0144947
0.203302
0.164522
-0.0174456
0.0625811
-0.0588207
0.0315756
-0.0526114
-0.066502
-0.0218199
-0.0106252
0.0159007
-0.0147519
-0.0638638
0.00424459
0
0
0
0
0
0
-0.0739515
0.0144145
0.0893214
0
0
0
0
0
0
0
0
0
0
0
0
0
0
0
0
0
0
0
0
0
0
0
0
9.20732e-06
0
-2.49921e-05
0
-2.12714e-06
-8.73278e-06
5.56633e-06
0
-4.91636e-06
2.52482e-06
2.43845e-06
0
2.10051e-08
0
0
0
0
0
0
0
0
0
0
0
0
0
0
0
0
0
0.0245735
-0.0625875
-0.0800125
0.0549236
-0.0606719
0.0881311
-0.0208808
0.0207046
0.0414278
-0.00193049
0.0223842
-0.0244059
0.0020868
0.020049
-0.0167755
-0.00205717
0.0203792
0.0178124
-0.00296432
0.0256462
-0.0247168
-0.00343961
0.0173254
-0.0243581
-0.000393795
0.0234111
0.0158907
-0.00957949
0.00785581
-0.0128036
-0.0217563
-0.0185565
-0.00513395
0
0
0
0
0
0
0
0
0
0
0
0
0
0
0
0
0
0
0
0
0
0
0
0
0
0
0
0
0
0
0
0
0
0
0
0
0
0
0
0.000168135
0.000223003
0
0
0
0.093199
0
-0.0131008
0.0456039
0.0344628
0.0414832
-0.100572
0.0545674
0.0311586
-0.126894
-0.0736022
-0.0273183
-0.00294868
-0.0855255
0.0264672
0.0428242
0.0372733
0.0558533
0.0255845
0.101022
-0.064878
-0.0180355
0.0877596
0.0857278
-0.0365179
0.0632967
-0.0726064
0
0
0
5.97429e-07
0
0
0
0
0
0
0
0
0
0
0
0
0
0
0
0
0
0
-0.0155738
0.024015
0.0425909
0.00585507
0.0236229
0.0388231
0.00382212
0.00155623
-0.0109947
-0.00217352
-0.00248036
0.00226712
0.0180873
0.0265514
0.00445608
0.0204862
-0.0420235
-0.0511397
-0.0674347
-0.0277156
0.00239194
-0.0311193
-0.0160584
-0.00646071
-0.0716881
0.00233329
-0.0100663
-0.0458968
-0.0580696
-0.021086
-0.100028
-0.0760106
-0.0401913
0.0436319
-0.0411535
0.0430707
-0.0311411
-0.0897189
0.023502
-0.0127554
-0.0150052
0.00378705
-0.0400481
-0.0101917
-0.00604345
-0.0303358
-0.00259301
0
-0.0728943
0.0963438
0.00327121
-0.0531462
0.0209036
-0.0691162
-0.0807473
-0.0161298
0.0226419
-0.0806068
0.114103
-0.0616887
-0.00603998
-0.105443
-0.0534155
0.0651723
-0.0958322
-0.0295174
0.0609247
-0.0145104
-0.0332555
0.0337397
-0.0773674
-0.037503
0.00755332
-0.0383236
-0.0266804
0.00998272
-0.0350355
-0.000495744
-0.0613439
-0.00757753
-0.0127457
-0.0278503
-0.0066266
0.017225
-0.0192504
-0.00320678
-0.00675111
-0.00672395
-0.00265655
0.0250884
-0.00867283
0.00129808
0.00329005
-0.0157666
0.0127234
-0.0246204
0.00398563
0.0027893
0.0238822
-0.0390824
-0.0180968
0.0276819
0.0467913
-0.0208873
-0.0506584
-0.0120546
-0.00509502
0.0102964
-0.0140679
0.0128376
0.0237706
-0.00625261
-0.0026479
0.00217066
-0.0160886
0.0190044
0.012999
-0.0265831
0.0313281
0.0661709
0.0240657
0.0187191
0.0417258
-0.0322946
0.0205509
0.0398833
0.0541908
0.0185453
0.0541073
-0.0235549
0.00757155
0.0287892
-0.00226107
0.0167443
0.0266957
0.0184225
0.0213329
0.00833121
0.0071873
0.0311292
0.032329
-0.0313149
0.0135504
0.0425012
-0.0102148
0.0470325
0.049877
-0.000320392
0.0443602
0.0407314
0.00149363
0.0135596
0.00356489
-0.0362354
0.0222304
0.0582733
-0.0199091
0.0366002
-0.0290582
-0.0333689
0.0545253
0.0323709
-0.0431266
0.101744
-0.00662845
-0.0558786
0.132602
0.0183736
0.0742409
0.137905
0.0751465
0.0836013
-0.075831
0.0590338
-0.0719573
0.105287
-0.0711795
0.0617943
0.065833
0.017513
0.101045
0.0179732
-0.0577467
0.035514
-0.0446053
0.0119698
0.00442458
-0.043092
0.0320365
-0.0333396
-0.0123304
-0.00535507
-0.0426791
0.0377769
-0.0347855
-0.00877028
-0.00517986
0.0452667
-0.0239761
-0.0433905
-0.0230382
-0.0120603
-0.0448255
0.0137364
-0.0439551
-0.0185792
-0.0132695
-0.0425766
0.0105823
-0.0433177
0.0356889
-0.0395972
-0.03792
-0.0416859
0.0227581
0.000974063
0.0106799
0.0236403
-0.0452312
-0.105342
0.022557
-0.0168248
-0.000186588
-0.0180176
0.0296243
0.0459637
-0.0125873
-0.0183201
-0.0978397
0.026864
-0.0455854
-0.15561
-0.0281498
0.0731517
-0.0131627
-0.034394
0.124978
-0.147347
-0.0072938
0.165385
-0.0349252
-0.00435395
0.109613
-0.0299967
-0.109733
0.0492176
-0.0265648
-0.0107828
-0.0169495
-0.0157769
-0.0299572
0.0133603
0
-9.61262e-05
1.46462e-06
-0.0177237
0
0
0
0
0
0
0
0
0
0
0
0
4.09994e-05
0.000105568
0
0
0
-9.48933e-05
0
0
0
0
0
0
0
0
0
-2.77989e-05
-0.000146169
0
0
0
0
0
0
0
0
0
0
0
0
-2.85581e-07
0
0
0
0
0
-0.00033063
0.000429374
0
0
0
0.000357695
0
0
0
-0.000285714
0
-0.000195897
-9.45025e-05
-0.000399138
-0.000702317
-0.000687349
-0.000122198
-4.95601e-05
-0.000145799
-0.000538364
-0.00121939
-0.000192787
2.65551e-05
-9.24295e-05
0
-9.45629e-05
-0.000165138
0
-6.52944e-06
0
0
0
0
0
0
0
0
0
0
0
0
0
0
0
0
-0.000125825
0
5.80883e-05
0
-6.7919e-05
0
0.0358399
-0.0195996
0.0533033
0.0373103
-0.0178003
-0.039089
0.0141462
0.0311846
-0.0219996
0.0106185
0.0228629
0.00480576
0.00975915
0.0192688
0.00733266
-1.76413e-05
0.0247162
-0.0181727
0.00494782
0.0294813
-0.0166962
-0.00453275
-0.0243372
0.00973487
0.0100293
0.0027689
0.0284148
-0.0135561
-0.00400573
0.015684
0.000553695
-0.0067749
0.00478893
0
0
0
1.99415e-05
-1.07365e-05
0.00011823
0
0
0
0
0
0
6.36673e-05
0
0
0
0
0
0
0
0
0
0
0
0
0
0
0
0
0
-5.48769e-05
0
0
6.32804e-05
7.04888e-05
4.3948e-05
0
-6.00184e-05
0
0.00933858
0
0.0212066
-0.0424833
0.0275725
-0.0941294
-0.0896747
-0.0535715
0.00148704
-0.110784
-0.0927548
0.0121791
-0.016917
-0.080621
-0.00109699
0.0410132
-0.000528846
-0.00972315
0.0120818
0.0597085
-0.0237716
-0.00613387
0.0436127
0.0261818
0.00313123
0.00345789
0.0169835
6.17977e-05
0
0
8.38636e-05
0
-2.7233e-05
0
-1.04796e-06
0
3.21153e-08
0
2.94352e-06
-1.98327e-06
0
0
0
0
0
0
-0.000342406
0
0
0
0
0
0
0
0
0
0
0
0
0
0
0
0.00218588
0
0.0047658
-0.017139
0.0202799
-0.0321344
-0.0205386
0.00946502
-0.0169993
-0.0449034
-0.0307586
-0.0075546
-0.0604329
-0.0403677
0.034608
-0.051067
-0.0770684
-0.00621111
0.0289493
0.00389326
0.0143229
-0.0242962
-0.0379533
0.00760725
0.00121276
-0.0130833
0.0220263
0.0287822
0.00722678
-0.0306682
-0.0596519
-0.0443555
-0.180046
-0.0222023
0
0
-0.0268147
0
0
-0.0257333
-0.0021805
0
0
0
0
0
0
0
-2.87064e-05
0
-2.55496e-05
-0.0661142
-0.128955
-0.0567373
-0.0992718
-0.0956396
-0.0377205
-0.0768961
-0.108394
0.015553
-0.0998282
-0.0737778
0.00650677
-0.0504112
-0.0418576
0.0202459
-0.0473641
-0.0852323
-0.0715427
-0.0241969
-0.0366659
0.0130934
-0.0319454
-0.033334
-0.0088562
-0.0235048
-0.0287189
0.0261545
-0.0150981
-0.0419951
0.0270124
-0.0167502
-0.0386763
-0.026248
-0.0220829
-0.0473632
-0.0147262
-0.0271314
-0.0148218
0.0204138
-0.0269314
0.000620125
-0.042944
-0.0322911
0.00218858
-0.116958
-0.0290652
-0.0734792
-0.086746
-0.0506439
0.0414167
-0.0572236
0.0170929
0.0485392
-0.100396
-0.0143963
-0.0175928
0.0103309
0.0705314
0.134185
-0.0246778
0
0.0449506
0.00621109
-0.0278
-0.00785296
0.00331486
0.019997
0.00354721
0.00143803
0.012037
-0.0057494
0.0167017
0.00840995
-0.00825237
-0.0660273
-0.0682707
0.0101767
-0.0266659
-0.0508272
0.0373656
-0.233842
-0.0671561
0
-0.0240559
0
0
0.00807158
0
-0.0549434
0.00129681
0.0228887
-0.00157121
0.0115501
0.0114008
-0.0164515
0.0128789
0.0242753
-0.0246888
0.0164025
0.0815396
0.0557114
0.0310227
0.0656067
-0.0431351
0.0205332
0.047359
0.0304348
-0.0138449
0.0551349
-0.0192465
0.00173423
0.0338207
0.0243034
0.0225254
0.0338985
-0.0169434
0.0389415
0.0679257
0.0224455
0.0560724
0.0463665
0.0220532
0.0635973
0.0338284
-0.0345007
0.0510573
0.0497604
0.00622884
0.044393
0.0199258
0.00349696
0.0363999
0.036011
-0.0228744
0.00603248
0.103715
-0.0585052
0.00766681
0.0473955
0.033252
0.079745
0.0404799
-0.0502563
0.0676554
-0.00607949
0.0571986
0.111978
0.00243818
-0.0497142
0.113737
0.0589891
-0.0521185
0.0555825
0.0542416
0.0769457
0.0923387
0.0281583
0.0634038
0.0560422
0.0234634
-0.0590481
0.0386217
0.0153017
-0.0516309
0.0340024
-0.00565768
-0.0409591
0.0297282
-0.0180441
-0.0472769
0.0227291
-0.00422855
-0.0366827
0.0212164
-0.0126622
-0.025715
0.0206175
0.0276226
0.0251288
0.0159188
-0.0526764
-0.0162793
0.0218432
0.00940525
0.0288013
-0.0122232
0.0182899
-0.00888742
0.0175643
0.00554072
-0.00145544
-0.00182434
0.0108987
0.022797
0.000995674
0.0123716
-0.0492152
0.0648111
0.0109261
-0.0425174
0.0162731
-0.127534
0.0238871
0.0412858
-0.00452528
-0.014449
0.0311641
-0.0113802
-0.00691564
0.0240505
-0.0159226
0.00714944
0
-0.0240965
0
0.00414253
0.0465501
-0.0166579
-0.138026
0
0
-0.0706317
0
-0.0922911
8.6634e-05
0.0508527
0.0340652
-0.0549871
-0.00990039
0.0115693
-0.00317715
-0.0435111
0.056347
0
0
0
0
0
0
4.84882e-05
0.000230594
8.92585e-05
0
0
0
-4.37781e-05
0
0.000131755
0
-5.85451e-05
0
0
0
0
0
0
0
0
-1.03383e-05
-6.25878e-05
0
0
0
0
-0.00019179
0
0
0
0
0
0
0
0
-1.44186e-06
-3.38571e-06
0
0
0
0
-6.46305e-05
-2.70731e-05
0
0
0
-9.87211e-05
0
0
0
0
0
-6.98778e-05
0
0
-0.000176305
0
0
0
0
0
0
0
0
-0.000150921
0
8.51871e-05
-5.96666e-05
0
6.07959e-06
0
-5.34929e-05
0
0
0
0
0
0
0
0
1.94579e-06
0
0
0
0
0.0242695
0.0130724
0.0102883
0.00352463
0.00556973
0.00728328
0.0185979
0.0153095
0.0089067
0.02946
0.0150766
0.00627995
0.0174563
0.0192224
0.00145018
0.0133136
0.0294196
0.0137509
0.0126632
0.0280471
0.0196018
-0.00129165
-0.00300152
0.00382087
0.0112936
-0.000431797
-0.00407643
-0.0116533
0.0101836
0.0179742
-0.0109669
0.00454947
0.00184711
-0.000150386
0
-5.71999e-06
0
-9.72905e-05
-3.7273e-05
0
0
0
0
0
0
0
0
0
0
0
0
0
0
0
0
0
0
0
0
0
0
0
0
-9.66756e-05
0
0
0
0
0
0
0
0
0.00230664
0.00749953
0.00920219
-0.0233293
0.0475913
-0.000883243
-0.0812392
-0.0688478
0.00413672
-0.0832037
-0.0857109
0.00346131
-0.0108541
-0.0657283
0.0203946
0.0371285
-0.0129465
-0.0256376
0.013556
0.0233744
-0.00535915
0.0113642
0.0029322
-0.0204445
0.00795038
0.0123864
0.0101116
0
0
0
0
0
0
0
0
0
0
2.24335e-06
0
0
0
0
0
0
0
0
-0.00260616
0
0
0
-7.61887e-05
0
0
0
0.00021936
0
-0.000150924
-0.00212856
-0.00141654
-0.00309456
0
0
0
0
0
0
0
0
0
0
-0.00297605
0
-0.0293448
0.00690163
-0.00455396
-0.014588
0.0027976
-0.0162138
-0.0272779
-0.0133843
0.0387294
-0.00742656
0.00391658
-0.0107419
0.00282032
-0.0265805
0.00224612
0.0128862
-0.013351
-0.0277036
0
0
0
0
-0.000855723
-0.000772337
-0.00158313
-0.073866
0.000240551
0.0362691
-0.0404946
0.00939904
-0.0172168
0.055762
-0.0248669
-0.0299849
0
-3.20394e-06
0
-0.00125862
0
0
0
-8.04113e-05
1.01886e-05
0
0
0
0
0
0
0
0
0
-0.0101986
-0.0115418
-0.0103613
-0.0025061
0.000784495
0.0110337
-0.00556254
0.00886065
0.0274841
0.0205337
-0.0169124
0.0171601
-0.0276901
0.0148038
0.0283061
0.0273733
0.0109976
0.0102998
0.00418925
-0.0104728
0.0112059
0.015546
-0.00132566
-0.00482592
0.015654
-0.00506548
0.0253986
-0.0211085
-0.00515914
0.00801856
0.0129381
-0.0196715
-0.00613274
0.0198265
0.00527003
-0.0288071
-0.0255019
-0.0128361
0.0175036
-0.0224261
0.000536096
-0.026082
-0.000764899
0.0182062
0.0227671
-0.0565913
-0.101055
-0.0440949
-0.0851972
-0.105466
-0.0447737
-0.0683994
-0.094085
-0.0417656
-0.0898983
-0.0784541
-0.00179123
-0.0404548
-0.0335609
0.0290152
-0.0447717
-0.0762122
0.0547334
-0.027735
-0.0380087
0.000403096
-0.00473946
-0.0252336
-0.0315144
-0.00312103
-0.0271226
-0.0435598
-0.0157586
-0.0377414
-0.0302092
-0.0283589
-0.0419711
-0.0201596
-0.0417604
-0.0522422
-0.00433014
-0.0308479
-0.0311431
0.00737111
-0.0439037
-0.0338922
-0.00107337
-0.0456723
-0.1318
-0.0625642
-0.0563716
-0.0546768
-0.101932
0.0312688
-0.0828866
-0.0513931
-0.0300803
-0.0590633
-0.00198985
-0.0354844
-0.0366717
-0.069669
0.0971428
-0.00914489
0.00168276
-0.00764924
-0.00521798
-0.0226208
-0.00757106
-0.00909816
-0.0230718
-0.0179927
0.00923306
-0.0161718
-0.0175343
0.012472
-0.014787
-0.00622277
0.0125608
-0.0172051
-0.00391164
0.0226904
-0.0070327
0.00834905
0.0307623
0.0148434
-0.00114199
0.0118264
0.0295227
0.039278
0.000323755
-0.00254792
-0.0643384
0.00169024
-0.016268
0.0554916
0.0356713
0.0242273
-0.0655947
-0.00264918
-0.0450576
-0.00535329
-0.0980276
-0.090641
0.0187849
0.0104922
0.0305749
0
-0.0103812
0
0
0
0
0
0
0
0.00871039
0
-0.036085
-0.0134403
0.014355
0.0425946
-0.0389363
0.0338282
0.0711791
0.00286649
0.011672
-0.0426654
0.0237771
-0.0320836
0.065013
0.0131094
0.0281264
-0.03334
0.00346917
0.0131833
0.0300759
0.0138203
0.00228852
0.0268181
0.0342752
0.0245846
-0.024354
0.067472
0.104931
-0.0225554
0.0594989
0.0721235
-0.00636013
0.0643702
0.0373613
0.0107602
0.0797282
0.0178566
-0.00618754
0.0410109
-0.0108338
0.0300284
0.00911574
-0.0118435
0.00536634
-0.00564771
-0.00957091
-0.00671032
0.0180255
0.0600434
-0.0335648
0.0133723
0.0535243
0.020557
0.0412201
0.00300904
0.0566037
0.0647153
0.0479838
-0.0473447
0.0898727
0.039349
-0.0304231
0.0443454
0.0456321
0.0846127
0.0894631
0.0272724
0.063146
0.0730194
0.0382547
-0.0633352
0.0570482
0.0229679
-0.0538015
0.0313515
-0.00298606
-0.0442334
0.0215836
-0.0161516
0.0417548
0.0297773
-0.00998561
-0.0280465
0.0272252
0.00569393
0.0225131
0.0154521
0.023011
0.014906
0.0153343
-0.0566065
-0.00153385
0.0174086
0.0865362
0.00390534
0.0013107
-0.0675538
0.00886459
-0.00205251
0.0186182
-0.0313291
-0.0465363
-0.112241
0.0629427
-0.0746486
-0.0788101
0.033484
-0.0823853
0
0.00372704
-0.00227585
-0.127156
-0.088921
-0.0479939
-0.0478463
0
0
0
0
-0.0028545
0
-1.80851e-05
-0.0278434
-0.135516
0
0
-4.45324e-05
0
0.0159129
0
-0.0376467
-0.0573299
-0.0113755
0
-0.0905451
0
0
0
0
0
0
8.82174e-05
0.000115147
-3.45638e-05
8.96767e-05
0
0.000105413
2.66636e-05
-0.000242623
4.83616e-05
0
0
0
0
0
0
0
0
0
0
0
0
-8.95047e-05
0
-0.000250179
0
0
0
0
0
0
0
0
0
0
0.00330183
0.00209467
0
0
0
0
0
0
-3.76235e-05
0
0
0
0
0
0
0
0
0
0
0
0
-1.58516e-05
-8.89753e-05
-0.000119984
0
-9.14948e-05
0
-0.00021145
0
0
0
0
0
0
0
0
0
0
0
0
0
0
0
0
0
0
0
0
0
0
0
0
0
0
0
0
0.000159845
0
-0.000226357
0
0
0
0.000627559
0
4.99955e-05
0.0351622
0.0268629
-0.0193543
0.0342961
0.0205852
-0.0386654
0.0251728
-0.0109958
-0.00128472
0.0117124
0.0224241
-0.0173984
0.00307771
-0.0290588
0.0263256
-0.00536087
0.0170314
0.0285558
0.0182317
-0.00884557
0.0279616
0.0195181
-0.0112723
0.0204878
0.0212542
-0.00373198
0.00846521
0.00828188
0.00831358
-0.00711156
-0.0167659
-0.00128486
-0.00527605
-0.0069139
-0.00878147
0.00013106
-0.0027065
4.486e-08
0
0
0
0
0
0
0
0
0
0
0
0
0
0
0
0
0.000117043
0
-4.55905e-05
0.0164822
-0.0491779
0.00275672
0.0415514
0
0
0
0
0
0
0
0
0
0
0
0
0
0
0
0.00281021
0
-0.0461464
0.00389283
-0.00165747
-0.070615
-0.0552347
0.0028789
0.0033434
-0.00203123
-0.030624
-0.0300074
-0.0466726
-0.0595185
-0.0122581
0.00380881
-0.0490676
-0.0277851
0.0274735
-0.0184281
0.0296643
0.00883906
-0.0112119
-0.0146728
0.024401
-0.013001
0
0
1.97293e-05
-3.4773e-06
0
0
0
0
0
0
0
0
0
0
0
0
0
0
0
0
0
0
0
0
0
0
0
0
6.52755e-06
1.53135e-05
0
0
0
0
0.000131645
5.06526e-05
0.000438981
0
0
0
0
0
0
4.63562e-05
-1.80479e-05
0
0
0
0
0
0
0.00447778
0.000298588
0.00269919
0.000584634
-0.0108118
-0.0305825
-0.00516756
-0.0443473
-0.00611351
0.0273571
0.0211572
-0.0160315
-0.0277559
-0.0120234
0.013349
0.00356063
0
0
0
0.0106547
-0.0419884
-0.0317876
0
0
0
-7.01932e-05
0
0
0
0
0
-0.00818701
0
0
-0.0159196
0
-0.0261245
-0.0231178
-0.0149519
0.0405422
0
0
0
0
0
0
0
0
0
0
0
0
0
0
0
0
0
0
0.0147934
0.0135489
-0.0252254
0.0222882
-0.00692111
0.0091752
0.0277511
0.0173457
-0.00686109
-0.0515363
0.0354762
-0.0139716
0.00669121
0.0175629
-0.014341
0.0186588
0.0162229
0.00765839
0.0227737
0.00898614
0.0130859
0.0291486
0.0165067
0.0192504
-0.022522
-0.0106916
-0.00855269
-0.00984666
0.00222839
0.0151396
0.00345298
0.018786
-0.01949
-0.0733547
-0.0961728
-0.024328
-0.0766374
-0.0899785
0.0305591
-0.0916859
-0.0663622
0.0491042
-0.0774241
-0.0848554
-0.00537089
-0.0486392
-0.0575189
0.028885
-0.00175234
-0.062877
-0.0588716
0.01392
-0.048896
0.00497294
0.0370711
-0.0325385
-0.0241307
0.00777874
0.00776828
-0.0214732
-0.0342715
0.000645972
-0.0274719
-0.0264022
-0.0198925
-0.0270283
-0.0330152
-0.0446434
-0.0448671
0.0198656
-0.0487991
-0.0550198
0.00620366
-0.0383434
-0.0236503
-0.00631577
-0.0351479
-0.0221792
-0.0141137
-0.0671433
-0.0702603
-0.00818369
-0.0656977
-0.118958
0.0594098
-0.0885105
-0.119429
0.0405636
-0.0784698
-0.0763891
0.0202702
0.0185788
-0.0301382
-0.0466906
-0.0428459
-0.0513543
-0.0255756
-0.0224291
-0.00181281
-0.0447605
-0.00115908
-0.0228583
-0.00943521
-0.00545651
-0.0286242
0.0144783
-0.0140028
-0.0263156
-0.0154166
0.00699916
-0.0198244
0.00059569
-0.0192854
-0.0247516
0.00426199
0.0206134
-0.0308424
0.00158506
-0.0305546
-0.0151052
0.00725667
0.0265586
-0.0182966
0.0112865
-0.0290544
-0.0275529
0.00480323
-0.0229034
0.0131829
-0.012869
0.00742058
0.0120661
0.0350616
-0.00239015
-0.0012257
-0.000719116
-0.00391426
-0.0198663
-0.000356639
0.0229752
-0.0351182
-0.0216689
-0.166465
-0.0618175
0
-0.0156507
0
0
0
0
0
-0.000106246
0
4.04568e-05
0
-1.90617e-05
-2.35127e-05
0
0
0
0.0224346
3.36704e-05
2.78653e-05
0
-0.156827
0.0721313
-0.00579934
-0.233547
0.0546575
-0.0056637
-0.00597046
-0.00836355
-0.0102209
-0.0108568
-0.0304583
0.00581943
-0.00657004
-0.000783179
0.00065648
-0.016168
0.0245573
0.0370049
0.0230457
0.0199068
0.0402947
0.0649045
-0.0171268
0.056241
0.0373451
0.0422678
0.0369784
0.0849807
-0.0204125
0.00674599
0.0105007
-0.00512452
0.0326792
0.0469901
0.0191892
-0.00950373
0.0327995
-0.00783345
0.042012
0.0512955
0.0191837
0.0528446
0.0241578
-0.0266814
0.0122535
0.0757056
-0.0337584
0.0109875
0.0904415
-0.0366979
0.107944
0.0934053
-0.0491483
0.0864006
0.0604089
-0.0664333
0.053758
-0.0067813
0.0867216
0.0532514
-0.0618754
0.0874872
0.0365201
-0.057356
0.0631947
0.0276595
-0.0477272
0.04186
0.0024651
0.0456286
0.027947
-0.00761173
-0.033457
0.0281917
-0.00689381
0.0226643
0.0293553
0.0138689
-0.0138277
0.0042671
0.0121568
-0.00710894
0.0128601
-0.0206239
0.0121539
-0.00734612
0.0587109
0.00866859
-0.0173754
-0.134859
-0.00221411
-0.00902228
0.0693333
-0.0094044
0
0
0
-0.0319647
0
0
-0.000183912
0
-0.000554132
-0.0887632
-0.000149648
0.000815952
0
0
0
0
0
0
0
0
0
0.000688148
0
0
0
0
0
0
-2.16665e-05
0
0
0
0
0
0
0
0
0
0
0
0
6.49473e-05
2.83397e-06
-8.7945e-06
0
4.03127e-05
0
0
0
0
0
0
0
0
0
0
0
0
0
0
0
0
0
0.00180249
-0.00144293
-0.000108056
0
0
0
0
0
0
0
0
0.00374924
0
-0.00181349
0
-0.00346564
0
0
3.50691e-05
-6.26742e-05
7.55969e-06
0
-3.49409e-05
0
0
0
0
0
0
0
0
0
0.000158466
2.17369e-05
0.000224428
0
-4.1331e-05
0
-5.83913e-05
0.000256682
-0.000102343
0
8.06542e-06
0
0
0
0
1.42157e-05
0
-7.79008e-05
0
-3.58157e-05
-3.88519e-05
0
0
0
0.000254678
-0.000354766
0
0
-0.000641486
0
-0.000239756
0
0
0
0
0
-0.000218082
0
0
0
0
0
-9.75601e-06
0
1.06103e-05
0
0
0
0.000291459
0
0
0
0
0
0
0
0
0.0392255
0.00560527
0.0752071
-0.0122613
0.0309776
0.00650679
-0.0147694
0.029227
0.0256417
0.0171719
-0.00653837
-0.0171192
0.0259193
0.0161388
-0.0219675
0.0201922
-0.0280308
-0.0269875
0.0129044
0.0282153
0.0216531
-0.000521269
0.0162281
0.0272501
0.0146911
-0.00588276
0.0215344
0.0130368
-0.000243563
0.00982577
0.0006689
0.0082201
-0.00918109
0.00683352
0.0187253
-0.0201129
0.00414109
-0.0245229
-0.00856888
-0.0202622
0
0
0
0
0
0
0
0.000169188
0
0
0
0.00762011
-0.0100148
-0.0480064
0.00104232
0
0
0
0
0
0
0
-0.0247721
0
0
0
0
-1.67013e-06
0
3.2733e-06
0
1.59945e-06
0
0
0
0
0
0
0.00281167
0.0012269
0.0268757
0.04126
-0.0471467
-0.0346599
0.00143741
-0.0516279
-0.0374942
-0.00875226
-0.00795741
0.0321564
0.03806
-0.0205514
-0.0449536
0.0211967
0.0113959
-0.0383885
-0.030406
0.0101356
-0.0236441
0.0253725
0.0205299
-0.0291996
1.90774e-06
0
0
5.12301e-06
7.05107e-05
-1.61757e-05
9.18342e-05
8.35023e-05
-2.13831e-05
2.33912e-05
1.07209e-06
0.000106723
-1.83252e-05
0
1.9435e-05
0
0
0.000282705
-0.000344689
0
0
0
0.000204918
0.00105472
0.000232886
0.00281056
-0.000232183
-0.000142022
-2.49884e-06
0.000185078
0
-1.99907e-05
0
-2.86774e-06
0
0
2.23288e-05
-3.43549e-05
0
0
0
0
0
0
0
0
0
0
0
2.83572e-05
0
0.00131606
0
0
0
0
0
0
0
0
0
0
0
0
0
0
-0.0239931
0.0203907
0.0440125
0.00462989
0.0577191
0.0412896
0.013104
0.0665985
-0.0118796
-0.0149898
-0.00328406
-0.00384556
0
0
0
0
-3.57404e-05
-2.41831e-05
1.90534e-05
-0.0255808
-0.0337818
0
0
-2.16485e-05
0
0
0
0
0
0
0
0
0
0
-0.0677458
0
-0.0453302
0.000365301
-0.0257424
-0.0247237
0
0
0
-7.7059e-05
0
8.40126e-05
0
0
0
0
0
0
0
0
0
-7.74667e-05
0
5.23809e-05
-0.000512879
-0.0119961
0.0332289
0.00838974
-0.00365459
0.0250773
0.030979
0.0243176
0.0205173
0.0439999
0.0208664
0.0201784
0.0257026
0.0397137
0.113543
-0.0320496
-0.0118368
-0.015368
-0.0816579
-0.0292752
0.00871126
0.020342
0.0216116
0.0235388
0.0186676
0.011871
0.0393541
0.0215025
-0.0139736
0.0276615
0.0226313
-0.0312677
-0.00485834
-0.0130835
0.00783332
0.00657766
0.000899818
-0.00460085
0.00168305
0.0131962
-0.00365626
-0.0860892
-0.076773
0.00613633
-0.0684108
-0.0665808
-0.00586504
-0.0758237
-0.046228
-0.0538451
-0.0587342
-0.0811939
-0.0306859
-0.0371471
-0.0652481
0.0330074
-0.062368
-0.0676988
-0.0210024
-0.0232429
0.00651911
-0.0120836
-0.0148601
-0.022383
-0.0185096
0.0173291
-0.00070621
0.0120672
0.00299212
-0.0103804
0.0060144
-0.0245882
-0.0178722
-0.0164425
-0.0360295
-0.0429434
-0.0242466
-0.0345647
-0.0536367
-0.0013156
-0.0158312
-0.00269112
-0.0142616
-0.0650771
-0.0139569
-0.00398289
-0.0644317
-0.0569348
0.00927545
-0.0362598
-0.0926733
0.0147249
-0.0661921
-0.104332
-0.0285331
-0.041606
-0.0536319
-0.0128627
-0.0220503
0.000998096
-0.00198232
0.0165044
0.0181875
-0.00982787
-0.0295412
-0.0114027
-0.0842584
-0.00184404
-0.0192628
0.0211874
-0.0135876
-0.0175462
-0.0191102
-0.0207633
-0.0269684
0.0163717
0.0270525
-0.0128053
-0.00066661