/*--------------------------------*- C++ -*----------------------------------*\
  =========                 |
  \\      /  F ield         | OpenFOAM: The Open Source CFD Toolbox
   \\    /   O peration     | Website:  https://openfoam.org
    \\  /    A nd           | Version:  8
     \\/     M anipulation  |
\*---------------------------------------------------------------------------*/
FoamFile
{
    version     2.0;
    format      ascii;
    class       volScalarField;
    location    "720";
    object      alpha;
}
// * * * * * * * * * * * * * * * * * * * * * * * * * * * * * * * * * * * * * //

dimensions      [0 0 -1 0 0 0 0];

internalField   nonuniform List<scalar> 
526318
(
0.000349975
0.000438723
0.000340927
0.000450254
0.000492182
0.000691264
0.000107381
0.000581967
0.000402969
0.000241087
0.000200562
0.000358469
0.000326943
0.000508132
0.00095639
0.000962953
0.000345836
0.000536465
0.000621823
0.000549019
0.000774106
0.000759915
0.000438803
0.000212064
0.00042012
0.000603259
0.000273735
6.48689e-05
0.000339341
0.000407297
0.000464328
0.000485593
0.000447775
0.00092909
0.000310032
0.000885465
0.000817551
0.000784458
0.00100933
0.00102762
0.00100565
0.000183006
0.00044151
0.000687703
0.000724752
0.000781325
0.000542378
0.000650177
0.000783554
0.000772742
0.0011822
0.000770112
0.00122319
0.000457308
0.00772671
0.00086824
0.000842613
0.00823952
0.000766279
0.000910358
0.000788313
0.00120939
0.00106172
0.000615923
0.000623972
0.00111878
0.000987714
0.00122927
0.00138771
0.00127314
0.00128676
0.0022476
0.00206751
0.00229466
0.00289971
0.00244828
0.00239118
0.00229969
0.00274586
0.00289727
0.00228224
0.00241
0.00307103
0.00289444
0.00300207
0.00255285
0.00232906
0.00325826
0.00348385
0.00266286
0.00384799
0.00515353
0.00447632
0.00530553
0.00677186
0.0063002
0.00653466
0.00691623
0.00625998
0.00640197
0
0
0.241862
0.0365507
0.0128259
7.70395
0.00221389
0.0019637
0.00123004
0.000791192
0.00048226
0.000727398
0.000216422
0.00039373
0.00050754
0.000280396
0.000492625
0.000511274
0.000560463
0.00632932
0.00677341
0.0072839
0.00619822
0.00800258
0.00679815
0.0110662
0.00889463
0.0125427
0.00996853
0.0128755
0.013679
0.0136524
0.0138042
0.014622
0.0129323
0.0162832
0.0136188
0.0153472
0.0144972
0.0181389
0.0178712
0.0148459
0.0144964
0.0139178
0.0172844
0.0170743
0.0148752
0.0156597
0.0164433
0.0146002
0.0143715
0.0145476
0.0144735
0.0137454
0.0136752
0.0168724
0.0129499
0.0131745
0.0162689
0.0184347
0.0106448
0.0152397
0.0115406
0.001853
0.00104918
0.00148806
0.000852268
0.00292385
0.0019932
0.00257392
0.00300897
0.00290374
0.00334851
0.00370533
0.00321246
0.0044384
0.00665184
0.00758632
0.00822341
0.00695299
0.007142
0.00596905
0.00762819
0.0132826
0.00946506
0.0173122
0.0150069
0.0136752
0.0154681
0.013447
0.0141523
0.0127982
0.0138216
0.0128426
0.012149
0.0115164
0.011795
0.0106255
0.0107312
0.0108332
0.0106497
0.0122436
0.0105431
0.0089012
0.00983664
0.008779
0.0109084
0.0102627
0.00914474
0.00800432
0.0012038
0.000108472
0.000236276
0.000862904
0.000969271
0.000917941
0.00111649
0.000284027
0.00139538
0.0018348
0.00293358
0.00215907
0.000698814
0.0012853
0.00220347
0.00155059
0.00182247
0.00200914
0.000744946
0.0892794
0
0.0107869
0.00319276
0
0
0
0
0
0
0.000801979
0.000809727
0.000657632
0.000660617
0.00101943
0.000877879
0.0012931
0.00120274
0.0018373
0.00191632
0.00217198
0.0020607
0.00229539
0.00217714
0.00238852
0.00247811
0.00360835
0.00300053
0.00556923
0.00461862
0.00614125
0.00580682
0
0
0
0.0916503
0.155802
0
0.197248
0.00839935
0.00167466
0.00231775
0.00120352
0.000856122
0.000620418
0.000573509
0.000472196
0.000418385
0.000453424
0.000638334
0.000671061
0.000481067
0.00652672
0.00668302
0.00763411
0.00874992
0.014694
0.0120344
0.0174825
0.0165453
0.0168622
0.0178653
0.0184708
0.0180492
0.0157365
0.0139927
0.00785347
0.00668915
0.00496701
0.00532036
0.00635644
0.00705716
0.0128487
0.0148118
0.0100571
0.00696779
0.010408
0.0171429
0.0175461
0.0192535
0.0198731
0.0225275
0.0218682
0.0264264
0.0281223
0.0248903
0.0286309
0.00805479
0.00475657
0.00642351
0.00505185
0.00167841
0.00142788
0.00332444
0.00283966
0.00275625
0.00284599
0.00291882
0.00263649
0.00331251
0.00271127
0.00406863
0.00739952
0.0101981
0.00913479
0.00947744
0.00955496
0.0180495
0.00910592
0.0125162
0.0140194
0.0196018
0.0179587
0.0160609
0.0182554
0.0150778
0.0165552
0.0157227
0.0140126
0.0126274
0.014211
0.0108807
0.0124137
0.00934119
0.0105684
0.00952566
0.0090554
0.00844885
0.00742002
0.00896996
0.00758199
0.00672496
0.00674868
0.0054874
0.00648376
0.00726418
0.00559329
0.00444823
0.00449521
0.00376416
0.00389037
0.00357847
0.00375066
0.00324629
0.00390896
0.00373414
0.00379352
0.00295293
0.000100188
0.000195854
0.00162332
0.00131255
0.000608201
0.000847293
0.00117037
0.00315668
0.00177613
0.000238262
0.00192446
0.00300941
0.00970721
0.00625759
0.00646319
0.00104429
0.00222636
0.00337866
0.00233219
0.00157813
0.00222046
0.000300902
0
0
0.0506755
0
0.00592497
0.043843
0
0.055331
0
0
0
0
0
0
0
0
0.000772971
0.000689914
0.000637495
0.000572485
0.000893302
0.000841108
0.00128439
0.00141687
0.00184681
0.00189841
0.00216454
0.00208594
0.00236086
0.00245863
0.00287795
0.00260611
0.00341769
0.00302657
0.0040614
0.00490585
0.00620074
0.0071589
0
0.23856
0.213638
0
0
0
0
0
0.0361363
0.163063
0
0
0
0
0.00722913
0
0
0.050512
0
0
0
0
0.0227372
0.0242477
0.00296774
0.00987219
0.0010772
0.0011672
0.000843378
0.000874259
0.000458072
0.000629378
0.000630175
0.000517443
0.000722451
0.000543571
0.000656593
0.000506648
0.00825302
0.00808388
0.0106006
0.00914157
0.0135166
0.0168278
0.0176389
0.0174045
0.018227
0.0167886
0.022147
0.0230238
0.0181258
0.016278
0.0100734
0.0102381
0.0152208
0.00765526
0.012155
0.00712043
0.0219709
0.0342146
0.021431
0.0276563
0.0285183
0.0370137
0.0333907
0.0323547
0.0312193
0.0339828
0.0334462
0.00382215
0.0040099
0.00438707
0.00426288
0.00394147
0.00297546
0.00324738
0.00333186
0.00398447
0.00318612
0.00384939
0.00381058
0.00441239
0.00732206
0.00348362
0.00249047
0.00533098
0.00363466
0.00501239
0.00380528
0.0035419
0.00327955
0.0032232
0.0034884
0.00569873
0.0037682
0.00708441
0.00965415
0.00839611
0.00944776
0.0228787
0.0120683
0.0297089
0.0365642
0.0460346
0.0225803
0.0238856
0.01764
0.0176991
0.0193582
0.0161906
0.0178156
0.0145367
0.0164628
0.0123928
0.01484
0.0103662
0.0122685
0.0105183
0.00915101
0.00700172
0.0086234
0.00584246
0.00665608
0.00676254
0.00610381
0.00604112
0.00553209
0.00480728
0.00447614
0.00480347
0.00550431
0.00387396
0.00433234
0.00277698
0.00293976
0.00327312
0.00299947
0.00301917
0.00333949
0.00262719
0.00275421
0.00268903
0.00255265
0.00228418
0.000381409
0.00178153
8.88266e-05
0.00206524
0.000888913
0.00232962
0.00127193
0.00329632
0.00490501
0.000218654
0.00216711
0.0104297
0.00540434
0.00721026
0.00225367
0.00387647
0.00263224
0.00359018
0.00154447
0.00409278
0.000639059
0
0
3.43538
0
0.0458948
0.0145771
0
0
0
0
0
0
0
0
0
0
0
0
0
0
0
0.0225975
0
0
0
0
0
0
0
0.00152541
0.00315465
0.0160544
0
0
0
0
0
0
0
0
0
0
0
0
0
0
0.000655456
0.000738868
0.000642071
0.0005628
0.00086433
0.00089575
0.00157584
0.00142656
0.00195143
0.00199789
0.0023536
0.00224503
0.00247348
0.00266171
0.0026588
0.00283316
0.00343619
0.00355443
0.0052739
0.00451306
0.00852229
0.00731598
0
0
0
0
0
0
0
0
0
0
0
0
0
0
0
0.0268902
0
0
0
0
0
0
0
0
0.0313032
0
0
0
0
0
0.0154501
0
0.0219216
0.00325018
0.000916082
0.00302774
0.00108159
0.000824799
0.00091427
0.000678201
0.000685396
0.000482776
0.000543263
0.000737939
0.000700319
0.000497702
0.000535095
0.000652704
0.0266236
0
0
0
0
0
0
0
0
0
0
0
0
0
0
0.0451704
0
0.00863122
0.00855652
0.00910199
0.0112632
0.0190676
0.0147949
0.0225152
0.0228283
0.028553
0.0272552
0.0396628
0.0385114
0.0192691
0.0202292
0.0255732
0.0148516
0.011725
0.00904762
0.00843832
0.00911628
0.0341219
0.0416597
0.0391156
0.0276916
0.0401348
0.0372968
0.0395125
0.0425335
0.0464542
0.0535549
0.0792195
0.0859762
0.00257105
0.00277774
0.00262869
0.00246764
0.00281713
0.00290047
0.00209895
0.00204155
0.0019041
0.0018685
0.00439845
0.00394115
0.00342423
0.00293954
0.00344214
0.00427932
0.00471237
0.00432417
0.00853939
0.00493676
0.00780423
0.0106425
0.00402825
0.00462977
0.00403738
0.0046796
0.0046079
0.00461026
0.00465858
0.00570203
0.00897424
0.0121088
0.0161769
0.0101176
0.0142931
0.0123779
0.0397133
0.0243132
0.0608889
0.0496196
0.0539674
0.0318743
0.0236582
0.0344974
0.0241681
0.0172597
0.0169113
0.0184503
0.0170266
0.0146893
0.0116847
0.0140386
0.0115803
0.00999616
0.00781841
0.00958063
0.00745147
0.00643525
0.00650638
0.00561467
0.00490405
0.00440677
0.00420144
0.00530497
0.00457484
0.00443367
0.00387204
0.00412399
0.00376989
0.00329666
0.00288229
0.00289988
0.00296962
0.00302433
0.0028995
0.00236491
0.00220015
0.00210826
0.00212874
0.00226292
0.00174061
0.00193858
0.00177995
0.00155611
0.00160068
0.00160303
0.00139883
0.00179745
0.00157588
0.00141874
0.00132168
0.00127697
0.00117504
0.001273
0.00118604
0.00126546
0.0011491
0.00128847
0.00114948
0.00115329
0.00102871
0.00109735
0.00100206
0.000916236
0.000999338
0.000976537
0.000932411
0.000816888
0.000896912
0.000847833
0.000808315
0.000789936
0.000720056
0.00076226
0.000787647
0.000730608
0.000688969
0.000724792
0.00075518
0.000661668
0.000683715
0.00280363
0.000578207
0.000268077
0.000558296
0.00225436
0.00229087
0.0015544
0.00632712
0.00389014
0.0368564
0.0252552
0.00484301
0.00596637
0.0276967
0.0151384
0.0537383
0.00890703
0.00822727
0.00456317
0.0157501
0.00259205
0.0130667
0.00838215
0
0.0181372
0
0
0
0
0.0167806
0
0
0
0
0.00087361
0
0
0
0
0
0
0
0
0.0832081
0
0
0
0
0
0
0
0
0
0
0
0
0
0
0
0
0
0
0
0
1.05582
0.516701
0
0.00544468
0
0
0.0115895
0.00189138
0
0.0204681
0.00676567
0
0
0
0
0
0
0
0
0
0
0
0
0
0
0
0
0
0.281241
0
0
0.000744947
0.000648995
0.000601258
0.000700922
0.000967937
0.000928795
0.00161628
0.00176764
0.00212592
0.00203602
0.00226231
0.00233061
0.00279326
0.00296006
0.00550657
0.00711927
0.00851469
0.00334986
0.00355144
0.00405654
0.00431534
0.00458993
0
0
0.259419
0.420862
0
0
0
0
0
0
0
0
0
0
0
0
0
0
0
0
0
0
0.0122936
0.0154371
0
0
0
0.00333928
0.00141075
0.0125782
0.00153417
0.000816365
0.000917181
0.000931562
0.000887447
0.000524337
0.000530727
0.000776641
0.000532277
0.000847847
0.000731665
0.000521537
0.000722878
0.000603731
0.00444931
0
0.0162953
0
0
0.000945784
0
0
0.00383355
0
0
0
0
0
0
0
0
0
0
0
0
0
0
0
0.00593063
0
0.00945622
0.00916561
0.0151756
0.012499
0.0320937
0.0253752
0.0404522
0.039094
0.0392093
0.0362376
0.0450102
0.0395226
0.0379761
0.0347993
0.0388602
0.0215362
0.00788768
0.0126263
0.0084913
0.00745925
0.113204
0.0641984
0.0364743
0.0416016
0.0758037
0.0627704
0.11081
0.137574
0.130127
0.0884998
0.100387
0.0952422
0.00191273
0.00179665
0.00232557
0.00280126
0.00301363
0.00288184
0.00181975
0.00204067
0.00146764
0.0013676
0.00156553
0.00171255
0.00140392
0.00144191
0.00130248
0.00118702
0.00108269
0.00111498
0.000953936
0.00104369
0.000912548
0.000838633
0.000834639
0.00078384
0.000649743
0.000704463
0.000682438
0.000655501
0.00073086
0.000784106
0.00377546
0.00478155
0.00338186
0.00294171
0.00379004
0.0044183
0.00493174
0.00423832
0.00873457
0.00488915
0.0295655
0.00799473
0.0174745
0.00416009
0.00466202
0.00424305
0.00555659
0.00389916
0.00715166
0.0173644
0.0287093
0.0291154
0.0158854
0.0182912
0.109443
0.103684
0.416486
0.0778402
0.0462926
0.0353845
0.0681186
0.0418913
0.0290449
0.036296
0.023733
0.0311591
0.0258647
0.0175631
0.0130909
0.0169402
0.0128858
0.0112838
0.00917503
0.0113315
0.00845496
0.0068773
0.00599128
0.00675371
0.00585849
0.00480647
0.00398329
0.00368777
0.00404235
0.00449068
0.00329555
0.00358156
0.00379089
0.00333472
0.00271149
0.00280185
0.00325293
0.00284514
0.00281035
0.00273688
0.00252428
0.00215491
0.00209276
0.00212338
0.00216151
0.0018309
0.00167854
0.00150221
0.00158989
0.00120316
0.00148548
0.00141846
0.00118058
0.00112106
0.00118959
0.00109345
0.00105832
0.000952185
0.0009569
0.000879901
0.000866681
0.000763087
0.000758257
0.000674422
0.000619804
0.000698605
0.000643654
0.00059666
0.00064883
0.000616715
0.000588919
0.000641885
0.000632712
0.000568683
0.000585137
0.000545242
0.000626757
0.000533347
0.000590171
0.00739832
0.00868385
0.00563451
0.00154196
0.00663009
0.00479889
0.00103617
0.00293789
0.00244395
0.00816601
0.0188235
0.0211418
0.0335536
0.00373076
0.0163299
0
6.47255
0.0143074
0.218959
0.0170856
0.0163262
0.0128965
0.0230234
0.0226971
0.0149607
0
0
0
0
0.168944
0.348353
0
0
0.054208
0
0
0
0
0
0
0
0
0.0991212
0
0
0
0
0
0
0
0
0.307732
0
0
0
0.00588792
0
0
0
0
0
0
0
0
0.0521167
0
0
0
0
0
0
0
0.000141065
0
0.0100691
0
0
0
0
0
0
0
0
0
0
0.000838602
0.000707475
0.000662454
0.000778018
0.00105834
0.00102932
0.00181034
0.00162631
0.00219216
0.00230376
0.00287437
0.00289175
0.00375579
0.0035008
0.00627667
0.0100186
0.0116454
0.00504426
0.00400742
0.00375002
0.00391041
0.00415887
0.14823
0
0.0632685
0
0
0
0
0
0.167647
0
0
0
0
0
0
0.17004
0
0
0
0
0
0.00927595
0
0
0
0
0.0261486
0.00797299
0.000709334
0.00825304
0.00114115
0.00070365
0.0011387
0.000645975
0.000475818
0.000915265
0.000907244
0.000589585
0.000896568
0.000579864
0.000722616
0.000618356
0.00056272
0.000747959
0
0
0
0.0183248
0
0.0285149
0
0
0
0
0
0
0.267235
0
0
0
0
0
0
0.00195217
0
0.00158583
0
0
0
0
0
0
0
0
0
0.0160965
0.0156406
0.0214943
0.0254015
0.0407652
0.0320996
0.0356818
0.0397632
0.0106271
0.0164662
0.0188563
0.0704835
0.0602842
0.135423
0.144145
0.0425672
0.0364785
0.0365314
0.0205652
0.00961272
0.017918
0.00806429
0.0111675
0.0441456
0.0807345
0.0533237
0.0504547
0.259585
0.340098
0.166688
0.0860515
0.0544158
0.0617848
0.280643
0
0.000499707
0.00050731
0.000489347
0.000499775
0.000471386
0.000485223
0.000486399
0.000484955
0.000454263
0.000460822
0.000490543
0.000469128
0.000496386
0.000460156
0.000504655
0.000578659
0.000547241
0.000508548
0.000496861
0.000556532
0.000539341
0.00049445
0.000490482
0.000520913
0.000535894
0.00048708
0.000517405
0.000517154
0.000498726
0.000673835
0.000660586
0.000650841
0.000669157
0.000648147
0.000605283
0.00175591
0.00183619
0.00219707
0.00255166
0.00304131
0.00263179
0.00198934
0.00193076
0.00141732
0.00144504
0.00150687
0.00146093
0.00149199
0.00129263
0.00119051
0.00111086
0.00110027
0.00107254
0.00106927
0.000968488
0.000962129
0.000870996
0.00089126
0.000825174
0.000751228
0.000704393
0.000851759
0.000793823
0.00345605
0.00397658
0.00511604
0.00468417
0.00401673
0.00320085
0.00308328
0.00512278
0.00387482
0.00547908
0.0094812
0.000501377
0.000523388
0.000473862
0.00046391
0.000499452
0.000487802
0.000459063
0.000475499
0.00047341
0.000479453
0.000467455
0.000461061
0.000432465
0.000446821
0.000438912
0.000461942
0.000460502
0.000443775
0.017701
0.0408105
0.0380854
0.00461595
0.00848252
0.00405294
0.00639332
0.0162227
0.0282641
0.0224747
0.0157888
0.0255051
0
0.0429331
0
0
1.06336
0
0.0367053
0.0381434
0.407059
0.0314332
0.0414573
0.0393336
0.0278629
0.0374663
0.0178101
0.0228789
0.0138465
0.0176424
0.0144275
0.0110369
0.00988606
0.00781642
0.0065739
0.00737445
0.00568316
0.00674343
0.00390477
0.00487704
0.00395101
0.00389229
0.00359564
0.00397766
0.00256119
0.00301274
0.00356791
0.0028871
0.00257498
0.0025017
0.00242421
0.00201605
0.0020754
0.0027308
0.00195062
0.00189541
0.00217624
0.00213453
0.00177271
0.00165688
0.00157253
0.00129223
0.00145701
0.00147133
0.00120367
0.00107704
0.0010791
0.00106863
0.00102431
0.000948639
0.000891909
0.000919664
0.000909233
0.000825433
0.000719631
0.00080941
0.000659974
0.000734279
0.000673032
0.000603417
0.000565633
0.000615859
0.000531269
0.000594104
0.000561981
0.00972709
0.0265541
0.0172445
0.0140674
0.00961228
0.0102691
0.0230079
0.00423166
0.0117394
0.0405388
0.0457256
0.0333009
0
0.0364269
0.0228701
0
0
0
7.32124
0.0177496
0.766244
0.16957
0.18336
0
0
0
0.00473688
0
0.323855
0.374864
0.180352
0
0.00337679
0
0
0
0
0
0
0
0
14.6324
0.261694
0
0
0
0
0
0
0
0
0.239829
0
0.0263895
0
0
0
0
0
0
0.535091
0
0
0
0.281642
0
0
0
0
0.0208889
0
0
0
0
0
0.0233557
0
0
0.0246193
0
0
0
0.0358721
0
0
0
0.028424
0
0
0.0207962
0
0
0
0
0.0364876
0.000469689
0.000493491
0.000479318
0.000470075
0.000454998
0.000459408
0.000718195
0.000877043
0.000795523
0.000673202
0.00108224
0.00108161
0.00188771
0.00214037
0.00280474
0.00285061
0.00321052
0.00329939
0.00355873
0.00347039
0.00575816
0.00874067
0.00581937
0.00408109
0.00421208
0
0
0
0
8.10597
3.14452
0
0
0
0
0
7.44646
0
0.0125983
0.00642543
0.00209125
0.24605
0
0
0
0
0
0
0
0
0
0
0.00233434
0.000401947
0.000739597
0.00101869
0.0005651
0.000770434
0.000656139
0.00119948
0.000613117
0.000902396
0.000472019
0.000539681
0.000868115
0.000791187
0.000527558
0.000691157
0
0.378773
0
0
0
0
0
0
0
0
0
0
0
0
0.303569
0
0
0.00771217
0
0.00232934
0
0
0
0
0
0
0
0
0
0
0.00894176
0
0
0
0
0.0227183
0.0125539
0.0137449
0.00890399
0.0110809
0.0192076
0.0189864
0.0241455
0.01759
0.0747223
0.0501262
0.120354
0.132151
0.0160967
0.0193928
0.244218
0.714272
0.262618
0.280736
0.0680415
0.0740852
0.0314589
0.103784
0.0103269
0.0216033
0.00835378
0.00760776
0
0
0.8023
0.165989
0
0
0
0
0
0
0
0
0.000517837
0.000501756
0.00049388
0.000483688
0.000495949
0.00048698
0.000487037
0.000480552
0.000585153
0.000613886
0.000612073
0.000572568
0.000545696
0.000594788
0.000539364
0.000567979
0.000699244
0.000736
0.000735163
0.000680358
0.000647846
0.000697944
0.0017327
0.00194368
0.00214505
0.00196858
0.00246277
0.00304782
0.00197143
0.00205303
0.00135938
0.00159267
0.00134567
0.00153432
0.00146554
0.00120486
0.00127612
0.00147539
0.00137454
0.00118503
0.00113432
0.00116217
0.00110391
0.00110318
0.00100836
0.00092222
0.00100027
0.000877098
0.000941556
0.000775005
0.000818825
0.000900423
0.000843442
0.00486768
0.00514254
0.00320446
0.00292262
0.00509313
0.00373577
0.00303599
0.00318584
0.00491881
0.0056105
0.00767525
0.00559535
0.000503137
0.000534037
0.000563588
0.000488845
0.000540295
0.00053454
0.000482736
0.000508183
0.000463247
0.000471363
0.000489074
0.000489901
0.000461586
0.000450386
0.000470128
0.000471789
0.000460273
0.000462919
0.00047329
0.000527308
0.000566158
0.000509411
0.000476098
0.000477616
0.00048124
0.0404987
0.0107153
0.023756
0.0637661
0.00885427
0.0170314
0
0.209538
0.0815991
0
0
0
0
0.0111519
0
0.0143328
0
0
0.136504
0.340392
0.144924
0.0594329
0.0321206
0.070782
0.0272276
0.0201746
0.0264276
0.0218743
0.014966
0.0208251
0.00916581
0.0127562
0.00895296
0.00768946
0.0066001
0.00800811
0.00554967
0.00467404
0.00382799
0.00399202
0.00307536
0.0034079
0.00320518
0.00291965
0.00273107
0.0025976
0.00254613
0.00264926
0.0028059
0.00248042
0.00200916
0.00168626
0.00229434
0.00185386
0.00191758
0.00183948
0.00173354
0.00143476
0.00128204
0.00147141
0.00121063
0.00119543
0.00100825
0.000980756
0.000942178
0.000886258
0.000979405
0.000874069
0.000819535
0.000812359
0.00084034
0.00079192
0.000733689
0.000717297
0.000660331
0.000667107
0.000601692
0.000552628
0.000603658
0.000551483
0.000570562
0.000594552
0
0
0.0265804
0
0.0484785
0.0118738
0.0266019
0.0522299
0.0521918
0
0
0
0
0
0
0
0
0
0
0
14.7272
0
0
0
0
0
0
0
0.323571
0.399448
0
0
0
0
0.0390568
0
0
0
0
0
1.84391
0
0.22749
0
0
0
0
0
0
0
0
0.561612
0
0
0
0.0287384
0.272693
0
0.0183889
0.0179838
0
0
0
0
0.238233
0.148207
0
0
0.0570916
0.0971411
0
0
0
0
0.0115052
0
0.00629252
0
0
0
0
0
0
0
0
0
0
0
0
0
0
0
0
0
2.92397
0
0
0
0
0
0
0
0.0138627
0.000472862
0.000492129
0.000491715
0.000522995
0.00049345
0.000479959
0.000471465
0.000484034
0.000471891
0.000491269
0.0010621
0.000818419
0.000829779
0.00101319
0.00127359
0.00140693
0.0019954
0.00209199
0.00275424
0.00296741
0.00342993
0.00347757
0.00488354
0.00488816
0.00926148
0.00682884
0.00724715
0
0
0
0
0
0
0
0.000725922
0.00107004
0.00606378
0
0
0
0
0
0
0.248744
0
0
0.00264332
0
0
0
0
0
0.000707252
0.000748204
0.000551517
0.00153109
0.000394425
0.00114463
0.000677112
0.000668749
0.000463293
0.000450781
0.000983644
0.000855568
0.000463032
0.000473994
0.000920563
0.000743486
0
0
0
0.0138689
0
0
0
0.0460546
0
0
0
0
0
0
0
0.246965
0.136583
0.149031
0
0
0
0.00471308
0
0
0
0.0271397
0
0
0
0
0
0
0
0
0
0.00208027
0
0
0
0
0
0
0.0980236
0
0
0.00970016
0.00920247
0.00794823
0.0239756
0.0188162
0.0274881
0.0284264
0.0349429
0.0676611
0.162833
0
0.685516
0.590636
0.045781
0.0516171
0
0
0
0
0.11817
0.253765
0.0774983
0.0266533
0.00755527
0.0100268
0.00617267
0.00918403
0
0
0
0.12053
0
0
0
0
0
0
0
0.0124809
0.000507186
0.000552008
0.000504138
0.000532054
0.000536924
0.000508232
0.000520368
0.000488376
0.000503333
0.000489852
0.000494796
0.000501321
0.000522277
0.00052068
0.000681465
0.000655016
0.00067897
0.000642367
0.000633993
0.000612989
0.000587502
0.000567244
0.000767286
0.000800542
0.000735624
0.00077993
0.000732044
0.000707418
0.00172131
0.00205679
0.00220665
0.0020134
0.0028228
0.00234823
0.00208596
0.002074
0.00150767
0.00156394
0.00155417
0.00166102
0.00123804
0.00121931
0.00132917
0.0015054
0.00118784
0.00121394
0.00111929
0.0012016
0.00109659
0.00100748
0.00102099
0.000959385
0.000927128
0.000987714
0.000859469
0.000815976
0.000890481
0.000940515
0.00541206
0.00506947
0.00346788
0.00307684
0.00347229
0.00429257
0.00285315
0.00320505
0.00498699
0.005101
0.0045428
0.00543179
0.000519067
0.000555159
0.000515707
0.000515708
0.000549227
0.000564847
0.000535727
0.000578393
0.000536841
0.000492376
0.000529328
0.000515762
0.000499995
0.000505036
0.000481812
0.000486327
0.000482658
0.000473783
0.00048264
0.000483264
0.000476795
0.000503407
0.000547725
0.000492243
0.000489954
0
0
0
0
0
0
0
0
0.0123716
0
0
0
0
0
0
0
0.130494
0
0.095424
0.231884
0.237848
0.0851004
0.0260412
0.0427441
0.0183646
0.0211451
0.0232043
0.0248067
0.0161992
0.0114147
0.00899914
0.00974205
0.00764916
0.00892245
0.00463144
0.00615159
0.00401162
0.00379031
0.00449749
0.00321905
0.00383869
0.00303074
0.00238867
0.00253677
0.00250801
0.00259151
0.00246737
0.00229399
0.00250854
0.0019423
0.00182441
0.00168711
0.0018599
0.00169448
0.00124165
0.00174186
0.00137239
0.00123644
0.00142601
0.00107365
0.00108606
0.00089828
0.000966595
0.00088628
0.000896492
0.00080527
0.000820573
0.000776021
0.000730951
0.000810772
0.000745194
0.000674976
0.000707281
0.000619235
0.000660048
0.000561892
0.00052453
0.00062025
0.000560238
0
0
0.379746
0
0
0
0
0
0
0
0
0.0049766
0
0.0435522
0.118516
0.085578
0.0624109
0
0.0727064
4.39716
2.00096
0
0
0
0
0.00896251
0.00350578
0
0
0
0
0
0
0
0.0284283
0
0.00411062
0
0
0
0
0
7.4919
0
0
0
0
0
0
0
0
0
0
0
0
0
0
0
0
0
0.00664217
0
0
0
0
0
0
0
0.03373
0
0
0
0
0
0
0
0
0
0
0
0
0
0.013159
0
0
0
0
0
0
0
0
0
0
0
0
0
0
0
0
0
0
0
0
0
0
3.75206
0
0
0
0
0
0
0.00526274
0
0
0
0
0.000468852
0.000481044
0.000473268
0.000457419
0.000471423
0.000471183
0.000514989
0.00051862
0.000503372
0.000523206
0.00048968
0.000480959
0.000501239
0.00049972
0.000506681
0.00131382
0.000941512
0.000788867
0.00130141
0.00157382
0.0020512
0.00193956
0.0041672
0.00366848
0.00583876
0.00598244
0.00830107
0.00776268
0.00878084
0
0
0
0.00880091
0.012679
0.00168134
0.00966328
0.0374413
0
0.0270926
0
0
0
0
0
0
0
0
0.139546
0
0
0
0
0
0.0006221
0.000779231
0.000985071
0.000720035
0.000473639
0.00131178
0.000762666
0.00135814
0.000578878
0.000523918
0.000688131
0.000959841
0.00043146
0.000951207
0.000559683
0.000896643
0
0.00365377
0
0
0
0
0
0.00210018
0
0
0.0461945
0
0
0
0
0
0
0
0
0.00187032
0
0
0
0
0
0
0
0
0
0
0
0
0
0
0
0
0
0
0.00127417
0
0
0
0
0
0
0
0.0445949
0
0
0
0
0
0
0
0
0
0
0.00870228
0.0116207
0.0151869
0.0256265
0.0237938
0.103953
0.126183
0.1247
0.184402
0.143088
0.157247
0
0
0
0
0.147135
0.112301
0
0
0.00455326
0
0.00851025
0.00656421
0.0138982
0
1.05785
0.0311916
0.0940418
0.0137973
0
0
0
0
0.00227481
0.00783455
0
0
0
0
0
0
0.000543481
0.000561857
0.000555509
0.000573355
0.000568499
0.000549386
0.000522671
0.000522678
0.000539276
0.000507379
0.00049015
0.000509389
0.000504312
0.00070237
0.000711007
0.000660028
0.000679927
0.000605525
0.000618147
0.000556708
0.000583855
0.000823797
0.000788798
0.000747476
0.000778645
0.000738521
0.000727992
0.00178173
0.00205558
0.00217317
0.00209222
0.00218996
0.00253452
0.00206428
0.00219971
0.00158302
0.0015536
0.00170951
0.00159487
0.00128168
0.0012405
0.00152959
0.00135314
0.00124472
0.00122061
0.00112357
0.00121671
0.0011154
0.00103496
0.00106321
0.00100922
0.00102216
0.000971889
0.000842975
0.000886089
0.000961469
0.000912986
0.00515898
0.00418144
0.00326953
0.00325194
0.00327753
0.00296005
0.00340522
0.00273415
0.00569155
0.00513442
0.00507045
0.00619625
0.0129822
0.0125879
0.00694463
0.00054067
0.000512147
0.000520741
0.000537814
0.000559959
0.000562431
0.000562093
0.000625043
0.000526642
0.000601489
0.000511758
0.000495624
0.000491577
0.000500202
0.000484821
0.000485311
0.000486318
0.00048541
0.000484673
0.000480981
0.000488951
0.000494419
0.000555754
0.000498799
0.000483879
0.00049118
0
0
0
0
0
0.00328936
0.0129314
0
0
0
0
0.000955342
0.000171251
0
0
0
0
0
0.0263614
0.0901505
0
0.0385956
0.0242267
0.0475585
0.0346975
0.0258044
0.015593
0.0266625
0.00924771
0.0124352
0.00901477
0.00887782
0.0054366
0.00764717
0.0043151
0.00388973
0.003484
0.00388883
0.00239192
0.00312823
0.00309857
0.00259252
0.0021905
0.00224101
0.00210265
0.00252615
0.00247965
0.00219359
0.00189895
0.00159779
0.00152548
0.00183541
0.00153324
0.00157011
0.0012142
0.00141972
0.00131396
0.00127832
0.00121896
0.00100076
0.000939622
0.000902638
0.000906243
0.000831232
0.00078651
0.000809825
0.000773161
0.000803175
0.000769784
0.000722635
0.000731058
0.000690095
0.000707686
0.00064918
0.000610269
0.000681253
0.000631905
0.000677004
11.5666
0
0.0202038
0
0.0237356
0
0
0
0
0.119646
0
0
0
0.0999768
0.0365331
0.10139
0.112724
0.0782056
0.145314
0
0
9.00387
0
0
0
0
0
0
0
0
0
0
0
0
0
0.00429411
0
0.00429131
0
0.159191
0
0
0
9.93495
0
0
0
0
0
0
0.0323245
0
0
0
0
0
0
0
0.0272608
0
0
0
0
0
0.00116497
0.0021955
0.00605701
0
0
0
0
0
0
0.0266641
0
0
0
0
0
0
0
0
0
0
0
0
0
0
0
0
0
0
0
0
0
0
0
0
0
0
0
0
0
0
0
0
0
0
0
0
0.00283494
0
0
0.00234691
0
0
0.000463699
0.000469242
0.000470799
0.000466367
0.000469711
0.000480124
0.000475327
0.000507882
0.00050566
0.000517513
0.000508903
0.000520505
0.000486569
0.000485562
0.000522928
0.000503035
0.000478768
0.000513651
0.00051552
0.00149421
0.00112009
0.00134644
0.00188796
0.000949028
0.00185521
0.00227558
0.0032242
0.00319017
0.00654112
0.00703024
0.00760309
0.00783637
0.00900919
0
0
0.00336967
0.00166672
0.00815392
0
0
0.024173
0.0183366
0
0
0
0
0
0
0
0
0.0262809
0
0
0
0
0
0
0.00104736
0.000600429
0.000685323
0.00044439
0.00144173
0.00151119
0.00142508
0.00079564
0.000679844
0.000426547
0.000830931
0.000444922
0.000723208
0.0304277
0
0
0
0
0
0.0438982
0.159547
0
0.0137626
0
0.0115304
0
0
0
0
0
1.65364
0
0
0
0
0
0
0
0
0
0
0.0277352
0
0
0
0
0
0
0
0
0
0
0
0
0
0
0
0
0.00859746
0
0
0
0
0
0.0106661
0
0
0
0
0
0
0
0
0
0
0
0.0118927
0.0272417
0.025648
0.0476984
0.0608293
0.0548702
0.0331556
0.114744
0.050475
0
0
0
0
0
0
0
0
0
0
0
0
0
0
0.00614059
0.0132232
0
0
1.48956
0.00792783
0.00949253
0.0144988
0
0
0
0.00538998
0.0205097
0
0
0
0
0
0.00833789
0
0.000553563
0.000549135
0.000556209
0.000530625
0.000539239
0.000519293
0.000516984
0.000514909
0.000517504
0.000498682
0.000501406
0.000510943
0.000487971
0.000491622
0.000715383
0.000705399
0.000667498
0.000647435
0.000622414
0.000597151
0.000552959
0.000584333
0.00083415
0.000794249
0.00078228
0.000749965
0.000732885
0.000718517
0.00175588
0.00198543
0.00223111
0.00219513
0.00238255
0.00214502
0.00230315
0.00205952
0.00154528
0.00162328
0.00164006
0.00174713
0.00132971
0.00124983
0.00138538
0.00156183
0.00127631
0.00123291
0.00124309
0.00114985
0.00107594
0.00114715
0.00103604
0.00108241
0.00103046
0.000981693
0.000845081
0.000876019
0.000883459
0.00093789
0.00382759
0.00599198
0.00330821
0.00311319
0.00341425
0.00293238
0.00350339
0.00262103
0.00607733
0.00647329
0.00510505
0.00667065
0.00690489
0.005834
0.000642067
0.000578817
0.000556955
0.000590718
0.000624411
0.000582095
0.000609677
0.000560641
0.000593834
0.000539942
0.00049764
0.00052118
0.000489534
0.000497806
0.000512669
0.000522483
0.000507015
0.000524926
0.000512289
0.000526326
0.000508149
0.000590567
0.000554196
0.000506436
0.000489928
0
0.00236717
0
0
0
0
0
0
0
0.00483759
0
0
0
0
0
0
0.0159936
0
0
0.0670696
0
0.0393448
0.02766
0.0244421
0.053939
0.018715
0.0160548
0.0130089
0.0111645
0.0101278
0.00762637
0.00892053
0.00428122
0.00596179
0.00402947
0.00375432
0.00370074
0.00285471
0.00224968
0.00209254
0.00244019
0.00228067
0.00203555
0.00216453
0.00159787
0.00212014
0.00233004
0.00191434
0.00154273
0.00145807
0.00136949
0.00117017
0.00157658
0.00127737
0.00107206
0.00114533
0.00105261
0.00116228
0.00085791
0.000926953
0.000821579
0.000831726
0.000772251
0.000755626
0.000730719
0.000749306
0.000732281
0.000716273
0.000690279
0.000692501
0.000672672
0.000682514
0.000676353
0.000663904
0.00066301
0.000666622
0.000657293
0.000641615
0
0
0.00973761
0
0
0
0
0.021595
0
0.0055679
0
0
0
0
0
0
0
0.128997
0
0
0.060843
0
0
0
0.585045
0
0
0
0
0
0.0130638
0
0
0
0
0
0
0.0246132
0
0
0
0
0
0
0
0
0.188216
0.162871
0.0801866
0
0
0
0
0
0
0
0.0234712
0
0.0415651
0
0
0.0180548
0
0
0
0
0
0
0.0400371
0
0
0
0
0
0
0
0
0
0
0
0
0
0
0
0
0
0
0
0
0
0
0
0
0
0
0
0
0
0
0
0
0
0
0
0
0
0
0
0
0
0
0
0
0.175516
0.169805
0
0
0.0019922
0
0
0.0059521
0
0
0
0.000492523
0.00046372
0.000481679
0.000450984
0.000449392
0.000444405
0.000460417
0.000457394
0.000451856
0.000529484
0.000517618
0.000538794
0.000535922
0.000491078
0.000470702
0.000453239
0.000516205
0.000571926
0.000539275
0.00054788
0.000549063
0.000523903
0.000502225
0.000509784
0.00247389
0.0012286
0.00215323
0.00267045
0.00221636
0.00285767
0.00369475
0.00405814
0.00335567
0.00395817
0.00431715
0.00832094
0.0100166
0.0168856
0.00216679
0.0026779
0.00124164
0
3.42501
0.0299096
0.0212023
4.04225
2.31843
0.123576
0
0.362606
0
0
0.260262
0
0
0
1.59308
0
0.241704
0
2.29254
0.000718245
0.00136605
0.000841264
0.000364712
0.00122227
0.00123125
0.000617833
0.000709541
0.000567795
0.000293796
0.000498812
0.222058
0
0
0.0358263
0
0
0.20249
0.165945
0
0
0.0137392
0
0
0
0
0
0.0647257
0.208875
0
0
0.0398313
0
0.00810839
0
0
0
0
0.0363055
0
0.00462324
0.0529096
0
0
0
0
0
0
0
0
0
0
0
0
0
0
0
0
0
0
0
0
0
0
0
0.012821
0
0
0
0
0
0
0
0
0
0
0
0
0
0
0
0
0
0
0.0604558
0.0502666
0.0346395
0.0400534
0.0538802
0.028244
0.0520258
0
0
0
0
0
0
0
0
0.0105605
0
0
0
0
0
0
0
0
0
0.081704