/*--------------------------------*- C++ -*----------------------------------*\
  =========                 |
  \\      /  F ield         | OpenFOAM: The Open Source CFD Toolbox
   \\    /   O peration     | Website:  https://openfoam.org
    \\  /    A nd           | Version:  8
     \\/     M anipulation  |
\*---------------------------------------------------------------------------*/
FoamFile
{
    version     2.0;
    format      ascii;
    class       volScalarField;
    location    "720";
    object      H;
}
// * * * * * * * * * * * * * * * * * * * * * * * * * * * * * * * * * * * * * //

dimensions      [0 1 0 0 0 0 0];

internalField   nonuniform List<scalar> 
526318
(
0.91867
0.879645
0.954133
0.859949
0.93281
0.892075
0.905237
0.821974
0.882667
0.762982
0.739879
0.862863
0.806372
0.847581
0.808176
0.835377
0.806171
1.00604
0.914365
0.963366
0.956027
0.911981
0.673733
0.915468
0.79387
0.660175
0.934061
0.934058
0.933435
0.948485
0.976261
1.0241
1.00727
0.889349
0.883263
0.856128
0.861858
0.952713
0.878949
0.828569
0.889147
0.857424
0.52435
0.576239
0.479955
0.531002
0.500797
0.628827
0.810659
0.701117
0.795068
0.789197
0.748304
0.703876
0.202457
0.449804
0.445364
0.245958
0.963684
0.97715
0.996703
0.948911
0.895056
1.02252
1.01783
0.976343
0.963801
0.963717
0.867781
0.857977
0.97263
0.75112
0.806218
0.701357
0.65418
0.646943
0.743929
0.740886
0.657029
0.69206
0.777161
0.773238
0.727801
0.68733
0.716218
0.779574
0.784071
0.755973
0.710584
0.780016
0.689063
0.631936
0.630592
0.564187
0.559431
0.560259
0.564912
0.558527
0.558476
0.554852
0.000955995
0.000218494
0.016686
0.0497457
0.117366
0.00100589
0.464433
0.272193
0.593327
0.550836
0.592496
0.716408
0.937483
0.823563
0.935445
0.949109
1.01291
0.987257
1.03176
0.55742
0.551986
0.555108
0.564178
0.518478
0.552351
0.464168
0.511933
0.422205
0.465731
0.418566
0.421471
0.413174
0.383872
0.380166
0.406307
0.351223
0.404643
0.352664
0.374402
0.322043
0.325981
0.35029
0.377024
0.365716
0.322873
0.323289
0.341482
0.330079
0.326596
0.336448
0.345873
0.337526
0.338832
0.344019
0.34054
0.306274
0.342785
0.3471
0.310068
0.270654
0.350155
0.294051
0.352259
0.818954
0.910624
0.85682
0.840499
0.64526
0.713962
0.647718
0.644214
0.648296
0.643287
0.665155
0.64851
0.58442
0.547936
0.515604
0.464524
0.526119
0.557922
0.567192
0.559637
0.446154
0.506377
0.393084
0.399282
0.411726
0.403717
0.407602
0.410648
0.402968
0.40353
0.401997
0.39374
0.379798
0.399057
0.395584
0.371264
0.353328
0.377354
0.364791
0.357613
0.381385
0.364219
0.372246
0.338436
0.353424
0.382383
0.389887
0.803107
0.811549
0.847603
0.819834
0.804823
0.802022
0.801798
0.675064
0.719875
0.468858
0.444877
0.429113
0.573156
0.708913
0.563729
0.606195
0.619067
0.562083
0.537078
0.0490858
8.48278e-05
0.185546
0.378892
0.000282506
4.87775e-07
0.000997032
0.000350205
0.000477038
0.000973146
1.01503
0.995919
1.0441
1.03706
1.00492
0.997265
0.907385
0.990719
0.835273
0.782304
0.779853
0.782428
0.779739
0.782892
0.770831
0.767419
0.688508
0.748792
0.57004
0.623116
0.55547
0.565295
0.000990539
3.33107e-10
0.000101205
0.00101083
0.0204238
0.00100536
0.0273839
0.179166
0.562416
0.37387
0.613889
0.609907
0.72108
0.827453
0.945094
0.949646
0.984613
0.962923
1.02979
1.05952
0.536375
0.531469
0.492027
0.469186
0.368143
0.398882
0.333673
0.3379
0.333648
0.329661
0.320464
0.32617
0.272405
0.292141
0.334416
0.375771
0.426117
0.398849
0.357896
0.357818
0.284909
0.277648
0.331002
0.381494
0.310561
0.324135
0.321741
0.29324
0.292125
0.260358
0.260769
0.222482
0.225908
0.231251
0.219823
0.354248
0.393042
0.359621
0.400266
0.714122
0.675623
0.572752
0.662088
0.584072
0.633587
0.643286
0.637258
0.642824
0.648423
0.560084
0.46641
0.395536
0.38692
0.454746
0.4065
0.37858
0.50697
0.395102
0.434431
0.38234
0.380444
0.393978
0.38476
0.400988
0.395549
0.396727
0.401087
0.403789
0.400293
0.416141
0.407667
0.427316
0.421479
0.426203
0.409715
0.421746
0.409844
0.382164
0.387569
0.412069
0.436846
0.441338
0.410782
0.3923
0.423469
0.461512
0.467519
0.482188
0.440206
0.471276
0.486393
0.531071
0.48432
0.488124
0.516088
0.545145
0.619572
0.699619
0.622482
0.658042
0.726408
0.79028
0.704889
0.565688
0.680235
0.574916
0.600403
0.347419
0.262315
0.321627
0.285449
0.427627
0.539844
0.460422
0.538901
0.533818
0.560372
0.531614
0.00052156
0.000486685
0.105172
3.12588e-06
0.198335
0.0719585
0.000599399
0.00184543
0.000581936
0.00100962
0.000664765
0.00100889
0.000730728
0.000955715
0.000642852
0.000952703
1.03858
1.03004
1.06496
1.05491
1.03287
1.00579
0.930857
0.847699
0.781887
0.791287
0.768989
0.771058
0.750918
0.749388
0.729064
0.732349
0.682829
0.722441
0.645289
0.591993
0.532723
0.495035
0.000980374
0.00121418
0.00114227
0.000663073
0.000324775
0.000634192
0.000557375
0.000353971
0.00126919
0.00126627
0.000562745
0.00100984
0.000836975
0.00100942
0.00138379
0.00017911
0.000278273
0.00184924
0.00094724
0.000975697
1.59257e-05
0.000857815
0.0917594
0.0695293
0.26317
0.111596
0.473193
0.634609
0.646945
0.741422
0.959452
0.853232
0.97375
0.97152
0.987339
1.01519
1.04805
1.06531
0.449932
0.455037
0.409801
0.430994
0.370976
0.339545
0.332851
0.330169
0.328069
0.334973
0.289766
0.282352
0.252806
0.261999
0.32863
0.295149
0.270183
0.322934
0.31226
0.333643
0.235807
0.218478
0.242407
0.242806
0.241387
0.204231
0.206694
0.208843
0.208961
0.195067
0.19951
0.514425
0.49184
0.492739
0.488988
0.513701
0.620376
0.575157
0.554424
0.43861
0.478857
0.468711
0.46917
0.368182
0.308018
0.440851
0.556814
0.438693
0.44816
0.424144
0.508602
0.489662
0.558404
0.590795
0.522745
0.495667
0.53753
0.414489
0.377383
0.386663
0.377733
0.29032
0.356482
0.285295
0.232509
0.20665
0.329944
0.33497
0.384776
0.387906
0.382935
0.392613
0.387047
0.399395
0.392134
0.410496
0.399341
0.425987
0.415611
0.426053
0.430767
0.45834
0.439746
0.470974
0.469137
0.420667
0.409614
0.46741
0.456161
0.443004
0.465974
0.447535
0.429594
0.49108
0.461835
0.569392
0.582335
0.527698
0.574325
0.581289
0.552373
0.645048
0.612614
0.682101
0.705192
0.72625
0.593068
0.602651
0.595017
0.563773
0.538891
0.511141
0.596967
0.455511
0.425391
0.472666
0.503931
0.167
0.243281
0.29728
0.43341
0.460299
0.498797
0.41031
0.36214
0.332333
0.265053
0.000965631
7.32531e-05
0.00106267
2.82053e-05
0.0955033
0.190042
0.000993891
0.000234006
0.00100979
0.000545241
0.00024476
0.000470015
0.000926911
0.000208943
0.000550706
0.000986846
0.000766556
0.000551352
7.04619e-05
0.000388285
0.000995182
0.00101468
0.000134271
0.00100026
0.000866591
0.000392119
0.000991627
0.000961836
0.000976937
0.00125868
0.00125749
0.00125711
0.000830647
0.000999494
0.000964419
0.000201819
9.59135e-05
0.000989075
0.000892979
0.0009482
0.00100959
0.000881287
0.001002
0.00100726
2.75699e-05
0.000980384
1.03449
1.04347
1.06474
1.05522
1.03316
0.961226
0.782571
0.866043
0.750481
0.751187
0.729308
0.731041
0.724196
0.721847
0.719432
0.716416
0.660682
0.635158
0.537053
0.574488
0.433747
0.469485
0.000851104
0.000624444
0.000948563
0.000967574
0.000953734
0.000968432
0.000986514
0.000838835
0.000998153
0.000769407
0.000677989
0.000965569
0.000971308
0.000759356
0.000310359
0.00102401
0.000690401
0.00100737
0.000803925
0.000839513
0.000369052
0.000975289
0.000889611
0.000636789
0.0015587
0.000466499
0.000919582
6.63499e-05
7.37904e-06
0.000449682
0.136439
0.000519111
0.145174
0.149828
0.44842
0.278566
0.657063
0.61433
0.681339
0.787514
0.894402
0.971214
0.983626
0.974344
1.01576
1.04446
1.03173
1.02944
0.00101465
0.000740784
0.000886173
0.000193803
0.000941718
0.000922867
0.00081396
0.00091923
0.000890554
0.000907084
0.000975785
0.00092383
0.000794854
3.95634e-06
0.000657537
0.00116316
0.000170835
0.430325
0.434813
0.431517
0.39988
0.320736
0.353463
0.283255
0.274619
0.242067
0.238163
0.196567
0.193783
0.242702
0.244939
0.207896
0.241248
0.241069
0.288596
0.271774
0.275367
0.178915
0.154988
0.15993
0.195961
0.185459
0.190419
0.170335
0.166515
0.132541
0.127902
0.0907774
0.0929633
0.713925
0.68495
0.723027
0.733895
0.682295
0.641132
0.808386
0.82737
0.89217
0.90277
0.450664
0.489175
0.543739
0.625329
0.445556
0.394602
0.427167
0.429813
0.267822
0.318381
0.319933
0.21106
0.425629
0.42306
0.426162
0.423191
0.443427
0.428091
0.44253
0.450351
0.337498
0.322508
0.231099
0.308279
0.297998
0.267201
0.205651
0.236351
0.174363
0.202713
0.179642
0.267758
0.335554
0.264494
0.333043
0.392205
0.394528
0.386915
0.393629
0.403366
0.426177
0.414296
0.434788
0.435692
0.459115
0.447688
0.471604
0.475523
0.474162
0.477371
0.484692
0.484863
0.523778
0.490051
0.460659
0.466992
0.525766
0.498988
0.50416
0.550081
0.588782
0.593753
0.587148
0.592571
0.621461
0.678483
0.737244
0.760357
0.766857
0.74738
0.890598
0.825515
0.955492
0.994883
0.987668
1.02699
1.08378
0.947011
1.0332
1.05742
1.13132
1.18109
1.20795
1.22789
1.257
1.20221
1.25841
1.21583
1.29467
1.29466
1.34465
1.31326
1.37363
1.40443
1.39281
1.343
1.4063
1.43092
1.39742
1.39464
1.45856
1.43679
1.46813
1.4094
1.4088
1.47233
1.44071
1.39501
1.39424
1.42648
1.45824
0.404215
0.356687
0.532259
0.529157
0.503727
0.497312
0.491839
0.25609
0.398117
0.095415
0.126623
0.231697
0.203019
0.0656314
0.182075
0.144681
0.32794
0.241568
0.224826
0.145194
0.126416
0.14841
0.170256
0.000745578
0.00109052
0.000986967
0.000257401
0.0011155
0.000378695
0.0010648
0.000890948
0.000995857
0.000757128
2.66231e-05
0.00122573
0.000842141
0.000928041
0.000844807
0.000947792
9.6441e-05
0.00069126
0.000943677
0.000831092
0.00109154
0.000988866
0.000135372
0.000146108
0.000949
0.000255762
3.25826e-05
1.61879e-05
0.000990101
0.000818938
0.00100231
0.000908986
0.000928807
0.000411103
0.000546378
0.000449572
0.000762255
0.000945839
0.00100968
0.000965824
0.000988902
0.0010128
0.00171684
0.000786266
0.00107668
0.000989419
0.000814176
0.00124342
0.00119486
0.000814886
0.00124167
0.00124294
0.000136555
0.000864602
0.000983417
0.000983889
0.000971598
0.000354154
0.00100192
0.000912378
0.00100744
0.000997061
0.000137479
0.000934613
0.000950381
0.000921886
0.000915695
0.000919934
0.000992107
0.00160941
0.000979762
0.000968314
1.02187
1.01293
0.985649
0.981951
0.901357
0.971703
0.795049
0.732275
0.721124
0.722393
0.723082
0.721483
0.662432
0.665885
0.514329
0.470528
0.433513
0.606514
0.603493
0.555981
0.553691
0.552309
0.000897807
0.000507764
0.00147306
0.00135544
0.000999524
0.000376381
0.000397622
0.000414441
0.0010081
0.000973655
0.000161511
0.00100893
0.000976924
0.000968595
0.000297472
0.000985833
0.000726155
0.000944004
0.00021426
0.000849063
0.000632206
0.000951565
0.00112094
0.00112101
7.47504e-05
7.1292e-06
0.000692076
0.154463
0.279723
0.153206
0.444368
0.615049
0.644527
0.674854
0.756421
0.869466
0.934496
0.914869
0.95598
0.893923
0.942943
0.983209
0.938244
0.937275
0.00126635
0.000976624
0.00113704
0.000849207
0.000971679
0.00121876
0.000247644
0.000791987
0.00121863
0.0010069
0.00100265
0.000985673
0.000920241
1.14836e-05
0.000799064
0.00073435
0.000776991
0.000599932
0.000968046
0.000236686
0.000248866
0.000285165
0.000957616
0.000920252
0.00143953
0.000520089
0.408481
0.405015
0.328023
0.343245
0.223146
0.243515
0.185592
0.186745
0.184066
0.189624
0.158722
0.166544
0.15857
0.164654
0.14549
0.180514
0.261206
0.226995
0.266875
0.263712
0.0734325
0.0939893
0.136499
0.120964
0.10229
0.111528
0.0604047
0.0571319
0.046033
0.0576588
0.0683992
0.0664255
0.93817
0.938095
0.766227
0.682839
0.668649
0.657733
0.935058
0.848951
1.09605
1.17198
1.06777
0.991255
1.18575
1.16769
1.23446
1.28248
1.31274
1.31297
1.34102
1.31396
1.36908
1.3954
1.39134
1.3916
1.40942
1.39491
1.39578
1.44119
1.38558
1.38048
0.499327
0.429123
0.573249
0.643579
0.426959
0.376234
0.426836
0.429158
0.257284
0.309875
0.098469
0.263834
0.149865
0.427046
0.364122
0.42266
0.414103
0.426579
0.320325
0.216492
0.139716
0.132854
0.145273
0.17666
0.0975381
0.0920857
0.0288797
0.111197
0.196408
0.19071
0.11252
0.215197
0.287716
0.230742
0.341545
0.28221
0.326215
0.39076
0.431225
0.399134
0.43704
0.444764
0.459276
0.44222
0.478069
0.494116
0.494833
0.502961
0.510047
0.517761
0.547436
0.564152
0.554501
0.543023
0.556018
0.543083
0.560338
0.581068
0.62499
0.623411
0.589146
0.625021
0.620323
0.646961
0.683228
0.748456
0.779544
0.776916
0.788708
0.860074
0.942091
1.01709
1.03047
1.15869
1.03182
1.08158
1.23225
1.25808
1.25672
1.29508
1.34281
1.39274
1.40255
1.40647
1.43374
1.46272
1.48856
1.48933
1.48998
1.48936
1.49016
1.47275
1.41018
1.47298
1.44153
1.39643
1.39694
1.4281
1.45961
1.47012
1.39818
1.45859
1.41833
0.189614
0.179619
0.252463
0.328811
0.221396
0.286521
0.419262
0.353423
0.386008
0.221853
0.121525
0.0906118
0.0860808
0.180963
0.1849
0.000160957
0.00100738
0.149515
0.0225384
0.125819
0.14274
0.152251
0.134941
0.143712
0.181481
0.000872632
0.000842036
0.000923378
0.000992133
0.00246081
0.00236883
0.000909541
0.000172666
0.00105676
0.000892638
0.000981197
0.000995181
0.000287667
0.000315336
0.000338807
0.000894352
0.000802469
0.00109546
0.000934557
0.000984534
0.00083683
0.000660221
0.000998234
0.000701989
0.00100779
0.000868975
0.00104132
0.000966241
0.000742609
0.000669436
0.00125372
0.000108059
0.000994585
0.000937228
0.000578336
0.000855806
0.000542533
0.000981774
0.000870045
0.00105372
0.000985337
0.000911201
0.000925414
0.000995942
0.000997415
0.000973529
0.000274115
0.00155104
0.000975582
0.00106357
0.000981929
0.000999551
0.000641972
0.000367709
0.000916152
0.000960434
0.000942248
0.000892128
0.000929034
0.000479733
0.93361
0.933122
0.915747
0.919614
0.850146
0.91314
0.722001
0.785012
0.68242
0.681094
0.625296
0.610373
0.552817
0.555458
0.470739
0.363623
0.344969
0.508578
0.555864
0.555782
0.553187
0.55311
0.00152628
0.000940087
0.00153743
0.000247017
0.000963644
0.000942613
0.000941024
0.000981579
0.00101696
0.000821442
0.000135327
0.000435371
0.000952655
0.000996849
0.000795181
0.00115407
0.000996172
3.39618e-05
0.000985985
0.000873381
0.000289017
0.00112082
0.000145376
0.000996574
0.000304771
3.84062e-06
0.112388
0.150702
0.344004
0.177068
0.483233
0.618661
0.591434
0.702251
0.868172
0.771952
0.849615
0.846911
0.842153
0.86884
0.926699
0.922301
0.9269
0.898588
0.000769413
0.000922585
0.000588907
0.00105663
0.000757724
0.00106568
0.000647619
0.000322932
0.00080286
0.000879841
0.000957505
0.00080717
0.0011997
0.000417146
0.000996707
0.000796735
0.000956766
0.000987798
0.000706673
0.00107177
0.00071856
0.00107109
0.000913665
0.000934494
0.000997983
0.000860782
0.000668131
0.000842773
0.000136748
0.000756032
0.000938482
0.283847
0.280635
0.245509
0.226729
0.18266
0.202835
0.173974
0.169389
0.326306
0.2638
0.247299
0.101193
0.11409
0.0485163
0.0489918
0.137849
0.143112
0.14045
0.174516
0.237368
0.19382
0.22809
0.214351
0.0933242
0.0736269
0.0881822
0.108036
0.0233601
0.0193362
0.0268353
0.0377829
0.0548338
0.042324
0.00701912
0.000456085
1.51885
1.52795
1.55609
1.53328
1.57611
1.56174
1.58604
1.57847
1.63331
1.6206
1.5863
1.63741
1.60283
1.65605
1.48595
1.43857
1.45823
1.50644
1.48928
1.45858
1.46128
1.51365
1.5197
1.49548
1.47568
1.52708
1.51182
1.51876
1.54448
1.39595
1.39671
1.39759
1.39604
1.41591
1.43698
0.985031
0.929618
0.826194
0.732581
0.645647
0.720082
0.920096
0.903751
1.14353
1.16791
1.05266
1.13563
1.17562
1.22369
1.27243
1.31355
1.31201
1.31322
1.31052
1.34083
1.354
1.3801
1.36709
1.36976
1.37269
1.38299
1.36067
1.36044
0.550573
0.480253
0.422113
0.412966
0.468798
0.644933
0.624971
0.353138
0.408946
0.281195
0.216815
1.50135
1.52229
1.53901
1.54667
1.55091
1.56257
1.56731
1.5941
1.57968
1.59736
1.59676
1.64488
1.6682
1.69016
1.69065
1.69513
1.70832
1.73204
0.143156
0.0869899
0.0855864
0.352148
0.236115
0.407864
0.311573
0.225735
0.126538
0.134617
0.128991
0.138408
6.08318e-06
0.0549366
0.000256794
6.39372e-07
0.0136903
1.4521e-08
0.203922
0.137305
0.0300904
0.233755
0.22472
0.239921
0.299408
0.245261
0.383651
0.325242
0.42108
0.378339
0.414416
0.449922
0.467251
0.498116
0.521588
0.514639
0.532521
0.518697
0.584774
0.566163
0.562127
0.565321
0.61157
0.591647
0.664817
0.620391
0.600938
0.649412
0.690211
0.686382
0.706124
0.746345
0.747078
0.687156
0.801302
0.82695
0.799113
0.790896
0.872478
0.957518
1.02972
1.0992
1.04588
1.06096
1.19053
1.25188
1.29296
1.27579
1.33885
1.37122
1.412
1.42677
1.42109
1.44135
1.49893
1.47895
1.49119
1.49956
1.49105
1.48956
1.49014
1.48961
1.49078
1.49019
1.49066
0.175123
0.160112
0.181358
0.109456
0.13163
0.147497
0.084435
0.222364
0.127932
0.0647282
0.0821553
0.0620543
0.00091886
0.0640441
0.0853826
0.000448865
1.84636e-06
6.41819e-05
0.00111871
0.144912
0.0201603
0.0396251
0.0266308
0.00063122
0.000440501
0.000723302
0.00148562
0.0008762
0.00135018
0.00114188
0.00246242
0.00077342
0.00110288
0.000935575
0.000847958
0.00096702
0.000896738
0.000998449
0.000247763
0.000888291
0.000995403
0.00101119
0.00133016
0.000997462
0.000398457
0.000668916
0.000910868
0.000270015
0.000740386
1.72581e-05
0.000556111
0.00211911
0.000206204
0.00101022
0.000694792
0.000433236
0.000977932
0.000393476
0.00100993
0.000969937
0.00113772
0.00093883
0.000999516
0.000678601
0.00111448
0.000996648
0.000765052
0.000853279
0.000900519
0.00124801
0.00089779
0.000999394
0.000655675
0.000258775
0.000955616
0.00117779
0.000966732
0.000838222
0.00116665
0.000391716
0.000909385
0.000869702
0.00116606
0.000878801
0.000737921
0.000952442
0.00105276
0.000695524
0.000567275
0.00161604
0.000315386
0.000674617
0.000835469
0.000982556
0.00162149
1.68566
1.65174
1.62709
1.72665
1.76083
1.755
0.913822
0.913279
0.901374
0.897341
0.822809
0.886257
0.716928
0.640972
0.569715
0.582915
0.554289
0.55217
0.552521
0.554607
0.432192
0.346791
0.436872
0.518771
0.516552
0.00093523
0.000874335
0.000875173
0.000890082
0.00105214
0.00100778
0.00089983
0.000493094
0.000951618
0.000503234
0.00100943
0.00109182
0.000943457
0.112937
0.148851
0.172403
0.00102256
0.00038233
0.000128865
0.000998125
4.59314e-06
0.000175283
0.000921556
0.000910909
0.000485365
0.000917319
0.000895146
0.317348
0.457841
0.571812
0.570551
0.891954
0.812452
0.826013
0.609978
0.698754
0.788896
0.839371
0.840786
0.841119
0.859809
0.887561
0.880922
0.000873199
0.00135437
0.000680222
0.000984546
0.000926932
0.000922283
0.000981159
0.000845157
0.000843298
0.00099892
0.000817811
0.000932446
0.000763197
0.000813959
0.00102484
0.000975054
0.000964888
0.00104186
0.000928791
0.00104222
0.000948066
0.000816207
0.000803256
0.000960659
0.000880189
0.000880778
0.000749264
0.000820606
0.000962731
0.000998462
0.00122983
0.000984843
0.000791152
0.000934063
0.000718096
0.00106907
0.00106885
0.280641
0.316526
0.300857
0.24666
0.2447
0.217663
0.238961
0.106551
0.133336
0.051587
0.0495692
0.248637
0.237726
0.0125515
0.00662289
0.0116743
0.017366
0.0891872
0.0725683
0.115922
0.065145
0.185903
0.140442
0.189751
0.197374
0.000194778
0.000669437
0.00666252
0.0266575
0.000774682
0.00059076
8.99574e-05
0.000118695
0.000908287
0.000960698
6.40793e-05
0.000993596
1.51909
1.53322
1.55665
1.57863
1.58678
1.58706
1.62551
1.60106
1.45199
1.45021
1.43422
1.45503
1.48805
1.45027
1.49512
1.47037
1.38386
1.3714
1.3715
1.40302
1.43259
1.40655
0.991028
0.913321
0.809488
0.897564
0.746502
0.658593
0.910969
0.910618
1.15098
1.15482
1.16979
1.0651
1.1432
1.25784
1.20372
1.14632
1.18895
1.29039
1.30385
1.2952
1.30174
1.30996
1.33336
1.36038
1.35038
1.36
1.36021
1.35848
1.35854
1.35979
1.35945
0.397265
0.399393
0.539862
0.621332
0.399319
0.480153
0.640177
0.654264
0.389459
0.335377
0.247243
0.309582
1.53209
1.49018
1.50939
1.55694
1.55421
1.557
1.56771
1.58956
1.61208
1.62306
1.62267
1.62746
1.65077
1.69009
1.67259
1.68942
1.70831
1.75524
1.73125
1.56319
1.57412
1.59055
1.7603
1.76095
1.76119
0.0855299
0.0853306
0.0874275
0.060965
0.159298
0.171995
0.00100749
0.00909169
0.0467139
0.000909326
0.000959938
0.000208783
0.000688235
0.00173185
0.000150787
0.00174339
0.00100206
0.00100857
0.079339
0.0270156
0.0262632
0.166067
0.25269
0.147831
0.316611
0.350876
0.272544
0.325285
0.390224
0.345413
0.483848
0.416593
0.489653
0.512135
0.52322
0.503678
0.556521
0.603074
0.63573
0.640266
0.649258
0.629871
0.659523
0.638554
0.688729
0.697814
0.720343
0.715118
0.693462
0.700534
0.815776
0.867247
0.759824
0.829072
0.872941
0.839899
0.937445
0.986197
1.08337
1.122
1.10151
1.19057
1.24864
1.34512
1.33355
1.392
1.36404
1.45904
1.46683
1.46024
1.4876
1.51645
1.51669
1.57091
1.53673
1.56307
1.52663
1.52588
1.56151
1.49338
1.53008
1.49369
0.000930097
2.76924e-05
0.0015158
0.000442041
0.0969688
0.0878307
0.0885215
0.0611413
0.0728744
0.000342451
2.64188e-05
0.000379936
0.000317055
5.364e-05
0.000515688
0.00020382
5.80347e-06
0.000726671
0.000344866
0.000283019
0.00100095
0.000957347
0.000141569
0.000968024
0.00100493
0.000194499
0.000999883
0.000693446
0.001537
0.00130613
0.000995707
0.000995782
0.000992745
3.82214e-05
0.00107832
0.000977635
0.0010004
0.000112849
0.00044385
0.000919656
0.00145527
0.000402008
0.00152243
0.000103137
0.000984734
8.78815e-05
0.0009581
0.000364482
0.000989341
2.55632e-05
0.000978804
0.00188682
0.0010003
0.000134455
0.000979461
0.00146452
0.00102914
0.00049017
0.00116268
0.00116282
0.000465046
0.000964507
0.000960524
0.000908522
0.00119226
0.00122795
0.000934737
0.000909917
0.00124599
0.00123947
0.000955402
0.00075126
0.000711032
0.000919589
0.00117731
0.000115739
0.00117823
0.000982856
0.00098702
0.000966821
0.000998033
0.000973417
0.00100423
0.00089072
0.000909543
0.000805878
0.000827454
3.59003e-06
5.59272e-06
0
0.000996169
0.000817373
0.000430028
0.00100384
0.00137486
0.000923733
0.00100958
0.00100998
0.000998719
0.000998553
0.000866555
0.000936132
0.00105041
1.64764
1.65842
1.66012
1.66016
1.69437
1.80279
1.77777
1.77917
1.80485
1.7435
0.821531
0.810504
0.745168
0.74669
0.705674
0.734124
0.644901
0.602238
0.58577
0.553606
0.52881
0.527044
0.439009
0.44801
0.315268
0.36002
0.357337
0.000529692
0.000965684
0.000913493
0.00101
0.000976195
0.000897008
0.000881759
0.143485
0.287702
0.149804
0.000919443
0.000187013
0.000924139
0.000981038
0.000225386
0.000768639
0.00101366
0.000981189
0.000918044
0.0010294
0.000849804
0.000897347
0.000944045
0.000847483
0.000412737
0.68653
0.688989
0.731506
0.430602
0.571853
0.569265
0.606481
0.732687
0.800586
0.761495
0.670298
0.752761
0.778681
0.783285
0.70399
0.733081
0.000924111
0.000983644
0.00100969
0.00108893
0.000254439
0.000966366
0.00100657
0.00138018
0.000840469
0.000994497
0.000161435
0.000238441
0.00096803
0.000936631
0.000510229
0.00264014
0.00278444
0.00280915
0.000373065
0.000895081
0.000811173
0.00104145
0.000918958
0.000912752
0.00087157
0.00119206
0
0
0
0.000945975
0.000905119
0.000967225
0.00100048
0.000821328
0.000590797
0.00116721
0.000998436
0.000981037
0.000994281
0.000279686
0.000914357
0.000984217
0.00101464
0.000676433
0.000963517
0.298903
0.306036
0.318594
0.184345
0.202858
0.167296
0.164337
0.0932307
0.0823582
0.00664608
0.000541492
0.00367577
0.00339466
0.0957383
0.0941495
0.000987127
0.000272629
0.000553125
0.000543239
0.027745
0.0219449
0.0495876
0.106416
0.184614
0.149551
0.214479
0.168814
0.000185987
0.000762785
0.000999491
0.0164018
0.000330632
0.000744445
0.000746861
0.000351074
0.00101
0.000942721
0.000770281
0.00144266
1.52569
1.47856
1.55734
1.51821
1.52782
1.57154
1.56277
1.61443
1.5915
1.64058
1.60732
1.57655
1.64065
1.60714
1.41798
1.41788
1.40827
1.42197
1.43535
1.44663
1.44705
1.45475
1.35934
1.35895
1.38344
1.36813
1.3992
1.40725
0.994238
0.916496
0.836244
0.912033
0.70829
0.800374
0.913314
0.919299
1.14329
1.14458
1.14611
1.07315
1.2345
1.28203
1.19294
1.14499
1.28908
1.28851
1.30386
1.28942
1.32705
1.35021
1.35822
1.35917
1.35878
1.35603
1.35942
1.35917
1.35805
1.35554
0.394132
0.390857
0.558966
0.635748
0.536397
0.455368
0.692397
0.637152
0.369984
0.390342
0.361727
0.28168
1.53059
1.56703
1.55054
1.57649
1.59486
1.58461
1.61996
1.63174
1.60917
1.62227
1.61202
1.62164
1.62687
1.64919
1.67257
1.68878
1.68959
1.74267
1.71853
1.76965
1.77466
1.64491
1.65769
1.77656
1.78627
0.000300413
0.000150446
0.000636971
0.000346333
0.000714575
0.000111876
9.90474e-05
0.000797424
0.00131164
1.1262e-05
0.000941575
0.00037276
0.000722406
0.000657476
5.09164e-06
0.000620114
0.0300526
0.000599831
0.047254
0.0328544
0.0279511
0.10719
0.254537
0.147063
0.346756
0.333907
0.309555
0.249541
0.372554
0.429199
0.486173
0.464419
0.498964
0.478347
0.609166
0.548773
0.652668
0.65051
0.672929
0.68214
0.651154
0.709653
0.758665
0.730629
0.717918
0.739585
0.788592
0.780212
0.756822
0.806731
0.886856
0.891861
0.87984
0.905492
1.03651
0.947036
1.11828
1.14785
1.14538
1.21616
1.28913
1.3682
1.37311
1.38769
1.43227
1.48268
1.51707
1.51919
1.55758
1.52998
1.58249
1.59854
1.59741
1.59826
1.59765
1.5984
1.5669
1.59843
1.56731
0.000908458
0.000711676
0.00395988
0.000966776
0.000984362
2.38602e-05
0.000905953
0.00060051
0.000534822
0.000406901
0.000488147
0.00156055
0.000393775
0.0015718
0.0015657
0.00157503
0.00158839
0.000889209
0.00158756
0.00222739
0.00131633
0.000971582
0.000184916
0.000772762
4.50476e-07
0.0028522
0.00284414
0.000587667
0.000821346
0.00100217
0.000993637
0.000687571
0.000981189
0.000176237
0.00116998
0.000998263
0.00106484
0.000959982
0.00100986
0.000887496
0.000962023
0.000994158
0.00134995
0.0010002
0.000146754
1.36216e-05
0.000607696
0.00097247
0.000988249
0.000479144
0.000826696
0.000967913
0.000991595
0.000300702
0.000370909
0.00100194
0.00100992
0.000817418
0.000560979
0.000989282
0.00101294
0.00080775
0.000993991
0.000279366
0.000891869
0.000960045
0.000939058
0.00101
0.00105425
0.000894891
0.000956398
0.000980553
0.000903286
0.000770079
0.000984106
0.000952799
0.000994867
0.00098992
0.000934564
0.000964099
0.000974876
0.000974485
0.00177643
0.000960806
0.000905098
0.000949453
0
0
0
0
0
0
0
0
0
0
0
0
0
0
0
0
0
0
0
0.0011209
0.000947748
0.000975291
0.000812305
0.000909922
0.000436148
0.000960255
0.00112165
0.000343415
0.000811332
0.000317982
0.000878445
1.83061
1.81796
1.83638
1.82837
1.83827
1.83803
1.67464
1.67671
1.74427
1.71097
1.80338
1.82868
1.80283
1.68905
1.63931
0.684976
0.68548
0.686739
0.675752
0.684999
0.618252
0.660885
0.449589
0.503865
0.370571
0.368883
0.315204
0.317228
0.315208
4.53839e-05
0.000965362
0.000491082
0.00137958
0.122657
0.314148
0.150993
0.00109518
0.000759363
0.105434
2.67043e-05
0.000969765
0.000958999
0.000998856
0.000983688
0.000794912
0.000582795
0.00096848
0.00104103
0.000149107
0.00100285
0.000932938
0.0004632
0.000840876
0.686237
0.685787
0.689113
0.6891
0.686529
0.399599
0.514413
0.45859
0.576474
0.638073
0.664648
0.593867
0.676585
0.62892
0.627892
0.614925
0.000942447
0.00115932
0.000581307
0.000968621
0.000969999
0.000935143
0.000965124
0.00101985
9.6507e-05
0.000520238
0.00101565
0.000378222
6.92933e-05
0.000527482
0.000901245
0.000616055
0.000764758
0.000919235
0.000806876
0.00101637
0.000691302
0.00095731
0.000740767
0.000726241
0.000621516
0.000982088
0.000936638
0.000894596
0.000348871
2.15212e-05
0
0
0
0
0
0.000969416
0.00098683
0.000992413
0.00119129
0.000969091
0.000774284
0.000835369
0.000126179
0.000991764
0.00100276
0.000892902
0.00120695
0.000549299
0.000917138
0.000787048
0.000891884
0
0
0
0
0
0
0.295045
0.227355
0.210506
0.139428
0.136447
0.0475498
0.0409949
0.0320569
0.0262402
0.0185987
0.0262951
0.000661853
0.00023213
6.22529e-05
0.000190975
0.0278689
0.02973
0.00085286
0.000905726
0.00123364
0.000974421
0.144524
0.211571
0.129954
0.000694032
0.00162165
0.0841802
0.0158487
0.101379
0.00065794
0.000715078
0.00034785
0.000478836
0.00161253
0.00161163
0.000667679
0.000959699
0.000281529
0.000798649
0.00100972
0.000818552
1.48948
1.4723
1.49914
1.49893
1.49961
1.51956
1.5408
1.56059
1.56021
1.56076
1.6434
1.60102
1.56532
1.40885
1.40799
1.43575
1.42346
1.44745
1.44816
1.47269
1.45587
1.3596
1.3669
1.39093
1.37463
1.39069
1.399
1.03467
0.956527
0.878955
0.915203
0.862288
0.769217
0.95292
0.916924
1.14932
1.1494
1.1101
1.15456
1.2425
1.29111
1.15304
1.19991
1.29371
1.29209
1.31563
1.29559
1.33689
1.35578
1.35483
1.35458
1.35449
1.35406
1.35698
1.35494
1.35388
1.35364
0.389793
0.44868
0.636675
0.614326
0.536227
0.618672
0.640205
0.714677
0.383666
0.381246
0.373879
0.294448
0.124466
0.174263
0.253123
1.59961
1.60448
1.63233
1.62354
1.64836
1.66078
1.66062
1.66025
1.69656
1.67616
1.68804
1.65424
1.68492
1.69558
1.72002
1.73842
1.7519
1.74994
1.80211
1.8042
1.82698
1.80576
1.71575
1.72105
1.84081
1.83737
0.000151141
0.000525862
0.000978019
0.000157532
0.000729054
0.00127026
0.00126817
0.000760184
0.000305007
0.000157084
0.000207323
0.00180706
0.00135949
0.000305284
0.000974504
0.000835447
0.00100232
0.000975658
0.0891861
0.0547845
8.52107e-07
0.150376
0.182678
0.200827
0.193493
0.284336
0.368656
0.246809
0.472508
0.398237
0.470242
0.483651
0.576194
0.505607
0.629963
0.670752
0.667223
0.663754
0.796445
0.754384
0.722842
0.778834
0.808437
0.802657
0.798234
0.782876
0.797189
0.803595
0.879965
0.929227
0.96836
0.918968
0.968064
0.988039
1.13488
1.06321
1.15732
1.14855
1.22611
1.30473
1.38819
1.38625
1.41936
1.45938
1.53599
1.52232
1.54844
1.55139
1.57996
1.59136
1.60803
1.6021
1.61213
1.60926
1.60003
1.6109
1.59995
1.59997
0.00101242
0.000964192
0.00109169
0.000851563
0.00104396
0.00054821
0.000584585
0.000909524
0.000835099
0.00159731
0.000544932
0.000915888
0.000295924
0.00154138
0.00160176
0.00156576
0.00158496
0.00159372
0.00159759
0.000398268
0.000371652
0.0010611
0.000916096
0.000875131
0.000192642
0.0010045
0.000884889
0.000997311
0.000180038
0.000942153
0.000624923
0.000984634
9.76461e-05
0.000923508
0.00100863
0.00125092
0.00098101
0.00152944
0.000966562
0.00315172
0.000247442
0.000210438
0.00024578
0.00101117
0.000838764
6.85917e-09
0.000996636
0.00100983
0.000299086
0.000851957
0.00112604
0.00012922
0.00100976
0.000959372
0.000170502
0.000949766
0.000989672
0.000976346
0.00302494
0.000980885
0.000759889
0.00098777
0.000864361
0.000796608
0.00109522
0.00109497
0.00109509
0.000892759
0.000969615
0.000963724
0.000960135
0.000960121
0.000944783
0.00103486
0.000910794
0.00097347
0.000947049
0.000951887
0.000925848
1.67713e-05
0.000881191
0.00092376
0.0003855
0.000414352
0.00098456
0
0
0
0
0
0
0
0
0
0
0
0
0
0
0
0
0
0
0
0.000800746
0.00092839
0.00096851
0.000861387
0.00071335
0.000842433
0.00121537
0.000678181
0.000629209
0.00115563
0.000963857
0.000894528
1.84995
1.87249
1.88126
1.83774
1.84318
1.82856
1.83795
1.72533
1.74459
1.76185
1.77793
1.77827
1.81407
1.83979