/*--------------------------------*- C++ -*----------------------------------*\
  =========                 |
  \\      /  F ield         | OpenFOAM: The Open Source CFD Toolbox
   \\    /   O peration     | Website:  https://openfoam.org
    \\  /    A nd           | Version:  8
     \\/     M anipulation  |
\*---------------------------------------------------------------------------*/
FoamFile
{
    version     2.0;
    format      ascii;
    class       volScalarField;
    location    "720";
    object      nut;
}
// * * * * * * * * * * * * * * * * * * * * * * * * * * * * * * * * * * * * * //

dimensions      [0 2 -1 0 0 0 0];

internalField   nonuniform List<scalar> 
526318
(
0.000182231
0.000207899
0.00019269
0.000203215
0.000264941
0.000337712
5.41564e-05
0.000238059
0.000192399
8.3944e-05
6.53436e-05
0.000162932
0.000128359
0.000222233
0.000377108
0.000408018
0.000135693
0.000340112
0.000320544
0.000316838
0.000439428
0.000389426
0.00011672
0.000109587
0.000159406
0.000153493
0.000147752
3.50071e-05
0.000182908
0.000227247
0.000275788
0.000319905
0.000284614
0.000450946
0.000148272
0.00039575
0.000370672
0.000441903
0.000477545
0.00042775
0.000487887
8.20593e-05
6.82121e-05
0.00013031
9.24034e-05
0.000124079
7.58666e-05
0.000148803
0.000310895
0.000224169
0.000449883
0.000288618
0.000408346
0.000133702
0.000151906
9.61725e-05
9.13969e-05
0.000246334
0.000442549
0.000541751
0.000489766
0.000675456
0.000522444
0.000404453
0.000405619
0.000664668
0.00057058
0.000710009
0.000638633
0.000571659
0.000758206
0.000756518
0.000811233
0.000665706
0.000723352
0.000596277
0.000788127
0.000751296
0.000691499
0.00081652
0.000827018
0.000863769
0.000965391
0.000803731
0.000911455
0.000931368
0.000860359
0.00111214
0.00103984
0.000972696
0.00107447
0.00119294
0.0010314
0.000960538
0.00120379
0.00112349
0.0011864
0.00122506
0.00110862
0.0011179
0
0
2.11425e-05
3.43008e-05
7.71409e-05
1.54868e-06
0.000262921
7.329e-05
0.00024837
0.000135998
9.70749e-05
0.000220966
0.000117721
0.000161789
0.000274866
0.000156653
0.000316901
0.00031114
0.000375247
0.00111627
0.00116953
0.00127312
0.00112206
0.00120645
0.00117549
0.00131271
0.00130451
0.00121167
0.00119114
0.00122076
0.00131653
0.00125861
0.00108502
0.00112543
0.00114973
0.0010558
0.00120009
0.0010039
0.00107965
0.000974708
0.000985896
0.000957146
0.00109607
0.000985088
0.000933966
0.000925129
0.000907451
0.000887463
0.000910737
0.000862406
0.000901299
0.000865251
0.000868124
0.000852082
0.000829236
0.0008131
0.000796568
0.000832678
0.000805167
0.000679568
0.000685682
0.00067243
0.000753074
0.000752209
0.000535971
0.000666218
0.000365969
0.000708029
0.000601038
0.000628476
0.000726033
0.000710347
0.000805552
0.000958436
0.000786476
0.000867334
0.00113044
0.00113
0.00097712
0.00108195
0.00126208
0.00109314
0.00135699
0.00144616
0.00135573
0.00143258
0.00128466
0.0012512
0.00135624
0.00120382
0.00128754
0.00111771
0.00121073
0.00111571
0.00100902
0.000884528
0.00100845
0.000891349
0.000784606
0.00071149
0.000806581
0.00086171
0.000710782
0.000689862
0.000689978
0.000645584
0.000652564
0.000674412
0.000712794
0.000650752
0.000468367
4.3177e-05
0.000103337
0.000351011
0.000378909
0.000356069
0.000432905
7.58431e-05
0.000428423
0.000222471
0.000317406
0.00021607
0.000130757
0.000381437
0.000398483
0.000328014
0.000403399
0.000360834
0.000121178
8.06425e-05
0
0.000176008
0.000243955
0
0
0
0
0
0
0.000518304
0.000502154
0.000451802
0.000447235
0.000644722
0.000546062
0.000655491
0.000737568
0.000778356
0.000704371
0.000792924
0.000757708
0.000837799
0.000801614
0.000850383
0.000873841
0.00100582
0.0010032
0.00103112
0.00103707
0.00107494
0.0010558
0
0
0
1.85647e-08
2.11098e-05
0
5.06938e-05
0.000126496
0.00030103
0.000172072
0.000261537
0.000183535
0.000191167
0.00023801
0.000261473
0.000234003
0.000274305
0.000368056
0.000447443
0.000341178
0.00105902
0.00106303
0.00102751
0.00106239
0.00105481
0.00102788
0.00101426
0.000986389
0.000978159
0.00100978
0.000981996
0.000996963
0.00058821
0.000608622
0.000457951
0.000502105
0.000489557
0.000454354
0.000429291
0.000476445
0.000529262
0.000576881
0.000573426
0.000540423
0.000516819
0.000934179
0.00094087
0.000844424
0.000864471
0.000763594
0.000743819
0.000637149
0.000700965
0.000652433
0.000672596
0.00053211
0.000393543
0.000438387
0.000434737
0.000506342
0.000382006
0.000621863
0.000727135
0.000537868
0.000662407
0.000702139
0.000621416
0.000795707
0.000663546
0.000725031
0.000887003
0.000855258
0.000730457
0.00107529
0.000850252
0.00137679
0.00130761
0.00104721
0.00144086
0.00152752
0.00138451
0.00133565
0.0014422
0.00130278
0.0013887
0.00132742
0.00121138
0.00110756
0.00122323
0.00101866
0.00111154
0.000926218
0.00101712
0.000939239
0.000819716
0.000814372
0.00067218
0.000698342
0.000608512
0.00061641
0.000702032
0.000583606
0.000590285
0.000598574
0.000543907
0.00052119
0.000541644
0.000484893
0.000411409
0.000438713
0.000492392
0.000515523
0.000508359
0.000493961
0.000566227
0.000496298
2.22182e-05
5.6523e-05
0.00036367
0.000331537
0.000190402
0.000318378
0.000343195
0.000574816
0.000482221
4.49199e-05
0.000398821
0.000190502
0.00033384
0.000335583
0.00026752
0.000103657
0.000366503
0.000393648
0.000382436
0.000253321
0.000396217
4.78758e-05
0
0
0.000239294
0
0.000111687
9.12693e-05
0
4.13006e-08
0
0
0
0
0
0
0
0
0.000525006
0.000460272
0.000457148
0.000402202
0.000599563
0.000532931
0.000688141
0.000619757
0.000678021
0.000715277
0.000766588
0.000743068
0.000794185
0.00082342
0.000908138
0.000830408
0.000935716
0.000936334
0.000983731
0.000985791
0.000991403
0.000976306
0
7.18857e-08
5.63945e-08
0
0
0
0
0
1.19864e-08
5.38186e-08
0
0
0
0
2.89173e-09
0
0
3.78704e-08
0
0
0
0
8.04366e-05
4.70255e-05
0.000102971
5.32947e-05
0.0001332
0.000272599
0.000205437
0.000286016
0.000261987
0.000279252
0.000372267
0.000304073
0.000439737
0.000351421
0.000454775
0.000363624
0.000915158
0.000918554
0.000960011
0.000923527
0.00098661
0.00101383
0.00101789
0.000986853
0.00101945
0.000982277
0.000946542
0.000930354
0.000576319
0.000559142
0.000565437
0.000455257
0.000558808
0.0004137
0.000610725
0.000413002
0.000601005
0.000793183
0.000622368
0.000805846
0.000820541
0.000741345
0.000686438
0.000680097
0.000657099
0.000616176
0.000636617
0.000566575
0.000539193
0.000592388
0.000566113
0.000582428
0.00066176
0.000613035
0.000580883
0.000418081
0.000404324
0.000466341
0.000462636
0.000316834
0.000357156
0.000369477
0.000438174
0.000559513
0.000399512
0.000488973
0.000550183
0.000471716
0.000580559
0.000644856
0.000535266
0.000779399
0.000614235
0.000657567
0.000731296
0.000670423
0.000717042
0.000981793
0.000808029
0.00122761
0.000969773
0.000945738
0.00127859
0.00139751
0.00139372
0.00142319
0.00151369
0.00133636
0.00142571
0.00124512
0.0013552
0.00112639
0.00127071
0.00102095
0.00114543
0.00103634
0.000923418
0.000808275
0.000910036
0.00071537
0.000808157
0.000648253
0.00055228
0.000727607
0.000631993
0.000515454
0.000535462
0.00052649
0.00055217
0.00051921
0.000508332
0.000512867
0.000570037
0.000512668
0.000564417
0.000583203
0.000577564
0.000635847
0.000596113
0.000734525
0.000749445
0.000714788
7.69507e-05
0.000372095
1.80446e-05
0.000373118
0.000145714
0.000340388
0.000260215
0.000375366
0.000481575
2.697e-05
0.000307261
0.000135133
0.000157712
0.000326369
0.000230402
0.000451678
0.000364988
0.000325978
0.000106978
0.000235365
2.25074e-05
0
0
7.78743e-07
0
0.000177486
0.000249282
0
0
0
0
0
0
0
0
0
0
0
0
0
0
0
4.61529e-09
0
0
0
0
0
0
0
4.96925e-10
1.02557e-09
5.21585e-09
0
0
0
0
0
0
0
0
0
0
0
0
0
0
0.000441407
0.000506981
0.000460238
0.000395679
0.00058047
0.000514466
0.000579631
0.000653654
0.000655552
0.000672546
0.00074316
0.000712547
0.000769255
0.00082197
0.000815147
0.000860734
0.000875907
0.000831898
0.000858107
0.00084976
0.000872898
0.000889535
0
0
0
0
0
0
0
0
0
0
0
0
0
0
0
5.60195e-09
0
0
0
0
0
0
0
0
1.62055e-08
0
0
0
0
0
0.000128668
0
0.000209774
3.33152e-05
0.000100893
0.000118628
0.000272454
0.000179531
0.000249146
0.000252888
0.000336789
0.000283535
0.000327989
0.000436465
0.000453265
0.000342247
0.000358307
0.000434877
5.43719e-09
0
0
0
0
0
0
0
0
0
0
0
0
0
0
1.24021e-08
0
0.000869095
0.000881132
0.000921978
0.000967322
0.00101538
0.000972524
0.000915946
0.000868428
0.000826375
0.000761526
0.000731129
0.000688307
0.000560919
0.000600868
0.000532306
0.000426649
0.00033627
0.000383233
0.000313851
0.000348809
0.000513064
0.000458681
0.000461087
0.000507249
0.000652301
0.000641834
0.000534096
0.000547296
0.000364489
0.000389115
0.000273879
0.000312642
0.000775317
0.000765633
0.000814767
0.000789949
0.000769987
0.000692738
0.00082849
0.000847346
0.00093057
0.000936763
0.00048941
0.000523779
0.000572315
0.000665192
0.000373682
0.000357034
0.000466959
0.000434221
0.000307656
0.00025873
0.00041333
0.000228655
0.000395903
0.000449143
0.000397944
0.000454252
0.000495067
0.00045892
0.00049833
0.000633598
0.000533679
0.000652563
0.000423403
0.000494418
0.000649
0.000443778
0.000807194
0.00066813
0.000865677
0.000977823
0.000818563
0.00114796
0.00138954
0.00120988
0.0013966
0.00142138
0.00141055
0.00147537
0.00141314
0.00128539
0.00115193
0.00130173
0.0011923
0.00103389
0.000905902
0.00105107
0.000915059
0.000804556
0.000808369
0.000707806
0.000638938
0.000574555
0.000647533
0.000707826
0.000533837
0.000532866
0.000601704
0.000572212
0.000534921
0.000565002
0.000572416
0.000586494
0.000586217
0.000608996
0.000647345
0.000638624
0.000711286
0.000728732
0.000749499
0.00075354
0.000847362
0.000800699
0.00100912
0.000962937
0.000974979
0.00106264
0.001042
0.000999492
0.00105839
0.00100195
0.00108055
0.00114605
0.00110723
0.00124285
0.00121828
0.00118018
0.00118318
0.00123131
0.00125872
0.00126289
0.00122284
0.00123934
0.00124754
0.00119681
0.00128209
0.00115778
0.00122146
0.0011111
0.00115893
0.0010908
0.00114594
0.00108402
0.00103537
0.00100329
0.00103577
0.00105706
0.000950981
0.000932972
0.000970938
0.00089384
0.000968791
0.000246494
3.87603e-05
4.27832e-05
8.79732e-05
0.000319143
0.000315394
0.000208978
0.000206695
0.000330955
0.000142032
0.000179306
0.000127638
0.000117946
4.71694e-05
0.000236229
0.000509921
0.000497665
0.000236841
0.000112651
0.000150794
1.8329e-05
0.000130844
0.000113098
0
4.33047e-09
0
0
0
0
3.80459e-09
0
0
0
0
2.68698e-10
0
0
0
0
0
0
0
0
1.99065e-08
0
0
0
0
0
0
0
0
0
0
0
0
0
0
0
0
0
0
0
0
2.14743e-07
3.29803e-07
0
1.26449e-09
0
0
3.67702e-09
5.50458e-10
0
6.47404e-09
2.14474e-09
0
0
0
0
0
0
0
0
0
0
0
0
0
0
0
0
0
1.56065e-07
0
0
0.000488514
0.000417563
0.000364641
0.000421612
0.0004836
0.00054614
0.000615278
0.000563027
0.000655039
0.000629731
0.000701214
0.000718909
0.000716118
0.000767462
0.000815838
0.000869828
0.00087116
0.000709411
0.000744014
0.000711447
0.000750111
0.000793516
0
0
1.18832e-07
1.60949e-07
0
0
0
0
0
0
0
0
0
0
0
0
0
0
0
0
0
0
3.11549e-09
3.91269e-09
0
0
0
3.65126e-05
5.5905e-05
0.000135096
0.000165422
0.000178267
0.000221541
0.000248645
0.000303314
0.000242303
0.000286759
0.000400783
0.00030214
0.00041606
0.000403066
0.000314629
0.000393959
0.000328329
1.46864e-09
0
4.25927e-09
0
0
2.87321e-10
0
0
1.16435e-09
0
0
0
0
0
0
0
0
0
0
0
0
0
0
0
2.58427e-09
0
0.00085053
0.000809319
0.00084855
0.000771089
0.00077883
0.000744102
0.000658516
0.00064494
0.000626971
0.000618041
0.000522184
0.000508899
0.000439756
0.000437086
0.000373341
0.00033019
0.0002692
0.00031801
0.000303615
0.000259939
0.000246988
0.000239097
0.000305107
0.000267726
0.000339538
0.000339095
0.000158584
0.000174452
0.0001033
0.000114479
0.000188095
0.000167504
0.00104224
0.000978871
0.000817383
0.000766965
0.000788412
0.000727514
0.000984582
0.000895619
0.00112021
0.00120694
0.00112911
0.00105131
0.00127078
0.00126244
0.00128637
0.00127345
0.00122177
0.00125863
0.00112737
0.00118013
0.00112795
0.00108025
0.00106835
0.00100371
0.000855153
0.000906656
0.000879477
0.000905438
0.000927105
0.000986759
0.000524608
0.000478507
0.000633807
0.000708506
0.00037516
0.000332454
0.000487875
0.000424291
0.000288446
0.000241623
0.000121752
0.000278798
0.000178907
0.00041193
0.000326797
0.000410815
0.000514677
0.000385185
0.000379961
0.000394484
0.000252501
0.00022947
0.000151971
0.000267493
0.000441629
0.000369882
0.000120259
0.000417506
0.000851938
0.000610984
0.000374932
0.000939688
0.00122246
0.000947028
0.00144833
0.00125766
0.00142886
0.00143469
0.00132393
0.00144887
0.00134163
0.00122036
0.00106386
0.00121047
0.00106936
0.000934295
0.000816399
0.000953422
0.000852435
0.000722464
0.000675599
0.000667589
0.000704928
0.000748414
0.000578132
0.000597055
0.000676255
0.000643587
0.000612814
0.000629726
0.000646863
0.000643093
0.000624902
0.000666596
0.000692056
0.000719828
0.000763448
0.000768998
0.00080875
0.000826429
0.000922965
0.000975108
0.00106173
0.00103595
0.000994808
0.00105203
0.00116152
0.00115367
0.00122137
0.00119824
0.00125437
0.00122146
0.00124632
0.00115295
0.00118384
0.00108851
0.00112344
0.00100035
0.00092019
0.00103626
0.000955858
0.000863775
0.000854975
0.000893128
0.000813898
0.000828063
0.0008169
0.00077017
0.000830835
0.000786323
0.000810781
0.000756153
0.000787497
0.000125927
0.000131618
0.000178562
8.66187e-05
0.000158087
0.000200051
9.85738e-05
0.000192928
0.000194462
0.000195808
0.000122433
7.26256e-05
0.000103211
5.74102e-05
0.000263528
0
1.31293e-06
0.000145895
3.69975e-05
0.000119536
0.000150678
0.00013626
0.000187948
0.000212844
0.000231246
0
0
0
0
2.35232e-07
4.46561e-07
0
0
1.20903e-08
0
0
0
0
0
0
0
0
2.38996e-08
0
0
0
0
0
0
0
0
6.64808e-08
0
0
0
1.90174e-09
0
0
0
0
0
0
0
0
1.15515e-08
0
0
0
0
0
0
0
6.59493e-11
0
2.27722e-09
0
0
0
0
0
0
0
0
0
0
0.000452171
0.000381024
0.000342548
0.000405997
0.000465819
0.000528952
0.000559256
0.000602273
0.000599362
0.000627212
0.000650292
0.000620873
0.000650646
0.000612746
0.000767596
0.000700283
0.000726277
0.000729321
0.000702479
0.000657156
0.000678378
0.000721227
7.33255e-08
0
3.17948e-08
0
0
0
0
0
3.4407e-08
0
0
0
0
0
0
4.59005e-08
0
0
0
0
0
2.35019e-09
0
0
0
0
0.000143607
8.23781e-05
4.39911e-05
0.000121165
0.000147621
0.000155565
0.00022833
0.000187903
0.000219169
0.000326904
0.000398801
0.000257399
0.000386612
0.000267588
0.000383405
0.000324729
0.000298737
0.000371205
0
0
0
4.08594e-09
0
6.47674e-09
0
0
0
0
0
0
7.84588e-08
0
0
0
0
0
0
4.48908e-10
0
3.64171e-10
0
0
0
0
0
0
0
0
0
0.000657914
0.000623671
0.000641519
0.000638148
0.000641175
0.000633521
0.00050499
0.000531167
0.000587443
0.000574121
0.000571585
0.000308426
0.00034202
0.000120452
0.000131002
0.000363852
0.000338099
0.000325178
0.000293009
0.000266694
0.00032044
0.00020515
0.00024834
0.000162005
0.000177475
0.000173053
0.00025415
4.74266e-05
4.12515e-05
4.11538e-05
4.45505e-05
6.31152e-05
4.08964e-05
3.78975e-06
0
0.000773402
0.000795401
0.0007982
0.000789526
0.000790504
0.000797711
0.000826882
0.000815908
0.000822982
0.000820851
0.000834231
0.000854531
0.000863344
0.000859002
0.00074487
0.000796218
0.000775464
0.000773221
0.00073692
0.000789036
0.000767729
0.00075959
0.000760036
0.000779595
0.000779199
0.000762725
0.000792791
0.000800298
0.000800373
0.000868624
0.000852552
0.000841142
0.000862724
0.000861652
0.000830864
0.00106337
0.000980929
0.000909146
0.000813601
0.000737536
0.000808444
0.00103938
0.000970355
0.00118588
0.00126568
0.0010537
0.00120412
0.00132552
0.00125265
0.00125555
0.00125516
0.00124002
0.00121125
0.00120214
0.00114419
0.00116098
0.00109545
0.00109815
0.00102107
0.000933808
0.00088988
0.00103886
0.000967843
0.000593436
0.000507858
0.000494077
0.000431461
0.00048686
0.000774414
0.000696749
0.000336036
0.000349386
0.000219374
0.000215939
0.000756735
0.000814015
0.000754631
0.00074676
0.000808769
0.000802823
0.000760501
0.000817201
0.00079777
0.000827678
0.000806332
0.000848156
0.000820196
0.000871769
0.00085686
0.000907008
0.000919469
0.000912929
0.000164029
0.000128446
0.000115729
0.000300987
0.000232576
0.000363215
0.000319457
0.000403123
0.000200521
0.000182506
0.000116846
0.000219782
0
5.00016e-05
0
0
6.0918e-05
0
0.00073274
0.000323288
0.000128447
0.000843543
0.00102148
0.00111679
0.00127825
0.0011157
0.00139819
0.00125579
0.00133007
0.00134387
0.00133884
0.0012239
0.00118982
0.00108057
0.00100408
0.00109412
0.000907919
0.00101765
0.000764074
0.000889758
0.000709696
0.000707755
0.000775328
0.000798263
0.000661698
0.000670068
0.000740608
0.000708954
0.000721575
0.000692647
0.000713804
0.000669314
0.000690475
0.000758
0.000755301
0.000785805
0.000837685
0.00080338
0.000825391
0.00094366
0.00104847
0.000992527
0.00100478
0.00104664
0.00109907
0.00109657
0.00117832
0.00113359
0.00120633
0.00117654
0.00117867
0.00124308
0.00121835
0.0011405
0.00108239
0.00118254
0.000981624
0.00110545
0.00100085
0.000895373
0.000839993
0.000913897
0.000789677
0.000882333
0.000835185
0.000138708
0.000313966
0.000267688
7.28268e-05
7.43516e-05
0.000101399
6.78262e-05
0.000101843
8.53618e-05
6.73209e-05
0.00012709
5.04267e-05
0
5.90047e-05
6.91181e-05
0
0
0
1.78583e-06
0.000168784
0.000102161
9.67854e-05
4.44425e-05
0
0
0
2.20995e-09
0
1.22832e-07
9.8863e-08
2.51469e-07
0
8.26166e-10
0
0
0
0
0
0
0
0
2.96637e-06
9.60823e-08
0
0
0
0
0
0
0
0
2.41552e-07
0
5.33852e-09
0
0
0
0
0
0
1.40045e-07
0
0
0
7.04812e-08
0
0
0
0
6.68056e-09
0
0
0
0
0
6.03025e-09
0
0
6.07464e-09
0
0
0
8.84152e-09
0
0
0
6.28768e-09
0
0
1.16425e-08
0
0
0
0
2.05773e-08
0.000911082
0.000916027
0.000861226
0.000960527
0.000970038
0.000972438
0.000369667
0.000450858
0.0003975
0.000333108
0.00044377
0.000520967
0.000574313
0.000510893
0.000518615
0.000553913
0.00055937
0.000570129
0.000615769
0.000605364
0.000585119
0.000551281
0.000605282
0.000615924
0.000629864
0
0
0
0
1.79304e-06
6.34188e-07
0
0
0
0
0
1.7792e-06
0
6.9862e-05
6.48653e-05
2.90045e-05
5.1103e-08
0
0
0
0
0
0
0
0
0
0
0.000121506
4.62943e-05
0.000137829
0.000188949
0.000276013
0.000307383
0.000271323
0.000257157
0.000176413
0.000337814
0.000202089
0.000231931
0.000373364
0.000356861
0.000254948
0.000328578
0
1.44629e-07
0
0
0
0
0
0
0
0
0
0
0
0
6.33538e-08
0
0
1.48926e-09
0
4.50137e-10
0
0
0
0
0
0
0
0
0
0
2.7702e-09
0
0
0
0
5.19569e-09
2.86985e-09
0.000547965
0.000460774
0.000513707
0.000579064
0.000562516
0.000555176
0.000495134
0.000365479
0.000398528
0.000122329
0.000123181
0.000493644
0.000539614
1.16297e-05
8.49357e-06
1.06449e-05
2.69533e-05
0.000226221
0.000157486
0.000184729
0.00017456
0.00016872
0.000192402
0.000142669
0.000141369
0
0
9.7045e-06
4.03987e-05
0
0
0
0
0
0
0
0
0.00080174
0.000792579
0.000806201
0.000813945
0.000843973
0.000828997
0.00087327
0.0008338
0.000821533
0.000859581
0.000836706
0.000807512
0.000807938
0.000832918
0.000806765
0.000819426
0.000884554
0.000912977
0.00091207
0.000886709
0.0008834
0.000914592
0.00106322
0.000999335
0.000849111
0.000974769
0.000817961
0.000771604
0.00100803
0.00104889
0.00115347
0.00136124
0.00118273
0.00110059
0.00122546
0.00123931
0.00119328
0.00124094
0.00125135
0.00128828
0.0012612
0.00127366
0.00122312
0.00123907
0.00117691
0.00112423
0.00119999
0.00106863
0.00114752
0.000941887
0.000995271
0.00109668
0.00102672
0.0004122
0.000440595
0.000527269
0.000652126
0.000436141
0.000476859
0.000722758
0.000795136
0.000399027
0.000329044
0.000232359
0.000275963
0.000793454
0.000793081
0.000860507
0.000798251
0.000878927
0.000872947
0.000800144
0.000868004
0.000815753
0.000842368
0.000873557
0.00088066
0.000855734
0.000878632
0.000896718
0.000919571
0.000918973
0.000980143
0.000972668
0.000868584
0.000946798
0.000871286
0.00101436
0.00101841
0.00102644
0.000122958
3.23304e-05
7.55672e-05
9.28003e-05
0.000103544
0.000235038
0
4.84272e-06
6.67514e-05
0
0
0
0
7.25347e-09
0
9.4574e-09
0
0
0.00035252
8.51088e-05
3.40821e-05
0.000760307
0.0010204
0.000703723
0.00140997
0.00130534
0.000989009
0.00120111
0.0012191
0.00130242
0.00118974
0.00119724
0.00119251
0.00112883
0.00101493
0.00113397
0.000975497
0.000977771
0.000897706
0.000950692
0.000754823
0.000783299
0.000813927
0.000691303
0.000761805
0.000745433
0.000782764
0.000801747
0.000794436
0.000717872
0.000808788
0.000774988
0.000791836
0.000772847
0.0008939
0.000788682
0.000943085
0.00087114
0.000954225
0.00118156
0.000934086
0.0010916
0.00102076
0.00116673
0.00110007
0.00113557
0.00120096
0.00124009
0.00117618
0.00115454
0.00124334
0.00122149
0.00113207
0.00119433
0.00104832
0.0010988
0.00094168
0.000863951
0.000992133
0.000822842
0.000897291
0.000887484
0
0
1.29531e-08
0
0.000193821
3.80671e-05
8.69167e-05
7.65529e-05
0.000112091
0
0
0
0
0
0
0
0
0
0
0
2.95565e-06
0
0
0
0
0
0
0
1.62543e-07
1.40982e-07
0
0
0
0
9.10056e-09
0
0
0
0
0
8.22734e-07
0
1.11778e-07
0
0
0
0
0
0
0
0
4.39811e-07
0
0
0
1.29984e-08
5.7377e-08
0
5.04438e-09
4.93457e-09
0
0
0
0
6.90094e-08
4.57641e-08
0
0
1.8195e-08
3.06086e-08
0
0
0
0
2.8953e-09
0
1.58621e-09
0
0
0
0
0
0
0
0
0
0
0
0
0
0
0
0
0
1.15377e-06
0
0
0
0
0
0
0
3.05175e-09
0.000873057
0.000921536
0.000922791
0.000981506
0.000967891
0.00107684
0.00102622
0.00105541
0.00106138
0.00102516
0.000434069
0.00032481
0.000274485
0.000336676
0.000374423
0.000450599
0.000482654
0.000436266
0.000540901
0.000515624
0.00053964
0.000543224
0.000513298
0.000536964
0.000475161
0.000467058
0.000487694
0
0
0
0
0
0
0
6.75485e-06
4.50314e-05
6.20023e-05
0
0
0
0
0
0
5.0692e-08
0
0
5.56976e-10
0
0
0
0
0
0.000195887
0.000208866
0.000175275
0.000154384
7.35323e-05
0.000211303
0.00014335
0.000213281
0.000179048
0.000156278
0.000258714
0.000289334
0.000168492
0.000174715
0.000269232
0.00023738
0
0
0
3.30086e-09
0
0
0
1.83185e-08
0
0
0
0
0
0
0
4.00427e-07
2.48553e-07
2.7645e-07
0
0
0
9.09342e-10
0
0
0
7.01648e-09
0
0
0
0
0
0
0
0
0
5.75482e-10
0
0
0
0
0
0
2.00183e-08
0
0
0.000443346
0.000442739
0.000417233
0.000384505
0.000371329
0.000357194
0.000355434
0.000128002
0.000189408
1.95421e-06
0
2.27177e-06
1.64734e-06
0.000177609
0.000193154
0
0
0
0
3.12715e-05
4.04336e-05
7.20324e-05
0.000130031
0.000121591
0.000102349
0.000137349
0.00012175
0
0
0
1.02103e-05
0
0
0
0
0
0
0
5.46416e-09
0.000792639
0.000805994
0.000823739
0.000822695
0.000841677
0.000846973
0.000856742
0.000862782
0.000862073
0.000896031
0.000865809
0.000841239
0.000955413
0.000910857
0.000908843
0.000873437
0.000892147
0.000861944
0.000868153
0.000853712
0.000818736
0.000799611
0.000933723
0.000973627
0.000929951
0.000962442
0.000948419
0.00092799
0.00106373
0.00106553
0.000937259
0.00103211
0.000836637
0.000907018
0.00107253
0.00108161
0.00126085
0.00131112
0.00130676
0.00121116
0.00122274
0.001307
0.00121886
0.00126299
0.00128849
0.00131552
0.00124451
0.00130418
0.00126678
0.00120831
0.00124031
0.00116728
0.00112736
0.00119575
0.00104615
0.000992772
0.00108154
0.00113775
0.000450529
0.000414433
0.000615218
0.000721545
0.00056343
0.000488536
0.00080508
0.000755249
0.000361865
0.000415832
0.000313967
0.000218236
0.000816866
0.000919336
0.000834653
0.000865201
0.000944869
0.000958276
0.0009534
0.00104564
0.000941674
0.000879007
0.000932084
0.000919997
0.000898119
0.000934347
0.000918973
0.000947146
0.000940951
0.000987647
0.000976163
0.00104152
0.00103389
0.000926109
0.00102467
0.0010699
0.00107759
0
0
0
0
0
0
0
0
4.4067e-09
0
0
0
0
0
0
0
4.10898e-05
0
8.00945e-05
8.85918e-05
6.40804e-05
0.000421528
0.000840461
0.000420214
0.00115824
0.00122883
0.00114447
0.000766903
0.00119348
0.00114276
0.00118026
0.00115705
0.00106128
0.00112978
0.000990152
0.00104891
0.000995909
0.000934235
0.00119303
0.000879454
0.000948194
0.000902091
0.000821685
0.000804263
0.000765471
0.000843629
0.000923001
0.000838492
0.000858385
0.000763201
0.000880131
0.00082385
0.000881961
0.000855108
0.000839728
0.000968764
0.00109414
0.00104308
0.00119743
0.00102663
0.0011783
0.00110876
0.00120239
0.001128
0.00122186
0.00118292
0.00126677
0.00120163
0.00119476
0.00127484
0.00126066
0.00116713
0.00122112
0.00107034
0.00113992
0.000971384
0.000868494
0.00107228
0.000928128
0
0
1.48059e-06
0
0
0
0
0
0
0
0
2.5829e-09
0
2.29587e-08
6.19518e-08
4.53141e-08
3.36571e-08
0
3.91656e-08
4.93146e-06
7.1714e-07
0
0
0
0
1.71822e-08
6.67987e-09
0
0
0
0
0
0
0
7.90483e-09
0
9.32059e-10
0
0
0
0
0
2.84245e-06
0
0
0
0
0
0
0
0
0
0
0
0
0
0
0
0
0
1.35156e-09
0
0
0
0
0
0
0
7.48425e-09
0
0
0
0
0
0
0
0
0
0
0
0
0
8.0745e-09
0
0
0
0
0
0
0
0
0
0
0
0
0
0
0
0
0
0
0
0
0
0
9.5093e-07
0
0
0
0
0
0
1.33555e-09
0
0
0
0
0.00108746
0.00109911
0.00110524
0.00105809
0.00110335
0.00110249
0.000984861
0.000994438
0.00105143
0.00104816
0.00109943
0.00111297
0.00112464
0.000973552
0.000925236
0.000362126
0.000259922
0.000218653
0.000348338
0.000433833
0.000452808
0.000494715
0.000461253
0.000519835
0.000425087
0.000431307
0.000425657
0.000403638
0.000450372
0
0
0
3.49731e-09
8.41409e-05
8.55864e-05
0.000100528
9.02242e-09
0
0.0001295
0
0
0
0
0
0
0
0
3.01283e-08
0
0
0
0
0
0.000172142
0.000215332
0.000275073
0.000201062
0.000131183
0.000112482
0.000113016
0.000156967
0.000109791
0.000123833
0.000177677
0.000194214
0.000115779
0.000217904
0.000127754
0.000195618
0
9.96035e-10
0
0
0
0
0
4.33681e-10
0
0
9.45429e-09
0
0
0
0
0
0
0
0
3.83368e-10
0
0
0
0
0
0
0
0
0
0
0
0
0
0
0
0
0
0
3.28953e-10
0
0
0
0
0
0
0
1.25116e-08
0
0
0
0
0
0
0
0
0
0
0.000386815
0.000293573
0.000324803
0.000224447
0.000198883
8.83892e-05
7.78391e-05
4.52365e-05
4.32675e-05
1.59207e-05
3.70544e-05
0
0
0
0
3.93532e-05
3.45367e-05
0
0
1.42011e-09
0
8.06272e-05
0.000141881
0.000104431
0
5.92367e-07
9.16202e-05
7.29697e-06
6.06205e-05
0
0
0
0
1.26755e-09
4.36024e-09
0
0
0
0
0
0
0.000806278
0.000812863
0.000835764
0.00086233
0.00085589
0.000851171
0.000834513
0.000857948
0.000884738
0.000833034
0.000899895
0.000883763
0.000833256
0.000923672
0.000933769
0.000904343
0.00091438
0.000844365
0.000862901
0.000805884
0.000824448
0.00100295
0.000971508
0.00095604
0.000970783
0.00094422
0.00094287
0.00120041
0.00116824
0.00102818
0.00108053
0.000994039
0.000898239
0.0011636
0.00114058
0.00133907
0.00131438
0.00134138
0.00136253
0.00128365
0.00135019
0.00130293
0.0012566
0.0013607
0.00133076
0.00127389
0.00133432
0.00130933
0.00125242
0.00128465
0.00121894
0.00123441
0.00117291
0.00102206
0.00107088
0.00115999
0.00110109
0.000419231
0.000460906
0.000769172
0.000707902
0.00053156
0.000654341
0.000810723
0.000826287
0.000446883
0.000397584
0.000376405
0.000274077
8.89442e-05
0.000178678
0.000221396
0.000936165
0.000892635
0.0009421
0.000961676
0.00103475
0.00105643
0.00105553
0.00117321
0.00103599
0.0011526
0.000995786
0.000923047
0.000952662
0.000982737
0.000982453
0.00100642
0.00102548
0.00102106
0.00108652
0.00108097
0.00112919
0.00111329
0.00112024
0.00101217
0.00113594
0.0011484
0
0
0
0
0
1.09303e-09
4.28171e-09
0
0
0
0
6.8132e-10
6.59228e-11
0
0
0
0
0
8.76876e-05
0.000104285
0
0.000398206
0.000381071
0.000918493
0.000618161
0.00105864
0.00112287
0.000804918
0.00114019
0.00105845
0.00109997
0.00115129
0.00103024
0.00109182
0.000992104
0.00102456
0.000907313
0.00100132
0.000914148
0.00106295
0.000959811
0.000943956
0.000864724
0.000871034
0.000807478
0.000930183
0.000949582
0.000854718
0.00090075
0.000852821
0.000890343
0.00095637
0.000894274
0.00095722
0.000999415
0.00101457
0.00112841
0.00107986
0.00118639
0.00111445
0.00119681
0.00114622
0.00121114
0.00117984
0.00124722
0.00125956
0.00124773
0.0013015
0.00129774
0.0012374
0.00128041
0.00119903
0.00124629
0.00113885
0.00105728
0.00119771
0.00109464
0.00117281
2.35324e-06
0
4.83504e-09
0
5.15593e-09
0
0
0
0
6.53146e-08
0
0
0
5.0518e-08
2.0064e-08
5.30043e-08
6.05094e-08
4.24834e-08
7.9355e-08
0
0
2.03192e-06
0
0
0
0
0
0
0
0
0
0
0
0
0
1.38026e-09
0
2.13222e-09
0
3.78966e-07
0
0
0
2.01459e-06
0
0
0
0
0
0
8.2729e-09
0
0
0
0
0
0
0
5.93521e-08
0
0
0
0
0
2.80751e-10
5.28847e-10
1.45933e-09
0
0
0
0
0
0
5.24618e-09
0
0
0
0
0
0
0
0
0
0
0
0
0
0
0
0
0
0
0
0
0
0
0
0
0
0
0
0
0
0
0
0
0
0
0
0
8.56058e-10
0
0
6.35365e-10
0
0
0.00110033
0.00114309
0.00115855
0.00109087
0.00110578
0.0011109
0.00111211
0.00103606
0.00105663
0.0011047
0.00110794
0.00113368
0.00110655
0.00113849
0.00101447
0.00101513
0.000871858
0.000980156
0.000976452
0.000406193
0.000302823
0.000260722
0.000317805
0.00022619
0.000351178
0.000442186
0.000363748
0.000405002
0.000401754
0.000364837
0.000394147
0.000401637
0.000392771
0
0
9.1545e-05
0.000102167
4.84944e-05
0
0
4.86481e-05
4.01326e-05
0
0
0
0
0
0
0
0
8.93489e-09
0
0
0
0
0
0
0.000252293
0.000165807
0.000176463
0.00010458
0.000126069
0.000134381
0.000142615
0.000108864
0.000148578
9.24988e-05
0.000153062
9.64607e-05
0.000157871
6.36373e-09
0
0
0
0
0
1.61849e-08
5.86558e-08
0
3.19641e-09
0
2.72645e-09
0
0
0
0
0
7.74361e-07
0
0
0
0
0
0
0
0
0
0
1.76958e-08
0
0
0
0
0
0
0
0
0
0
0
0
0
0
0
0
3.10274e-09
0
0
0
0
0
4.67331e-09
0
0
0
0
0
0
0
0
0
0
0
0.000259518
0.00019412
0.000197539
9.82666e-05
0.000105737
3.12902e-05
4.5674e-05
3.46529e-05
8.3431e-05
0
0
0
0
0
0
0
0
0
0
0
0
0
0
1.19276e-05
8.37654e-05
0
0
3.05175e-07
4.65299e-05
0.000136967
0.000124036
0
0
0
2.60286e-09
4.61025e-09
0
0
0
0
0
1.72133e-09
0
0.000833106
0.000815592
0.000837657
0.000819722
0.000808877
0.000815052
0.000838156
0.000815222
0.000836293
0.000868645
0.000812565
0.000926437
0.0008455
0.000931616
0.000914735
0.000933143
0.000878329
0.00088014
0.000823672
0.000821428
0.000790963
0.000793266
0.00100847
0.000974696
0.000971309
0.000945337
0.000922895
0.00090597
0.00132606
0.0012714
0.00110879
0.00113968
0.000972132
0.00109797
0.00121575
0.0012378
0.00132799
0.0013935
0.00141127
0.00143933
0.00134838
0.00137189
0.00132392
0.00137161
0.00140483
0.00135765
0.00138592
0.00132275
0.0013011
0.00136119
0.0012517
0.00130874
0.00124488
0.00118525
0.00101929
0.00105644
0.00106632
0.00113237
0.000469369
0.000461322
0.000801581
0.000762504
0.000610284
0.000728597
0.000869219
0.00088472
0.000459656
0.000484403
0.000335717
0.000402663
0.000274914
0.00043682
0.00113396
0.00104964
0.00103705
0.00115122
0.00120808
0.00115596
0.0012313
0.00114431
0.00122338
0.00109436
0.00101946
0.00109521
0.00105648
0.00109091
0.00112236
0.00115928
0.00115509
0.00122452
0.00121179
0.00124425
0.00121892
0.00121317
0.00112513
0.00124104
0.00122736
0
5.62046e-10
0
0
0
0
0
0
0
3.43908e-09
0
0
0
0
0
0
6.01947e-09
0
0
8.14325e-05
0
0.000368604
0.000680301
0.000618245
0.000397409
0.000784277
0.000757668
0.00105919
0.00124368
0.000942568
0.00105795
0.000923873
0.00100951
0.00103704
0.00103483
0.000992025
0.000998656
0.000951873
0.0010372
0.000997166
0.000980714
0.000990387
0.000970035
0.000900225