/*--------------------------------*- C++ -*----------------------------------*\
  =========                 |
  \\      /  F ield         | OpenFOAM: The Open Source CFD Toolbox
   \\    /   O peration     | Website:  https://openfoam.org
    \\  /    A nd           | Version:  8
     \\/     M anipulation  |
\*---------------------------------------------------------------------------*/
FoamFile
{
    version     2.0;
    format      ascii;
    class       volVectorField;
    location    "720";
    object      U;
}
// * * * * * * * * * * * * * * * * * * * * * * * * * * * * * * * * * * * * * //

dimensions      [0 1 -1 0 0 0 0];

internalField   nonuniform List<vector> 
526318
(
(-0.00734795 0.0249929 0)
(-0.0243755 0.0168411 0)
(-0.00409218 0.0253551 0)
(0.00110024 0.0304909 0)
(-0.000183761 0.0361962 0)
(-0.0287466 0.0383461 0)
(-0.00778402 -0.000648038 0)
(-0.0327883 0.0162824 0)
(0.0141788 -0.0233818 0)
(-0.0133737 -0.00312463 0)
(0.0106422 0.000927181 0)
(-0.00708983 -0.0232647 0)
(0.0181347 0.00946982 0)
(0.00594108 0.0328754 0)
(-0.0534776 0.0211477 0)
(-0.0539756 0.0259791 0)
(0.00831037 0.0194675 0)
(-0.00701549 0.0416593 0)
(-0.0187522 0.0399018 0)
(-0.0131355 0.0408218 0)
(-0.0207978 0.0545762 0)
(-0.0302336 0.0459385 0)
(-0.0202585 -0.00510946 0)
(-0.014583 -0.0040353 0)
(0.00824779 -0.0233387 0)
(0.00522199 -0.0274406 0)
(-0.0174169 0.0106123 0)
(-0.000120849 0.00559515 0)
(0.0204878 -0.0138125 0)
(0.0173324 0.0244096 0)
(0.00497877 0.0359189 0)
(-0.00786483 0.0384567 0)
(0.00273388 0.0370088 0)
(-0.0228796 0.0608881 0)
(0.00925419 0.0191692 0)
(-0.0368045 0.0444923 0)
(-0.0516393 0.0138721 0)
(-0.0196046 0.0553471 0)
(-0.0136687 0.0661873 0)
(-0.0408758 0.048984 0)
(-0.0588756 0.0348172 0)
(0.00937546 0.00790032 0)
(-0.014234 -0.00831839 0)
(0.00507399 -0.0244647 0)
(0.0198715 -0.00780432 0)
(-0.0259256 0.00721232 0)
(0.0159811 0.00818248 0)
(-0.0163516 0.0238993 0)
(-0.0476803 0.00847274 0)
(0.041448 0.00101571 0)
(-0.0675594 0.0167982 0)
(0.0462314 0.0065882 0)
(-0.0615582 0.0231466 0)
(0.0201815 0.0111231 0)
(-0.069469 -0.0152369 0)
(-0.0252767 0.00243179 0)
(0.0195854 0.011923 0)
(-0.055233 -0.0837183 0)
(-0.0242405 0.0531062 0)
(-0.0111076 0.0695173 0)
(-0.0160074 0.0603532 0)
(-0.0352156 0.0825734 0)
(-0.0159004 0.0712623 0)
(-0.00555242 0.0503059 0)
(-0.00392548 0.0509437 0)
(-0.0283708 0.0815972 0)
(-0.0291447 0.0696073 0)
(-0.0362418 0.0862209 0)
(-0.0413463 0.0824865 0)
(-0.0364487 0.0750314 0)
(-0.0339774 0.0933863 0)
(-0.0409456 0.116214 0)
(-0.0366898 0.118946 0)
(-0.0494373 0.103027 0)
(-0.0471659 0.123193 0)
(-0.0507196 0.0972806 0)
(-0.0375196 0.123316 0)
(-0.0551928 0.110039 0)
(-0.059886 0.109819 0)
(-0.0493605 0.132866 0)
(-0.0601699 0.11602 0)
(-0.0415251 0.130213 0)
(-0.0540421 0.151475 0)
(-0.0644761 0.124879 0)
(-0.0759415 0.134304 0)
(-0.0465983 0.139051 0)
(-0.0633238 0.119272 0)
(-0.0628119 0.168528 0)
(-0.0657039 0.164431 0)
(-0.0474532 0.14582 0)
(-0.0832324 0.168237 0)
(-0.0447753 0.219524 0)
(-0.0228854 0.192829 0)
(-0.0786158 0.182215 0)
(-0.0401425 0.246932 0)
(-0.0326796 0.230857 0)
(-0.0761102 0.232398 0)
(-0.0431463 0.251345 0)
(-0.0354412 0.228059 0)
(-0.0566889 0.226953 0)
(0 0 0)
(0 0 0)
(0.0793187 0.0243437 0)
(0.0641674 -0.0883091 0)
(-0.0582659 0.0109619 0)
(0 0 0)
(-0.0621092 0.010497 0)
(-0.0201704 0.0183467 0)
(-0.0467946 0.012752 0)
(-0.0190158 0.0225438 0)
(-0.00910228 0.0172416 0)
(-0.031786 0.0198493 0)
(-0.00751452 0.0149373 0)
(0.0136251 0.0193019 0)
(0.0187918 0.0314692 0)
(-0.000942309 0.0216459 0)
(0.00368867 0.0397307 0)
(0.0120831 0.0380934 0)
(0.000201842 0.0469955 0)
(-0.0217018 0.231805 0)
(-0.0305285 0.243844 0)
(-0.0114199 0.266108 0)
(-0.0393322 0.228289 0)
(-0.0117848 0.267234 0)
(-0.00910476 0.246884 0)
(0.00584121 0.319047 0)
(-0.0128234 0.291848 0)
(-0.00465222 0.318765 0)
(-0.00650651 0.288772 0)
(0.0106265 0.323257 0)
(0.00666841 0.346687 0)
(0.00896804 0.33676 0)
(-0.00444684 0.309034 0)
(-0.00125882 0.322983 0)
(0.00989305 0.31192 0)
(0.00449562 0.323383 0)
(0.00885434 0.326527 0)
(-0.000991791 0.306699 0)
(0.00517875 0.313418 0)
(0.00693976 0.320631 0)
(0.00610224 0.321189 0)
(0.00330959 0.293701 0)
(0.00471734 0.316266 0)
(0.0101712 0.291611 0)
(0.00827302 0.306634 0)
(-0.0025676 0.303684 0)
(0.00636763 0.284781 0)
(-0.0150607 0.286277 0)
(0.00779543 0.296641 0)
(0.00641785 0.274228 0)
(0.00901683 0.279942 0)
(-0.0131948 0.274132 0)
(-0.0293355 0.272733 0)
(0.00482731 0.265849 0)
(0.00181208 0.261141 0)
(-0.0582966 0.273214 0)
(-0.0139569 0.248944 0)
(-0.0126332 0.257606 0)
(-0.0480362 0.269802 0)
(-0.0651684 0.250497 0)
(-0.0084293 0.21061 0)
(-0.0439474 0.235129 0)
(-0.0330301 0.228072 0)
(-0.0382935 0.107169 0)
(-0.0318783 0.0671754 0)
(-0.0338404 0.090791 0)
(-0.0308217 0.0446933 0)
(-0.0489368 0.121261 0)
(-0.0490326 0.0894836 0)
(-0.0571517 0.0998882 0)
(-0.0580451 0.120698 0)
(-0.0674125 0.111278 0)
(-0.0692974 0.131404 0)
(-0.0812823 0.151857 0)
(-0.0774558 0.122059 0)
(-0.0765839 0.156177 0)
(-0.0634672 0.230658 0)
(-0.041444 0.248004 0)
(-0.068163 0.227204 0)
(-0.0840488 0.221173 0)
(-0.0493228 0.257965 0)
(-0.0718331 0.212785 0)
(-0.022339 0.280937 0)
(0.0105219 0.362886 0)
(-0.0208145 0.305493 0)
(0.00739661 0.399546 0)
(0.0204043 0.353231 0)
(0.0227272 0.335018 0)
(0.0254135 0.369022 0)
(0.0277676 0.324483 0)
(0.0269826 0.345075 0)
(0.026444 0.304145 0)
(0.0257377 0.329239 0)
(0.0271165 0.304257 0)
(0.0217762 0.280433 0)
(0.0162205 0.253933 0)
(0.0265151 0.276913 0)
(0.0243363 0.246784 0)
(0.0100248 0.229895 0)
(0.0115878 0.217067 0)
(0.0243383 0.232099 0)
(0.0193973 0.255404 0)
(-0.0320417 0.212393 0)
(0.0127656 0.197382 0)
(0.0233057 0.20437 0)
(0.00599104 0.18902 0)
(-0.0082017 0.206575 0)
(-0.0182816 0.205469 0)
(-0.00111043 0.204001 0)
(0.0207605 0.181946 0)
(-0.0603907 0.0412177 0)
(0.00571751 0.00143026 0)
(-0.00354477 0.0143074 0)
(-0.0429108 0.0309022 0)
(-0.0219819 0.0531525 0)
(-0.0261245 0.048032 0)
(-0.032893 0.0574397 0)
(0.0131145 0.00361255 0)
(-0.062305 0.0351011 0)
(-0.0523124 0.0190617 0)
(-0.0602099 0.0601893 0)
(0.0602075 -0.0061047 0)
(-0.02298 0.0177501 0)
(-0.0647093 0.00991895 0)
(0.083757 0.00197022 0)
(0.0604626 0.0136619 0)
(-0.0722606 0.0260668 0)
(-0.0647689 0.036074 0)
(0.0238444 0.00820118 0)
(0.082029 -0.0960123 0)
(0 0 0)
(0.0529399 -0.0741759 0)
(0.0610313 0.0456084 0)
(0 0 0)
(0 0 0)
(0 0 0)
(0 0 0)
(0 0 0)
(0 0 0)
(-0.00870405 0.0644681 0)
(-0.015083 0.0626756 0)
(0.00522017 0.0554377 0)
(-0.00304532 0.0552048 0)
(-0.0235323 0.0786159 0)
(-0.0322782 0.0625047 0)
(-0.0461703 0.0785943 0)
(-0.0303247 0.0903692 0)
(-0.0320231 0.111245 0)
(-0.050016 0.0983646 0)
(-0.0365839 0.119057 0)
(-0.0532989 0.106224 0)
(-0.0411295 0.125239 0)
(-0.0547597 0.113503 0)
(-0.048683 0.126344 0)
(-0.0420944 0.133066 0)
(-0.027738 0.173606 0)
(-0.0306261 0.160687 0)
(-0.0336838 0.208132 0)
(-0.0292386 0.194759 0)
(-0.0274346 0.222946 0)
(-0.0268213 0.215651 0)
(0 0 0)
(0 0 0)
(0 0 0)
(0.000619207 -0.00040003 0)
(-0.0740746 -0.0163789 0)
(0 0 0)
(-0.105782 0.0758951 0)
(-0.0636129 -0.0257788 0)
(-0.0592443 0.0181678 0)
(-0.0413886 0.0276706 0)
(-0.0406371 0.0296743 0)
(-0.0224 0.0278171 0)
(-0.00268523 0.031748 0)
(-0.0254939 0.0258659 0)
(0.0148675 0.0312995 0)
(-0.0013998 0.0318532 0)
(0.00935141 0.0343125 0)
(0.0136786 0.0461619 0)
(0.00649152 0.055852 0)
(0.00246847 0.0406986 0)
(-0.0205117 0.227134 0)
(-0.0235018 0.229202 0)
(-0.020007 0.237043 0)
(-0.016333 0.255583 0)
(-0.00840806 0.311026 0)
(-0.00993577 0.283455 0)
(-0.00604275 0.324553 0)
(0.000949916 0.312561 0)
(0.00536143 0.312947 0)
(-0.00497936 0.326051 0)
(-0.0121078 0.324159 0)
(0.00901878 0.324534 0)
(-0.0448457 0.218356 0)
(-0.0280797 0.215967 0)
(0.0199398 0.144585 0)
(0.0093297 0.14479 0)
(0.0323751 0.12328 0)
(0.041199 0.11806 0)
(0.0469956 0.120388 0)
(0.023871 0.141337 0)
(-0.0124882 0.193668 0)
(-0.0202799 0.214776 0)
(-0.0114842 0.18465 0)
(0.00327496 0.154465 0)
(-0.0233847 0.174139 0)
(-0.00524906 0.305631 0)
(-0.0240303 0.309041 0)
(-0.0480936 0.296881 0)
(-0.039662 0.306083 0)
(-0.0616917 0.293848 0)
(-0.067977 0.283903 0)
(-0.0604509 0.278991 0)
(-0.0582925 0.30441 0)
(-0.0478817 0.278773 0)
(-0.0859092 0.291895 0)
(0.0177998 0.161009 0)
(0.0390364 0.102348 0)
(0.0266801 0.128735 0)
(0.049652 0.108426 0)
(-0.0403632 0.0760903 0)
(-0.035025 0.0583711 0)
(-0.0446934 0.11844 0)
(-0.0390765 0.125461 0)
(-0.0505797 0.0949293 0)
(-0.0484721 0.114251 0)
(-0.0620641 0.113652 0)
(-0.0599847 0.0984472 0)
(-0.0868576 0.118279 0)
(-0.0671 0.10163 0)
(-0.0826674 0.125827 0)
(-0.0984095 0.19034 0)
(-0.0802369 0.223556 0)
(-0.0940097 0.183843 0)
(-0.0733683 0.255091 0)
(-0.0782753 0.216965 0)
(-0.0107755 0.39579 0)
(-0.0808917 0.283521 0)
(-0.058673 0.284697 0)
(0.0204605 0.369015 0)
(0.0166924 0.435435 0)
(0.0200797 0.396145 0)
(0.0320589 0.370265 0)
(0.0346338 0.407655 0)
(0.0391697 0.355069 0)
(0.0419524 0.382685 0)
(0.0512347 0.363629 0)
(0.0418025 0.329625 0)
(0.0463187 0.298899 0)
(0.0505992 0.332388 0)
(0.0472131 0.2676 0)
(0.0521529 0.296758 0)
(0.0391682 0.238539 0)
(0.0510594 0.263524 0)
(0.0462734 0.241104 0)
(0.0283242 0.219539 0)
(0.0347924 0.211644 0)
(0.020752 0.180223 0)
(0.028846 0.197847 0)
(0.0333261 0.168861 0)
(0.0313335 0.162452 0)
(0.0341498 0.176127 0)
(0.0229713 0.145701 0)
(0.0116703 0.158379 0)
(0.0273224 0.165058 0)
(0.0359727 0.137762 0)
(0.0345527 0.122185 0)
(0.0462686 0.122067 0)
(0.0662871 0.0929627 0)
(0.0679562 0.0789587 0)
(0.0586406 0.0872759 0)
(0.0621898 0.0967985 0)
(0.0577634 0.0961639 0)
(0.0746385 0.0925641 0)
(0.0868727 0.0755104 0)
(0.0924434 0.0849297 0)
(0.0824752 0.0660213 0)
(-0.00183737 -0.00288218 0)
(-0.00953928 -0.00131356 0)
(-0.0587751 0.0367407 0)
(-0.0531386 0.0282933 0)
(-0.0247375 0.0193471 0)
(-0.0192553 0.0444439 0)
(-0.0466225 0.036763 0)
(-0.057261 0.103507 0)
(-0.0137424 0.0849482 0)
(0.0050887 0.00788936 0)
(-0.0582731 0.0511328 0)
(-0.05865 0.00392352 0)
(0.12398 0.0336923 0)
(-0.0984687 -0.0577603 0)
(0.0976734 0.00977159 0)
(-0.0234701 0.00870639 0)
(-0.0657091 0.0410711 0)
(0.0880644 0.0220587 0)
(-0.0597875 0.0548851 0)
(0.0514815 0.0090916 0)
(-0.0582594 0.0582729 0)
(0.00883334 0.0069631 0)
(0 0 0)
(0 0 0)
(-0.191771 -0.0651774 0)
(0 0 0)
(-0.0486427 -0.0197056 0)
(0.100973 -0.024745 0)
(0 0 0)
(0.000501302 -0.00086077 0)
(0 0 0)
(0 0 0)
(0 0 0)
(0 0 0)
(0 0 0)
(0 0 0)
(0 0 0)
(0 0 0)
(-0.0100026 0.0641549 0)
(-0.0196641 0.0540853 0)
(-0.00121954 0.0555723 0)
(-0.00980555 0.0480124 0)
(-0.0229716 0.0711766 0)
(-0.0324531 0.0600501 0)
(-0.027324 0.0895212 0)
(-0.044486 0.0795308 0)
(-0.0480509 0.0948621 0)
(-0.0316683 0.106429 0)
(-0.0376079 0.115986 0)
(-0.0479098 0.108061 0)
(-0.0438678 0.121657 0)
(-0.0394644 0.128192 0)
(-0.0350382 0.147363 0)
(-0.0305265 0.134536 0)
(-0.0204169 0.163266 0)
(-0.0173169 0.156215 0)
(-0.0185393 0.180282 0)
(-0.0158179 0.194467 0)
(-0.0236189 0.212845 0)
(-0.0218471 0.223247 0)
(0 0 0)
(0.00079906 -0.00233382 0)
(0.001407 -0.00147166 0)
(0 0 0)
(0 0 0)
(0 0 0)
(0 0 0)
(0 0 0)
(-0.000394316 -4.37158e-05 0)
(-0.000835848 -0.00157649 0)
(0 0 0)
(0 0 0)
(0 0 0)
(0 0 0)
(-6.92968e-05 -5.59852e-05 0)
(0 0 0)
(0 0 0)
(0.00084887 0.000326906 0)
(0 0 0)
(0 0 0)
(0 0 0)
(0 0 0)
(0.0652261 -0.0324976 0)
(0.0500686 -0.0213196 0)
(-0.0393356 -0.00643345 0)
(-0.000291716 0.0417483 0)
(-0.0280607 0.0163072 0)
(-0.0413853 0.0293885 0)
(-0.0111287 0.0362903 0)
(-0.0325431 0.0345343 0)
(-0.0128822 0.0329724 0)
(0.00353027 0.0402886 0)
(0.0114656 0.0467879 0)
(0.00391414 0.0398475 0)
(0.00885081 0.05604 0)
(0.00735255 0.0433165 0)
(0.00312779 0.0561808 0)
(-0.00223393 0.0434995 0)
(-0.0185577 0.227095 0)
(-0.0171844 0.226232 0)
(-0.012342 0.25867 0)
(-0.00769543 0.238572 0)
(0.00087499 0.289055 0)
(-0.0128598 0.319582 0)
(-0.015548 0.326012 0)
(0.00896487 0.318593 0)
(-0.0210031 0.329848 0)
(-0.00434377 0.313229 0)
(-0.0301855 0.338853 0)
(-0.0424034 0.338816 0)
(-0.058022 0.225179 0)
(-0.0442186 0.214879 0)
(-0.0392239 0.179182 0)
(-0.0206967 0.16071 0)
(-0.0150253 0.21317 0)
(-0.00786774 0.135811 0)
(0.000379612 0.206728 0)
(0.00457044 0.132144 0)
(-0.0550712 0.249856 0)
(-0.0479535 0.357033 0)
(-0.0856681 0.244342 0)
(-0.0649087 0.329082 0)
(-0.0599111 0.33788 0)
(-0.0624367 0.350962 0)
(-0.0719761 0.318706 0)
(-0.0449439 0.317908 0)
(-0.0936142 0.295634 0)
(-0.0991016 0.291698 0)
(-0.0846645 0.300644 0)
(0.103535 0.0715767 0)
(0.0929194 0.0825597 0)
(0.110259 0.0801379 0)
(0.105416 0.0779862 0)
(0.104099 0.0767265 0)
(0.112244 0.0564478 0)
(0.113937 0.0485246 0)
(0.108669 0.0537171 0)
(0.0426745 0.0971348 0)
(0.0624393 0.0722615 0)
(0.0670345 0.0894947 0)
(0.0821049 0.0749564 0)
(0.0298232 0.0884494 0)
(0.0145768 0.121485 0)
(-0.0492343 0.0798074 0)
(-0.0667528 0.0632347 0)
(-0.0486939 0.132171 0)
(-0.048777 0.087233 0)
(-0.0560154 0.114441 0)
(-0.0471045 0.114541 0)
(-0.0535097 0.0950258 0)
(-0.053244 0.108516 0)
(-0.0727841 0.10471 0)
(-0.0629815 0.0990865 0)
(-0.0873669 0.155325 0)
(-0.0769502 0.10721 0)
(-0.107083 0.138539 0)
(-0.105753 0.182017 0)
(-0.0963913 0.162866 0)
(-0.118021 0.16971 0)
(-0.0965957 0.338486 0)
(-0.0827361 0.229751 0)
(0.00151477 0.446752 0)
(-0.0424989 0.416085 0)
(0.017558 0.449404 0)
(0.0603636 0.407634 0)
(0.0478145 0.442023 0)
(0.0506027 0.391903 0)
(0.0380735 0.399135 0)
(0.0647449 0.425916 0)
(0.0554932 0.368875 0)
(0.0710265 0.396097 0)
(0.0664364 0.336598 0)
(0.0757668 0.371125 0)
(0.0656179 0.296622 0)
(0.0825592 0.340379 0)
(0.0621882 0.259713 0)
(0.0817611 0.294501 0)
(0.0740219 0.260459 0)
(0.0579985 0.231889 0)
(0.0503102 0.191862 0)
(0.0624666 0.222557 0)
(0.0437452 0.165946 0)
(0.0543472 0.186595 0)
(0.0417352 0.165718 0)
(0.0429438 0.142435 0)
(0.0494146 0.1687 0)
(0.0453951 0.14917 0)
(0.045424 0.121854 0)
(0.0545045 0.117498 0)
(0.0588808 0.118045 0)
(0.0523302 0.133284 0)
(0.0687154 0.0990748 0)
(0.0680226 0.103947 0)
(0.082142 0.0659529 0)
(0.0798076 0.0818055 0)
(0.0831937 0.0750392 0)
(0.0809796 0.0810324 0)
(0.0994002 0.0618979 0)
(0.0965908 0.0725725 0)
(0.103705 0.0537278 0)
(0.103191 0.0493783 0)
(0.119623 0.047607 0)
(0.116635 0.052144 0)
(0.110746 0.0427974 0)
(-0.0125586 -0.00786782 0)
(-0.0571026 0.0454962 0)
(0.000728619 -0.00273547 0)
(-0.0670141 0.0372839 0)
(-0.028584 0.0118234 0)
(-0.0668772 0.0355514 0)
(-0.0377957 0.0348684 0)
(-0.0520571 0.0770394 0)
(-0.0184825 0.122359 0)
(-0.00287214 0.00646149 0)
(-0.0426949 0.0558597 0)
(0.0493079 -0.0562139 0)
(-0.0514442 0.039784 0)
(0.111976 0.0112831 0)
(-0.0569981 0.0127527 0)
(0.106891 -0.00478013 0)
(-0.0541528 0.0631544 0)
(-0.0423107 0.0757622 0)
(0.0337138 0.0110978 0)
(-0.042332 0.0632032 0)
(0.00584632 -0.00515513 0)
(0 0 0)
(0 0 0)
(-0.00482389 -0.029255 0)
(0 0 0)
(0.0804801 -0.121625 0)
(-0.116101 0.0573138 0)
(0 0 0)
(0 0 0)
(0 0 0)
(0 0 0)
(0 0 0)
(0 0 0)
(0 0 0)
(0 0 0)
(0 0 0)
(0 0 0)
(0 0 0)
(0 0 0)
(0 0 0)
(0 0 0)
(0 0 0)
(0.000183511 -1.50392e-05 0)
(0 0 0)
(0 0 0)
(0 0 0)
(0 0 0)
(0 0 0)
(0 0 0)
(0 0 0)
(1.03459e-05 -1.20604e-05 0)
(-1.29121e-05 -3.11199e-05 0)
(0.000172557 2.32913e-05 0)
(0 0 0)
(0 0 0)
(0 0 0)
(0 0 0)
(0 0 0)
(0 0 0)
(0 0 0)
(0 0 0)
(0 0 0)
(0 0 0)
(0 0 0)
(0 0 0)
(0 0 0)
(0 0 0)
(-0.0209144 0.0510535 0)
(-0.0113677 0.0616358 0)
(-0.00442253 0.0559299 0)
(-0.0131403 0.0466001 0)
(-0.0205927 0.0694115 0)
(-0.0317985 0.0605437 0)
(-0.0398199 0.0818269 0)
(-0.0267697 0.0903248 0)
(-0.0397867 0.0988649 0)
(-0.0326591 0.10396 0)
(-0.033336 0.11913 0)
(-0.0362544 0.112947 0)
(-0.0288684 0.125864 0)
(-0.0291858 0.135166 0)
(-0.0179685 0.136247 0)
(-0.0222895 0.143958 0)
(-0.0191987 0.157177 0)
(-0.0164038 0.154434 0)
(-0.0131506 0.183558 0)
(-0.0139714 0.171835 0)
(-0.0149408 0.223376 0)
(-0.00770993 0.213324 0)
(0 0 0)
(0 0 0)
(0 0 0)
(0 0 0)
(0 0 0)
(0 0 0)
(0 0 0)
(0 0 0)
(0 0 0)
(0 0 0)
(0 0 0)
(0 0 0)
(0 0 0)
(0 0 0)
(0 0 0)
(0.000128979 -0.000180299 0)
(0 0 0)
(0 0 0)
(0 0 0)
(0 0 0)
(0 0 0)
(0 0 0)
(0 0 0)
(0 0 0)
(3.81216e-05 -0.000450497 0)
(0 0 0)
(0 0 0)
(0 0 0)
(0 0 0)
(0 0 0)
(-0.0761979 -0.0403895 0)
(0 0 0)
(-0.0509977 0.120518 0)
(0.0070444 -0.0167304 0)
(-0.0232343 0.00813761 0)
(-0.0102183 0.0438906 0)
(-0.0286589 0.0405706 0)
(-0.00465954 0.0344188 0)
(-0.00264581 0.0434524 0)
(-0.0196388 0.0351581 0)
(0.0101986 0.045605 0)
(-0.00245707 0.0374672 0)
(0.00634603 0.0419171 0)
(0.0116012 0.0555654 0)
(0.00600448 0.0570814 0)
(0.00100001 0.041693 0)
(-0.00717221 0.043799 0)
(8.20834e-05 0.0546352 0)
(0.00019873 -8.69971e-05 0)
(0 0 0)
(0 0 0)
(0 0 0)
(0 0 0)
(0 0 0)
(0 0 0)
(0 0 0)
(0 0 0)
(0 0 0)
(0 0 0)
(0 0 0)
(0 0 0)
(0 0 0)
(0 0 0)
(0.000439192 4.63817e-05 0)
(0 0 0)
(0.000900181 0.224621 0)
(-0.00902008 0.225757 0)
(0.0036105 0.237752 0)
(-0.0110783 0.265778 0)
(-0.015662 0.335176 0)
(-0.00228381 0.296323 0)
(-0.0342518 0.333987 0)
(-0.0267673 0.325655 0)
(-0.0407295 0.342569 0)
(-0.0504947 0.318505 0)
(-0.0455524 0.360087 0)
(-0.0523257 0.341691 0)
(-0.0702125 0.222948 0)
(-0.0653915 0.239321 0)
(-0.0846881 0.238387 0)
(-0.0860921 0.157065 0)
(-0.0484002 0.132922 0)
(-0.047112 0.130856 0)
(0.00297308 0.119263 0)
(-0.0195932 0.129545 0)
(-0.137702 0.239141 0)
(-0.0759297 0.267338 0)
(-0.155235 0.222811 0)
(-0.100176 0.230783 0)
(-0.0738308 0.331668 0)
(-0.0351929 0.325229 0)
(-0.0713341 0.289995 0)
(-0.0932525 0.297369 0)
(-0.0880343 0.23521 0)
(-0.138851 0.238481 0)
(-0.169807 0.194661 0)
(-0.102466 0.271141 0)
(0.122764 0.0443699 0)
(0.123335 0.0514191 0)
(0.129814 0.0393868 0)
(0.122357 0.043783 0)
(0.126277 0.0474283 0)
(0.11571 0.0545501 0)
(0.119552 0.0388247 0)
(0.123441 0.0272413 0)
(0.127707 0.0261645 0)
(0.125701 0.0338866 0)
(0.0910006 0.0802401 0)
(0.100316 0.0682942 0)
(0.102907 0.0641384 0)
(0.118047 0.0418068 0)
(0.0627354 0.0691165 0)
(0.0421832 0.0897078 0)
(0.0934193 0.0769 0)
(0.0730602 0.0845195 0)
(0.014447 0.117638 0)
(0.0317851 0.0803889 0)
(-0.0216827 0.134225 0)
(-0.0177959 0.105863 0)
(-0.0440609 0.0931367 0)
(-0.0451521 0.108875 0)
(-0.0525285 0.0890565 0)
(-0.0638569 0.10109 0)
(-0.0812783 0.0946006 0)
(-0.0713871 0.094766 0)
(-0.0845655 0.0931727 0)
(-0.0905334 0.128407 0)
(-0.0934643 0.140694 0)
(-0.0896359 0.193494 0)
(-0.0747599 0.166919 0)
(-0.0857684 0.144602 0)
(-0.1165 0.194985 0)
(-0.0662999 0.156709 0)
(0.00960815 0.385152 0)
(-0.0654822 0.276586 0)
(0.0375124 0.472274 0)
(0.0649616 0.467908 0)
(-0.0117703 0.437014 0)
(0.100175 0.428392 0)
(0.105553 0.428597 0)
(0.100984 0.457443 0)
(0.112005 0.432185 0)
(0.0776656 0.389151 0)
(0.0745025 0.385165 0)
(0.100755 0.404288 0)
(0.108397 0.378605 0)
(0.0852601 0.34088 0)
(0.0805369 0.289913 0)
(0.105641 0.331399 0)
(0.0947185 0.290889 0)
(0.0726437 0.254627 0)
(0.0648829 0.212129 0)
(0.087157 0.24798 0)
(0.078934 0.204442 0)
(0.0626616 0.181012 0)
(0.0717941 0.17931 0)
(0.0610942 0.1568 0)
(0.0521209 0.14076 0)
(0.0518334 0.124532 0)
(0.0597025 0.12971 0)
(0.0628699 0.152475 0)
(0.0683737 0.111607 0)
(0.0766925 0.103692 0)
(0.0580019 0.11877 0)
(0.0698267 0.111044 0)
(0.0827754 0.0887616 0)
(0.0847938 0.0833232 0)
(0.0943007 0.0635584 0)
(0.0938168 0.0675966 0)
(0.0942973 0.0688199 0)
(0.0964977 0.0719821 0)
(0.110473 0.0537472 0)
(0.0977411 0.0555226 0)
(0.109764 0.0392322 0)
(0.105358 0.0499835 0)
(0.111711 0.0409537 0)
(0.112659 0.0473899 0)
(0.113183 0.0374754 0)
(0.11515 0.0327541 0)
(0.12946 0.0343945 0)
(0.119613 0.0308252 0)
(0.121254 0.0341116 0)
(0.128992 0.0315028 0)
(0.119761 0.0334982 0)
(0.128828 0.0357249 0)
(0.126733 0.0353409 0)
(0.116853 0.0353949 0)
(0.120285 0.0318047 0)
(0.123501 0.0307885 0)
(0.115785 0.0340465 0)
(0.128431 0.0367488 0)
(0.123708 0.0345235 0)
(0.124019 0.0357229 0)
(0.119148 0.0363059 0)
(0.127908 0.0376907 0)
(0.124513 0.0348201 0)
(0.124783 0.0353628 0)
(0.11613 0.0358612 0)
(0.120576 0.0350737 0)
(0.11631 0.0358394 0)
(0.109331 0.0340637 0)
(0.118628 0.0348707 0)
(0.109863 0.0337594 0)
(0.111332 0.0353976 0)
(0.0995544 0.0327407 0)
(0.10659 0.0322269 0)
(0.0999896 0.0316878 0)
(0.10157 0.0324598 0)
(0.0970962 0.0312133 0)
(0.0901806 0.0320538 0)
(0.090114 0.0333163 0)
(0.0934727 0.0320333 0)
(0.0922676 0.0322305 0)
(0.0836573 0.0315289 0)
(0.0828135 0.0359057 0)
(0.0873133 0.0337108 0)
(0.0786997 0.0317932 0)
(0.0842206 0.0326061 0)
(-0.0555342 0.0396971 0)
(-0.0115503 0.00082912 0)
(-0.00844628 0.00185615 0)
(-0.0174731 0.00688 0)
(-0.0608501 0.0389337 0)
(-0.0639305 0.0315769 0)
(-0.047511 0.00854098 0)
(-0.0602519 0.0565407 0)
(-0.0759483 0.0495619 0)
(-0.0598948 0.111693 0)
(-0.0884016 0.0927951 0)
(-0.0267982 0.050574 0)
(-0.0546523 0.0186324 0)
(0.00120106 0.0520024 0)
(-0.120675 -0.0168583 0)
(0.336867 -0.0687436 0)
(-0.072924 0.147637 0)
(-0.064405 0.0769867 0)
(0.0405144 -0.0321355 0)
(-0.0161366 0.0978663 0)
(-0.0062714 -0.0131887 0)
(-0.0621994 -0.0525621 0)
(-0.0534048 0.0194525 0)
(0 0 0)
(0.000162224 1.24356e-05 0)
(0 0 0)
(0 0 0)
(0.0284444 -0.0072969 0)
(0 0 0)
(2.66728e-05 -0.000143309 0)
(0 0 0)
(0 0 0)
(0 0 0)
(0 0 0)
(-3.65648e-06 8.39397e-06 0)
(0 0 0)
(0 0 0)
(0 0 0)
(0 0 0)
(0 0 0)
(0 0 0)
(0 0 0)
(0 0 0)
(0.000517231 -0.000533983 0)
(0 0 0)
(0 0 0)
(0 0 0)
(0 0 0)
(0 0 0)
(0 0 0)
(0 0 0)
(0 0 0)
(0 0 0)
(0 0 0)
(0 0 0)
(0 0 0)
(0 0 0)
(0 0 0)
(0 0 0)
(0 0 0)
(0 0 0)
(0 0 0)
(0 0 0)
(0 0 0)
(-0.00475447 0.0087856 0)
(0.0084877 8.62096e-05 0)
(0 0 0)
(3.59106e-05 -3.18706e-05 0)
(0 0 0)
(0 0 0)
(-5.05269e-05 0.000113177 0)
(1.09284e-05 -1.57392e-05 0)
(0 0 0)
(0.000213252 -4.74534e-05 0)
(-3.74022e-05 6.2571e-05 0)
(0 0 0)
(0 0 0)
(0 0 0)
(0 0 0)
(0 0 0)
(0 0 0)
(0 0 0)
(0 0 0)
(0 0 0)
(0 0 0)
(0 0 0)
(0 0 0)
(0 0 0)
(0 0 0)
(0 0 0)
(0 0 0)
(0 0 0)
(-0.000197716 -0.00411557 0)
(0 0 0)
(0 0 0)
(-0.0121904 0.0602799 0)
(-0.0228163 0.0480559 0)
(-0.0164405 0.0445289 0)
(-0.00611252 0.0546378 0)
(-0.0305864 0.0603289 0)
(-0.0218033 0.0681816 0)
(-0.0267515 0.0912503 0)
(-0.03032 0.0883853 0)
(-0.0255515 0.106902 0)
(-0.0284789 0.101918 0)
(-0.0213553 0.115931 0)
(-0.0242468 0.118425 0)
(-0.016907 0.128407 0)
(-0.0239778 0.136044 0)
(-0.00775961 0.181235 0)
(0.00131257 0.208692 0)
(-0.00599729 0.223615 0)
(-0.0121743 0.137349 0)
(-0.0169923 0.144236 0)
(-0.00680307 0.148228 0)
(-0.00494611 0.157017 0)
(0.00319775 0.16637 0)
(0 0 0)
(0 0 0)
(-0.00179226 -0.00297096 0)
(0.00187927 -0.00470744 0)
(0 0 0)
(0 0 0)
(0 0 0)
(0 0 0)
(0 0 0)
(0 0 0)
(0 0 0)
(0 0 0)
(0 0 0)
(0 0 0)
(0 0 0)
(0 0 0)
(0 0 0)
(0 0 0)
(0 0 0)
(0 0 0)
(0 0 0)
(0 0 0)
(0.000113677 -1.25181e-05 0)
(4.14443e-05 0.000137364 0)
(0 0 0)
(0 0 0)
(0 0 0)
(-0.0108299 -0.0227136 0)
(-0.0208585 0.00151296 0)
(0.0131773 0.0797067 0)
(0.00514924 0.0419218 0)
(-0.0134343 0.0314662 0)
(0.0067036 0.0401884 0)
(-0.0217886 0.0391963 0)
(0.010608 0.0470485 0)
(-0.00526335 0.0350606 0)
(0.00231538 0.0388548 0)
(0.0131517 0.0530158 0)
(0.00217625 0.0397433 0)
(0.00991585 0.0575493 0)
(0.00392358 0.0542943 0)
(-0.00384206 0.0403135 0)
(-0.000335527 0.0534028 0)
(-0.0115244 0.0429202 0)
(4.82743e-05 -6.42533e-06 0)
(0 0 0)
(0.000122634 -9.40404e-05 0)
(0 0 0)
(0 0 0)
(3.78114e-06 -9.13865e-06 0)
(0 0 0)
(0 0 0)
(3.97787e-05 -3.62314e-06 0)
(0 0 0)
(0 0 0)
(0 0 0)
(0 0 0)
(0 0 0)
(0 0 0)
(0 0 0)
(0 0 0)
(0 0 0)
(0 0 0)
(0 0 0)
(0 0 0)
(0 0 0)
(0 0 0)
(0 0 0)
(5.88507e-05 -4.97105e-05 0)
(0 0 0)
(-0.00797946 0.229399 0)
(-0.00243127 0.219912 0)
(-0.00878956 0.274689 0)
(-0.00916606 0.240163 0)
(-0.0100312 0.347639 0)
(-0.0151285 0.308437 0)
(-0.00477901 0.342648 0)
(-0.0192304 0.333416 0)
(-0.0513462 0.324418 0)
(-0.00381351 0.315667 0)
(-0.0652779 0.302468 0)
(-0.0541006 0.284332 0)
(-0.0950181 0.242928 0)
(-0.117864 0.221747 0)
(-0.0727161 0.226689 0)
(-0.081203 0.155897 0)
(-0.0526276 0.0916881 0)
(-0.0583029 0.127194 0)
(-0.0281987 0.114021 0)
(0.00110218 0.101659 0)
(-0.156624 0.230039 0)
(-0.109028 0.191006 0)
(-0.081835 0.187869 0)
(-0.0966963 0.173876 0)
(-0.102463 0.271425 0)
(-0.121685 0.240262 0)
(-0.0881184 0.190376 0)
(-0.164447 0.177621 0)
(-0.0977716 0.141496 0)
(-0.0574542 0.146886 0)
(-0.101115 0.199284 0)
(-0.0560939 0.19653 0)
(0.13616 0.0346775 0)
(0.127494 0.0330638 0)
(0.125661 0.0314564 0)
(0.124154 0.050558 0)
(0.132933 0.0455332 0)
(0.121437 0.0504792 0)
(0.128497 0.0323051 0)
(0.125727 0.0346763 0)
(0.128475 0.0320986 0)
(0.130304 0.0348365 0)
(0.132533 0.0330621 0)
(0.130543 0.0356599 0)
(0.135325 0.0380514 0)
(0.136457 0.0368715 0)
(0.132317 0.0373094 0)
(0.127093 0.0349909 0)
(0.118174 0.0365329 0)
(0.12191 0.0375793 0)
(0.106403 0.0348338 0)
(0.113155 0.0378852 0)
(0.104135 0.0356169 0)
(0.0972969 0.0361082 0)
(0.0956501 0.0375859 0)
(0.0888133 0.0382788 0)
(0.0749691 0.0335771 0)
(0.0801307 0.0357232 0)
(0.0758886 0.03874 0)
(0.0777707 0.0349208 0)
(0.0802121 0.0405434 0)
(0.0869751 0.0398101 0)
(0.108556 0.0503234 0)
(0.100703 0.0718323 0)
(0.115267 0.0565465 0)
(0.122352 0.0444811 0)
(0.074233 0.0628946 0)
(0.0469552 0.0837635 0)
(0.106466 0.0684059 0)
(0.0765509 0.0778196 0)
(0.0145568 0.114133 0)
(0.044715 0.069343 0)
(-0.0649534 0.086346 0)
(-0.0347382 0.102117 0)
(-0.0497907 0.0994167 0)
(-0.0508559 0.0937492 0)
(-0.0406641 0.088578 0)
(-0.0719479 0.0803066 0)
(-0.106822 0.0866975 0)
(-0.0629861 0.0766868 0)
(-0.0945952 0.0820223 0)
(-0.112452 0.14195 0)
(-0.127548 0.105117 0)
(-0.113068 0.1096 0)
(-0.0733129 0.0618487 0)
(-0.143544 0.0167511 0)
(0.00698146 0.390853 0)
(0.331171 -0.0953168 0)
(0.112661 0.272172 0)
(0.132124 0.305283 0)
(0.0689754 0.416742 0)
(0.0783046 0.300284 0)
(-0.00867235 0.295233 0)
(0.0978635 0.420791 0)
(0.159492 0.411591 0)
(0.105084 0.397161 0)
(0.147662 0.429098 0)
(0.14898 0.436824 0)
(0.157606 0.437594 0)
(0.125176 0.382198 0)
(0.104607 0.325558 0)
(0.150594 0.369286 0)
(0.127698 0.317652 0)
(0.0911099 0.293173 0)
(0.0827883 0.246997 0)
(0.108685 0.285791 0)
(0.100506 0.232438 0)
(0.0722045 0.203068 0)
(0.0699244 0.17512 0)
(0.0857129 0.199211 0)
(0.0816785 0.173754 0)
(0.0669408 0.146179 0)
(0.0668295 0.127072 0)
(0.0685411 0.120092 0)
(0.0697139 0.130658 0)
(0.0750975 0.141153 0)
(0.0793966 0.0910046 0)
(0.0753947 0.102752 0)
(0.0776028 0.117317 0)
(0.0787107 0.103317 0)
(0.0882905 0.0754918 0)
(0.0892957 0.0796002 0)
(0.111717 0.0633858 0)
(0.1035 0.0631053 0)
(0.0971047 0.0683112 0)
(0.0968661 0.0753894 0)
(0.111988 0.0455138 0)
(0.105998 0.0489724 0)
(0.110691 0.0457907 0)
(0.113569 0.0417574 0)
(0.119332 0.040094 0)
(0.112093 0.0421958 0)
(0.120018 0.0306932 0)
(0.117422 0.0363969 0)
(0.126789 0.0375504 0)
(0.111721 0.0345429 0)
(0.118655 0.0349324 0)
(0.120249 0.0367538 0)
(0.120332 0.0320234 0)
(0.11603 0.0360077 0)
(0.122917 0.0377422 0)
(0.116857 0.0380499 0)
(0.11941 0.036029 0)
(0.111869 0.0366553 0)
(0.113173 0.038635 0)
(0.104415 0.0361279 0)
(0.105407 0.0372575 0)
(0.0945397 0.0360617 0)
(0.0962893 0.0364442 0)
(0.0849626 0.0343001 0)
(0.077703 0.0324246 0)
(0.087941 0.0352551 0)
(0.0800797 0.0345172 0)
(0.0727744 0.0325654 0)
(0.0726657 0.0378122 0)
(0.0741274 0.0354515 0)
(0.0689488 0.0326652 0)
(0.0715002 0.0361191 0)
(0.0678373 0.0398979 0)
(0.0649972 0.032399 0)
(0.0679255 0.0361714 0)
(0.0629647 0.0357501 0)
(0.0678926 0.0386574 0)
(0.0620012 0.0325452 0)
(0.0632522 0.0399414 0)
(-0.0703933 -0.00606914 0)
(-0.0623254 0.0332882 0)
(-0.0686718 0.0292053 0)
(-0.018326 0.021206 0)
(-0.0588508 0.0402659 0)
(-0.0571846 0.0419241 0)
(-0.0244164 0.0105988 0)
(-0.0387617 0.0442339 0)
(-0.0434939 0.0338956 0)
(-0.0701403 0.0527979 0)
(-0.00449329 0.0902935 0)
(-0.0455684 0.0513601 0)
(-0.0883267 0.048705 0)
(0.0235924 0.00984541 0)
(-0.130829 0.00567754 0)
(0 0 0)
(0 0 0)
(-0.0659789 0.0612922 0)
(0.104023 -0.0950138 0)
(-0.0258614 -0.0843613 0)
(-0.0107088 0.0991041 0)
(0.077797 0.0156424 0)
(-0.117009 -0.0477059 0)
(0.11367 -0.0527721 0)
(0.0452228 0.123664 0)
(0 0 0)
(0 0 0)
(0 0 0)
(0 0 0)
(-0.000648033 0.00441452 0)
(-0.00661343 -0.00525572 0)
(0 0 0)
(0 0 0)
(-2.85775e-05 -0.000465433 0)
(0 0 0)
(0 0 0)
(0 0 0)
(0 0 0)
(0 0 0)
(0 0 0)
(0 0 0)
(0 0 0)
(0.000602303 -0.000655993 0)
(0 0 0)
(0 0 0)
(0 0 0)
(0 0 0)
(0 0 0)
(0 0 0)
(0 0 0)
(0 0 0)
(0.00178059 -0.00178656 0)
(0 0 0)
(0 0 0)
(0 0 0)
(6.36002e-05 1.21924e-06 0)
(0 0 0)
(0 0 0)
(0 0 0)
(0 0 0)
(0 0 0)
(0 0 0)
(0 0 0)
(0 0 0)
(0.0004311 0.000116644 0)
(0 0 0)
(0 0 0)
(0 0 0)
(0 0 0)
(0 0 0)
(0 0 0)
(0 0 0)
(-1.03707e-06 -1.3284e-06 0)
(0 0 0)
(7.00894e-05 -5.21273e-05 0)
(0 0 0)
(0 0 0)
(0 0 0)
(0 0 0)
(0 0 0)
(0 0 0)
(0 0 0)
(0 0 0)
(0 0 0)
(0 0 0)
(-0.0141527 0.0596456 0)
(-0.022732 0.0466444 0)
(-0.0182723 0.0437732 0)
(-0.00658649 0.0553843 0)
(-0.0226527 0.0643842 0)
(-0.0204281 0.0699685 0)
(-0.0210783 0.0915358 0)
(-0.0209844 0.091718 0)
(-0.0143842 0.104668 0)
(-0.0220424 0.108287 0)
(-0.0191796 0.12176 0)
(-0.011743 0.119671 0)
(-0.00856084 0.136426 0)
(-0.0050279 0.128202 0)
(-0.00216262 0.184055 0)
(-0.00288891 0.208454 0)
(0.00271136 0.225748 0)
(-0.00420339 0.164004 0)
(-0.000309192 0.146572 0)
(-0.000728409 0.137346 0)
(0.00366067 0.142224 0)
(0.00332648 0.151092 0)
(-0.00207612 -0.000154338 0)
(0 0 0)
(-0.00050969 0.000738519 0)
(0 0 0)
(0 0 0)
(0 0 0)
(0 0 0)
(0 0 0)
(0.00134419 0.000103635 0)
(0 0 0)
(0 0 0)
(0 0 0)
(0 0 0)
(0 0 0)
(0 0 0)
(0.00113424 -0.00116349 0)
(0 0 0)
(0 0 0)
(0 0 0)
(0 0 0)
(0 0 0)
(8.49735e-05 -1.50248e-05 0)
(0 0 0)
(0 0 0)
(0 0 0)
(0 0 0)
(0.0508726 -0.0989986 0)
(0.0420624 0.0329335 0)
(-0.0131541 0.0036113 0)
(0.0221522 0.0619916 0)
(0.00589209 0.034885 0)
(-0.0167263 0.0251628 0)
(0.0130988 0.043147 0)
(-0.00791699 0.0319532 0)
(0.00213079 0.0318838 0)
(0.0139161 0.049338 0)
(0.0136617 0.0564235 0)
(0.00434256 0.0375119 0)
(0.00885954 0.0564743 0)
(-0.000818958 0.0382489 0)
(-0.000274924 0.0523145 0)
(-0.0149633 0.0421259 0)
(-0.00791349 0.0399403 0)
(0.00494644 0.0519187 0)
(0 0 0)
(0 0 0)
(0 0 0)
(0.000153417 -3.61275e-05 0)
(0 0 0)
(0.000247029 2.26327e-05 0)
(0 0 0)
(0 0 0)
(0 0 0)
(0 0 0)
(0 0 0)
(0 0 0)
(0.00258579 0.000585911 0)
(0 0 0)
(0 0 0)
(0 0 0)
(0 0 0)
(0 0 0)
(0 0 0)
(-3.84094e-06 1.64082e-05 0)
(0 0 0)
(1.08883e-05 8.99317e-06 0)
(0 0 0)
(0 0 0)
(0 0 0)
(0 0 0)
(0 0 0)
(0 0 0)
(0 0 0)
(0 0 0)
(0 0 0)
(0.00767021 0.240117 0)
(0.00653446 0.229842 0)
(0.0227717 0.263265 0)
(0.00635004 0.280758 0)
(-0.0173876 0.33729 0)
(0.0209923 0.305033 0)
(-0.0126112 0.276581 0)
(-0.0283509 0.296499 0)
(0.0103872 0.191218 0)