/*--------------------------------*- C++ -*----------------------------------*\
  =========                 |
  \\      /  F ield         | OpenFOAM: The Open Source CFD Toolbox
   \\    /   O peration     | Website:  https://openfoam.org
    \\  /    A nd           | Version:  8
     \\/     M anipulation  |
\*---------------------------------------------------------------------------*/
FoamFile
{
    version     2.0;
    format      ascii;
    class       surfaceScalarField;
    location    "16680";
    object      phi;
}
// * * * * * * * * * * * * * * * * * * * * * * * * * * * * * * * * * * * * * //

dimensions      [0 3 -1 0 0 0 0];

internalField   nonuniform List<scalar> 
788991
(
-0.00815506
0.0648614
-0.0479076
-0.0478609
0.0808476
-0.0267074
-0.0400162
0.0527153
0.00928459
0.075572
-0.0130045
0.0163643
0.0263618
-0.0199908
0.0115549
-0.0363205
0.0319262
0.0213428
-0.00410136
0.0221268
0.0259819
0.00422771
-0.0379921
0.00451693
0.00300865
0.0110039
-0.0301203
0.0612782
-0.0341019
0.0659635
-0.0516857
0.002274
0.0710014
-0.0536122
0.0493188
-0.0314975
-0.0402489
-0.0450867
-0.0234416
0.00077312
-0.0903055
0.0624187
0.0491335
0.0090777
0.0595891
-0.0164828
-0.014158
0.123272
-0.0127352
0.0180328
-0.152496
-0.00270615
0.00443554
0.0179837
0.0720539
0.0435314
0.0785667
0.0393732
0.100363
0.0572899
0.0390826
-0.0184442
-0.0411235
0.0566367
0.0188901
0.00393239
0.0453157
0.0236644
0.0354844
0.0708557
0.00661323
0.0179624
-0.0272279
0.119232
-0.00496376
-0.0664651
0.0851513
-0.104545
-0.0044023
0.0118163
0.0672059
-0.0375699
0.061995
-0.0572784
0.0202061
-0.0502228
-0.0119525
-0.0391924
-0.0348727
-0.0162301
-0.00438982
-0.057897
-0.0318684
-0.0591202
0.0492594
-0.0221003
-0.0477965
0.0809255
-0.0895927
-0.0597931
-0.0148128
-0.0458752
-0.0491631
-0.0269835
-0.0678781
-0.0225215
-0.0900035
0.0321651
-0.0751868
0.0556743
-0.0477185
-0.0568235
-0.0514777
-0.0168307
-0.0803399
-0.0399493
-0.0564095
-0.0180427
-0.0259167
0.0513208
0.0699847
-0.0714281
0.0648333
-0.00647643
-0.0285874
-0.109374
0.0219551
-0.0320847
-0.0366328
0.054508
0.116804
0.0599955
-0.186626
-0.155942
-0.223919
-0.23846
0.0945121
0.12656
-0.105183
0.155516
0.0722247
-0.0530943
0.115554
0.0385623
-0.0479058
-0.0808742
-0.00419131
-0.0482715
0.0561496
0.00525843
-0.0397197
-0.0597192
-0.0258566
-0.0667251
0.0478967
0.0105321
-0.0888875
-0.0440481
-0.0732327
0.0677812
-0.0356603
0.0975184
-0.0297874
-0.0898098
0.0510747
-0.0610914
0.0798133
-0.0186221
-0.104673
0.0699148
-0.0628651
0.0919952
-0.00689216
-0.0861499
-0.0602805
-0.0690279
-0.074665
0.00596304
-0.0663355
-0.052265
-0.0568002
0.048939
0.0152752
-0.0439903
0.0599586
-0.0576351
0.0488997
0.0174615
-0.0444578
-0.0739261
-0.0714711
-0.0598614
0.0146686
-0.0579376
0.0778013
-0.0751703
0.0618719
0.00137336
-0.060199
0.0736859
-0.0712014
-0.0729528
-0.0108961
-0.0725769
-0.0806224
-0.0762648
0.0937658
0.0659846
-0.0882134
-0.0063107
-0.0899249
-0.0777085
-0.0426638
-0.0172067
0.00903843
-0.0294605
0.068534
0.0319736
0.0329739
-0.0202952
0.0389752
0.0103546
-0.0637026
-0.0261432
-0.0110483
-0.0587808
-0.0603834
-0.0333401
-0.0510221
0.0153785
-0.0294175
-0.0707769
-0.0208209
-0.0279653
-0.0601047
0.0378162
-0.059478
-0.0673482
-0.041252
0.0115269
-0.0365435
-0.0565614
-0.0338458
-0.0878892
0.0541548
-0.0374876
-0.099532
-0.0711626
-0.0140751
-0.091632
0.061242
-0.00371128
-0.0736648
0.0560757
0.0138153
-0.0531692
0.0507716
0.0232428
-0.0380342
-0.0618143
0.0215772
-0.0426546
0.0754422
0.0198176
-0.0489217
-0.0762213
0.0142063
-0.0497982
0.0768787
-0.0203748
0.0311439
-0.0536909
-0.0737776
-0.0625176
0.06189
-0.0916611
-0.0804482
-0.029305
-0.033712
0.0581208
-0.0815222
0.045614
-0.00995571
0.0228412
-0.0277631
0.0544798
-0.0240992
-0.15886
0.0122689
0.00440867
0.00546723
0.00386957
0.12549
-0.0681824
0.0386942
-0.0797552
0.0217113
0.0438468
0.00934799
0.0544685
0.0192755
0.080619
0.00248263
0.0613688
0.0297469
-0.0235736
0.0256222
0.0460473
0.0517653
0.0218337
-0.060699
0.0429339
-0.0576928
0.00868687
-0.0182211
-0.0609758
0.647515
0.385534
0.010418
0.0574434
0.0092356
-0.0407756
0.0320914
-0.0224171
-0.0226591
-0.0875349
-0.0777096
-0.037949
-0.0428321
-0.0297554
-0.0623455
-0.0320614
-0.00405673
-0.0862954
0.0613932
-0.0177198
-0.0377662
-0.069241
0.0165049
-0.0857614
-0.0692541
0.0282419
-0.0339884
-0.0760696
0.024842
-0.0641995
0.065749
0.0380747
-0.0211986
0.0578924
0.0490885
-0.0421313
0.0898708
0.0280469
-0.0456644
0.0632451
1.01969
0
0
0
-0.203554
0.0741385
1.01653
0.126349
0.0968533
-0.0761532
-0.142203
0.0618211
-0.0384046
0.0906246
0.0400265
-0.0300789
0.0772194
0.0292997
-0.039553
-0.0732244
-0.000922429
-0.0341236
-0.0601876
-0.0253096
-0.0624255
0.0401982
-0.00986884
-0.0757704
-0.064774
0.0289338
-0.0529218
0.0842297
0.0137157
-0.0595877
-0.0773918
0.00756861
-0.0713332
0.0790627
-0.0053074
-0.0631937
0.0492105
-0.00932779
-0.0535688
-0.0447537
-0.0120767
-0.0664003
0.057765
-0.0433942
-0.0856985
-0.0455881
0.0743577
0.0112695
-0.0186781
-0.0967825
-0.0961688
-0.0992316
0.0640324
-0.0893299
-0.0902787
0.0358254
-0.0207433
0.0928074
0.0253714
-0.0994841
-0.0123106
-0.0742751
-0.06233
0.000783275
-0.0737462
0.0744029
0.0117041
-0.0753578
0.0906611
-0.010402
-0.0875202
0.0872344
-0.0373287
0.0550931
-0.100324
-0.100545
-0.0879814
-0.107374
0.0819056
0.023285
-0.0224126
-0.0343041
-0.0387344
-0.0173079
-0.00852443
-0.0202212
0.0133182
-0.0401541
-0.061477
-0.0204024
-0.0250305
0.0332995
-0.0387994
-0.0625694
0.0228263
-0.0444206
-0.0413609
-0.0158488
-0.0320583
-0.0315084
0.0176182
-0.0191251
-0.0535277
0.0367439
-0.06841
-0.0701762
0.0540106
0.0127505
-0.0287523
-0.0589627
-0.0418237
-0.0867516
-0.0624678
-0.0260248
-0.0911448
0.0593847
-0.010007
-0.0750108
0.0597455
0.00246697
-0.0582649
-0.0513965
0.018653
-0.0477437
0.0548574
0.025315
-0.0399518
0.0665264
0.0253997
-0.0393698
0.0715492
0.0280137
-0.0358655
-0.0714901
0.0386512
-0.0392328
-0.0774666
-0.0307199
0.0534348
-0.0846037
-0.0447137
0.062657
0.083262
-0.0155913
0.0687233
0.0844869
-0.0285856
0.0664582
-0.0810426
0.0733885
-0.0178738
-0.0882349
-0.0124726
-0.0720033
-0.0256733
0.0938395
-0.0228661
0.0817786
-0.0886823
0.0316521
-0.092836
-0.0596803
-0.0338402
0.0932353
-0.0424925
0.015726
-0.0644182
0.0397503
-0.0263587
-0.0554315
0.0226164
-0.0179641
-0.0148634
0.0369684
-0.0501112
-0.0872491
-0.0227165
0.0338169
0.0149398
-0.0158696
-0.0539241
-0.0957097
-0.00744288
-0.0991672
0.0652604
0.0167799
-0.0253481
0.0625855
0.0552389
0.0500498
0.0664855
0.0368969
0.0392235
0.08531
0.0408144
0.0383295
0.000643585
0.0523056
0.0363263
-0.148234
0.0176059
-0.0532194
-0.114224
-0.158157
-0.148689
0
0
0
0
0
-0.202685
0
0
-0.0540111
0.225147
0.387708
0.0326492
-0.00678975
-0.0425302
-0.0830557
-0.0257435
-0.0704637
-0.0927956
-0.0424066
-0.0206728
-0.0481479
-0.0763246
-0.0599808
-0.0153705
-0.0380885
-0.0448473
-0.0184845
-0.0979058
0.0711392
0.0206962
-0.0376998
-0.0770066
0.0356708
-0.0608166
0.0779173
0.0331472
-0.0352825
-0.0579967
0.0238248
-0.0450588
0.0614238
0.0267192
-0.0404038
-0.0667132
0.0203789
-0.0473508
-0.0676086
1.64493e-06
0
-2.10546e-06
0
0
-3.75291e-06
-1.45442e-06
2.25932e-06
-6.28838e-07
3.27196e-07
-1.84472e-08
0
0
0
0
0
0
0
0
0
0
0
0
0
0.644568
0.146478
-0.0491305
0.129736
0.612259
0.0437149
0.0834002
0.134186
0.0573659
0.0380734
0.0228043
-0.0510299
0.0207816
-0.0251591
-0.0542803
0.0181908
-0.0144794
0.0583177
0.00169842
-0.0456005
-0.0623824
-0.0181616
-0.0563167
-0.0515512
-0.0107193
-0.0542878
-0.0681074
0.00983408
-0.0570127
-0.0721393
0.00652466
-0.0628343
0.073324
-0.00359681
-0.0642727
-0.0515084
-0.00742215
-0.0519716
0.0386001
-0.00816194
-0.0583298
0.0488384
-0.00996279
-0.0742374
-0.0610694
-0.0480767
-0.0931796
-0.04809
-0.0665666
0.0167635
0.120071
-0.0980458
0.0528222
-0.0828602
-0.097353
0.0985921
-0.0254974
-0.0500018
-0.0490613
0.0736651
-0.0405947
0.00269726
-0.0792164
-0.0748668
0.00865227
-0.0779861
-0.0874094
-0.0058014
-0.084996
-0.0793598
0.0206794
-0.0848151
0.0768077
-0.020863
-0.0889874
-0.0671134
-0.0877274
-0.0648584
-0.0655126
0.0753939
-0.0475962
-0.0852218
-0.0302101
-0.0413889
-0.0991318
-0.0514857
-0.0297863
-0.0964839
-0.0589931
-0.112674
-0.0532118
0.0557028
-0.0572882
0.0116248
-0.0421815
-0.0379336
-0.0223078
0.0021394
0.038178
-0.0213296
-0.0497738
-0.0152256
-0.0469412
-0.0174543
-0.0239779
-0.0368734
0.0102842
-0.0383476
-0.0276603
-0.00316518
-0.0204639
-0.0214139
0.00267206
-0.0207992
-0.0224814
-0.0220484
-0.0221213
-0.0611891
0.0449028
-0.0742266
-0.0773264
-0.0540629
-0.0107551
-0.0277949
-0.0532618
-0.0305164
-0.0870463
-0.0509741
-0.0214904
-0.0858796
0.0529303
-0.00577789
-0.0708732
0.0513482
0.000820743
-0.056417
0.0518133
0.0150949
-0.0552647
0.0591863
0.0248767
-0.0434949
0.0653559
0.0276624
-0.0338592
-0.0656092
0.0314314
-0.0312638
0.0677895
0.0362599
-0.0345664
0.0734094
-0.0251059
0.0570116
-0.0811262
-0.0401298
0.061329
-0.0765714
-0.0144224
0.0661665
-0.0837697
-0.0244387
0.0669203
0.0793633
0.0667216
-0.0201464
0.0894489
-0.0202333
0.0608598
-0.0911424
-0.0264838
0.0680789
-0.0896027
0.0251232
-0.0383312
-0.0919728
0.0185303
-0.0611919
0.0788008
0.0432292
-0.031889
-0.0567912
0.0713655
-0.0129367
0.00288145
-0.00373917
-0.0123893
0.0905166
0.01292
-0.0966484
0.0172957
0.0407957
-0.0306959
0.0194259
0.0229406
0.0917519
0.0540766
0.0203649
-0.0250593
0.00744915
-0.0730828
0.00513174
0.093229
-0.022698
-0.0548028
0.0832745
0.0400865
-0.0593458
0.0750993
0.0428014
0.0594786
0.0724749
0.0418457
0.0393656
-0.141052
0.191122
0.294197
-0.292966
-0.1954
-0.238711
-0.0734513
-0.164953
-0.0711863
0
0
0
0
0
0
-0.0608941
0
0
0.0872287
0
-0.146713
-0.218313
-0.0718673
-0.110115
0
0
0
0
0
0
0
0
0
2.93485e-06
0
3.63504e-06
0
4.2078e-05
-2.80735e-06
1.64466e-05
0
-0.000151083
0.000101814
7.8906e-06
0
-6.15532e-06
0
0
0
0
0
0
0
0
0
0
0
0
0
0
0
0
0
-0.0905819
0.02324
0.0640835
-0.0828653
-0.0313532
-0.0396438
-0.0302286
-0.0521356
-0.0564917
0.00863501
-0.089247
0.0494109
0.0211485
-0.0537289
0.072211
0.0120529
-0.0829465
-0.0517814
0.0236499
-0.0357957
0.0739522
0.0185933
-0.0481131
0.0514378
0.015764
-0.0401017
-0.0506084
0.00793341
-0.0474306
0.0575766
0.00264323
0.0564399
-0.0461906
0
0
0
0
0
0
0
0
0
2.40107e-06
0
0
0
0
0
0
0
0
0
0
0
0
0
0
0
0
0
0
0
0
0
0
0
0
0
0
0
0
0
0
0
-0.122321
0
0.147814
0.480293
-0.0185569
0.0184287
0.198525
0.390634
-0.0134783
0.0914289
0.142925
0.030445
0.0476299
0.0547898
0.0399201
0.0330893
-0.00103428
-0.0410471
0.0183783
-0.0207848
-0.0449406
0.00944141
-0.0267188
0.0550842
-0.0188353
-0.0457482
-0.0462325
-0.0233805
-0.0617284
0.0663009
1.91469e-05
0
0
3.73882e-05
-1.68254e-06
0
0
2.23173e-05
0
0
0
0
0
0
0
0
0
0
0
0
0
0
0.00140884
-0.0537497
-0.0606011
-0.00476726
-0.0545828
-0.0481826
-0.00389792
-0.0465017
0.0387849
-0.00950876
-0.0522201
0.0422436
-0.0153365
-0.0717129
0.0544844
-0.00480286
-0.0804738
-0.0697999
-0.0424293
-0.0973558
0.0644537
-0.000615609
-0.124562
-0.108352
-0.0689888
-0.110958
-0.056091
-0.0522032
-0.124594
0.0739584
-0.0412833
-0.062311
0.0459608
-0.0414755
-0.100269
-0.0649536
0.00282462
-0.0718805
0.0741584
-0.00678435
-0.081292
-0.077667
-0.00826525
-0.0818685
0.0743171
-0.018398
-0.0784155
-0.0574078
-0.0703855
0.059898
-0.0297505
-0.0663533
-0.0124454
-0.0741793
-0.0596443
0.0119294
-0.00786899
-0.0560088
0.0528572
-0.0614513
-0.00846371
-0.0595557
-0.0959624
-0.0250572
-0.0662332
-0.0879368
-0.00707525
-0.0418059
-0.104976
0.0596692
-0.0765427
-0.107633
0.0251915
-0.119048
-0.0463382
-0.0791129
-0.00402062
-0.0150571
-0.0778934
0.00941175
-0.0514742
-0.00307083
0.037096
0.0171171
-0.0230335
-0.0246737
-0.0340532
0.00145601
-0.0439183
-0.0222845
0.0170993
-0.0268654
-0.00383444
0.0193928
-0.00797609
-0.00694252
0.000515293
-0.0303642
-0.0405638
0.0289157
-0.0280952
-0.068044
0.0506729
-0.0743839
-0.0763037
-0.056155
-0.018082
-0.0269013
-0.0473873
-0.0335078
-0.0882895
0.0435954
-0.0222734
-0.0859351
-0.0436449
-0.0113961
-0.0758777
0.0484749
-0.00365592
-0.0664175
-0.0508355
0.0153716
-0.0610974
0.0544935
0.0253099
-0.0423239
-0.0574324
0.0274763
-0.0300212
0.0580869
0.0294428
-0.0278734
-0.0646029
0.0342407
-0.0356665
-0.0698422
-0.0194374
0.0554165
-0.0734174
-0.0365505
0.0532949
0.0670372
-0.0158575
0.0657252
-0.0883548
-0.0251118
0.0637894
-0.0792025
0.0589428
-0.0254234
-0.0893045
-0.0247206
0.0526382
-0.0911041
-0.0302318
0.0634532
-0.0904283
0.0258996
-0.0351943
-0.0788087
0.018879
-0.0493475
-0.0699235
0.043245
-0.0505271
-0.0675005
0.0568392
-0.0248121
0.058598
0.0522418
-0.00644615
-0.00659379
-0.055618
0.0524372
-0.0556463
0.0509443
0.00542412
-0.00740607
0.0428251
-0.00677847
0.0477822
-0.00984472
-0.047294
0.0417927
-0.0486066
0.00990459
-0.00738758
-0.0465007
0.0537955
-0.0515526
-0.00178402
-0.00716651
-0.0475417
0.0670326
-0.0547541
0.009942
0.00134897
0.0491828
-0.0531983
-0.0541454
-0.000120355
0.0129904
-0.0516338
0.0402031
-0.0519223
-0.0248106
0.00103936
-0.0461257
0.0351916
-0.0574652
0.00883232
0.00420364
-0.0508491
-0.0529928
0.0335408
0.0266422
-0.0372371
0.0530543
0.00650741
0.0251851
-0.0175254
0.00660358
-0.0253787
0.0036408
-0.00998489
-0.0267612
-0.00409071
0.0193661
-0.0686987
0.0129632
-0.0636196
-0.0984946
0.0328333
-0.0883717
0.064549
0.0173727
-0.0106955
0.070013
-0.122867
-0.0475456
0.107778
-0.0134669
-0.0642613
0.101566
0.0593099
0.0725383
0.076833
0.0484408
0.0770777
0.078253
-5.19878e-05
0.0462916
-0.494093
0.00304157
-0.200004
-0.167081
-0.276328
0.32585
-0.00673709
-0.206312
0.0881485
0
0
0
0
0
0
0
2.10083e-05
6.75237e-05
-0.116748
0
0
0
0
0
0
0
0
0
0
0
0
0.000106759
1.46353e-05
0
0
0
0
0
0
0
0
0
0
0
0
-3.88395e-05
0
0
0
0
0
0
1.01076e-05
0
-1.46447e-05
0
0
0
0
0
0
0
0
0
5.32329e-06
-4.65511e-06
-5.60932e-06
5.8411e-05
3.34391e-05
-8.77854e-05
0
0
-1.10459e-05
-4.01395e-05
0
0
0
-4.52857e-05
0
0
0
0
0
0
0
0
0
0
0
0
0
0
0
0
0
0
0
0
0
0
0
0
-0.0773896
-0.00277783
-0.0349628
-0.062473
-0.0727602
0.0430199
-0.0211311
-0.0884537
0.0520692
-0.019564
-0.0711869
-0.0698089
0.0227652
-0.0635972
-0.0718163
0.0190613
-0.0561046
0.0559673
0.018382
-0.058783
0.0518199
0.00052644
-0.00054827
-0.0449276
-0.0426219
0.00656935
-0.0437853
0.0626852
0.00549704
-0.0444376
0.0400078
0.0424908
-0.0379019
0
0
0
-2.8902e-05
2.9577e-05
6.76782e-05
0
0
0
0
0
0
4.9727e-05
0
-1.40714e-05
0
0
0
0
0
0
0
0
0
0
0
0
0
0
0
0
0
0
0
0.000340871
0.000690896
0.0724977
-0.00373417
0.0185806
0.420387
0.129769
-0.12386
0.14436
0.274259
0.0520613
0.0696671
0.0783835
-0.0327912
0.0459638
0.0349291
-0.0330687
0.0318721
0.0198226
-0.0497314
0.00356155
-0.0145756
0.0393539
-0.00304795
-0.0326601
0.046405
-0.0393284
-0.0815871
-0.0299593
-0.0448516
-0.02896
-0.0857381
2.44776e-05
0
0
-1.6201e-06
0
2.62082e-05
0
-6.04061e-07
0
3.50143e-07
0
-6.97598e-07
-4.0299e-08
0
0
0
0
0
0
0
0
0
0
0
0
0
0
0
0
0
0
0
0
0
0
0.00439428
0.0328049
-0.00679915
-0.00628245
-0.0445508
0.0370721
-0.0020918
-0.0350985
0.0348608
-0.00426269
-0.0367948
0.0398919
-0.0183191
-0.0567202
-0.048919
-0.0102713
-0.0653871
0.0552111
0.00110854
-0.0551024
0.0464045
-0.0172993
-0.125842
0.103766
-0.0541239
-0.134292
-0.0785242
-0.0425563
-0.119747
0.0840482
-0.0298054
-0.11931
-0.104749
-0.035765
-0.0798967
-0.0743589
-0.0234169
-0.115767
0.111056
0.00355909
-0.0642083
0.05905
0.00464423
-0.0782509
0.0733518
-0.0206713
-0.0773436
-0.0553983
-0.0292776
-0.0639744
0.0636835
-0.053889
-0.0539966
0.00446842
-0.0694933
-0.0550458
0.0120927
-0.075488
-0.0586464
0.0106167
-0.0516572
-0.0579789
0.00527266
-0.05229
-0.0434459
-0.00987142
-0.0529368
-0.046801
0.00833931
-0.0547853
-0.052564
0.0054392
-0.0641455
-0.0549309
0.00726608
-0.0520123
-0.0508285
0.00887963
-0.0393256
-0.0586588
0.0220815
-0.030768
-0.0600065
-0.0302979
-0.0379586
-0.0598947
-0.0235956
-0.0554553
-0.00226703
0.0533169
-0.0442213
-0.00527378
-0.0590794
-0.040803
0.00928326
-0.0884506
-0.111065
-0.00225046
-0.066115
-0.0897022
-0.00789387
-0.0836935
-0.11092
0.0450629
-0.112754
0.000109399
-0.129154
-0.129989
-0.0682441
-0.0839488
0.0016075
0.0162124
0.113083
-0.0610845
-0.0115536
0.0635624
-0.0283117
-0.0487283
0.0244198
-0.0419323
-0.0166929
-0.0217034
-0.0216433
-0.0039918
0.0202874
-0.016312
0.0159642
-0.0264566
-0.0221604
-0.0393281
-0.00451249
-0.0368995
-0.0395718
0.0291987
-0.0311275
-0.07934
-0.0493416
-0.0761955
-0.0969102
0.0397235
-0.0210059
-0.0355185
-0.0429452
-0.0390391
-0.0747874
0.0376077
-0.0314495
-0.0775738
0.041309
-0.0151139
-0.0802341
-0.0443368
-0.00357566
-0.0667854
0.0468833
0.0194701
-0.0562469
-0.048845
0.0296714
-0.0350946
0.0494224
0.0287914
-0.0232471
-0.0523023
0.0272348
-0.0286909
0.0596069
0.0328915
-0.0342176
-0.0625891
-0.0187671
0.0463442
-0.0672746
-0.0293626
0.0486116
0.0599395
-0.0218618
0.0603712
0.0851638
-0.0261999
0.0571655
-0.0755557
0.0547652
-0.0266617
-0.085359
-0.0227789
0.048035
-0.08277
-0.0280252
0.0612088
0.0853427
0.0214937
-0.0258466
-0.0671929
0.0162841
-0.0391835
0.0640906
0.0388141
-0.0448826
-0.0580641
0.0507424
-0.0189031
-0.0549959
0.0556464
-0.00618088
0.0398075
0.0494213
-0.0101096
0.0502959
0.0399667
-0.0103123
-0.0424337
0.0437296
-0.00301619
-0.0426442
0.0518122
0.000174527
-0.0452257
0.0652206
0.00718054
-0.0453295
0.055302
0.014005
-0.0442796
0.0407039
0.0145188
-0.0432433
0.0362368
-0.031933
0.0411358
0.0393044
0.0446927
-0.0450245
0.0388581
-0.0122777
-0.0418356
-0.0522441
0.0358215
-0.0492353
-0.00862449
-0.00335205
0.0488547
-0.0380335
-0.0480448
-0.0107846
-0.044797
-0.0119588
0.0396791
0.0751244
0.0563445
0.10255
0.0171963
0.090912
-0.0931775
0.0118212
0.0769476
0.0410741
-0.0295527
0.0728783
-0.0670857
-0.101479
0.0461891
0.0952748
-0.0710341
0.0184103
0.125116
0.105858
-0.028819
-0.0234168
0.10069
-0.181246
-0.115297
0.0911909
0.0317886
0.100078
0.0701117
0.0368181
-0.0355394
-0.055047
0.0598682
-0.0389765
0.057578
0.0240517
0.0793258
-0.143809
0
0
-0.0400329
-0.02454
-0.0955498
-0.0462957
-0.164091
0.361438
0
0
0
-9.26163e-06
0
7.4892e-05
0
-2.28663e-05
0
0
0
0
0
0
0
0
8.59321e-06
0.000159329
0
0
0
0
7.54696e-05
0
0
0
0
0
0
0
0
-3.36423e-08
-6.75534e-07
0
0
0
0
0
0
0
0
0
0
-1.92794e-05
0
0
0
0
1.4193e-05
0
0
-1.18424e-05
-1.13453e-05
-5.23539e-07
0
0
0
0
0
0
0
0
0
0
0
0
0
0
0
0
0
0
0
0
0
0
6.42299e-07
0
0
0
0
-0.0976622
-0.0466637
-0.0209697
-0.0786182
-0.0452523
0.0482492
-0.00773962
-0.068766
0.0517844
-0.00855719
-0.102588
0.036959
0.00953225
-0.0692334
0.0561301
0.0134182
-0.0458155
-0.0615173
0.00545389
-0.050529
-0.0422434
0.00076033
-0.00802524
-0.0241084
-0.0389342
0.00091354
0.0296906
0.0335346
0.00758229
-0.0371222
0.0494803
0.0314154
-0.0311035
-4.43592e-05
0
-1.09256e-05
6.90317e-05
-1.77626e-05
-3.13857e-06
0
0
0
0
0
0
0
0
0
0
0
0
0
0
0
0
0
0
0
0
0
0
0
0
-0.000349652
0
0
0.0439441
0
0.0329492
0.277038
-0.0634036
-0.101468
0.343405
-0.113968
0.171589
0.0965848
0.223429
0.0451105
0.0819491
0.05221
-0.0421785
0.0431313
0.0298997
-0.0418385
0.0415211
0.0215564
0.0455316
-0.00471203
0.00035729
-0.0432923
0.00838539
-0.0483088
-0.0454584
-0.0408276
-0.0150446
0.00506932
0.0911875
-0.0333404
0.0306057
0
0
0
0
0
0
0
0
0
0
2.92628e-07
0
0
0
0
0
0
0
0
-0.00669921
0
0
0
0
0
0
0
0
0
0
0.00473919
0
0.00252885
0
0
0
0
0
0
0
0
0
0
-0.00583853
0
-0.00223683
-0.0230901
0.0244254
0.00160827
-0.0171727
-0.0306529
-0.00746297
-0.0331542
0.0385815
-0.00645269
-0.0463125
-0.0462799
-0.0109664
-0.019757
-0.00300532
-0.00623524
-0.0033249
-0.0350866
0.0325769
-0.00383394
-0.0397713
-0.0344358
-0.0457523
-0.128449
0.0805537
-0.0260129
-0.118354
-0.0891908
-0.0123956
-0.116004
0.109583
-0.0356248
-0.13764
0.116641
-0.00973427
-0.0953876
0.112562
-0.0342529
-0.11939
-0.0933123
-0.00498212
-0.0596896
0.0539638
-0.022032
-0.0668714
-0.0255674
-0.0266319
-0.0594405
0.0417106
-0.0127667
-0.0825498
-0.0948152
0.0276017
0.0467349
0.00997492
0.0217789
-0.0351768
-0.00422478
0.00318571
-0.000425299
-0.0093214
-0.0229118
0.0033356
-0.00257393
0.00652321
-0.0162846
-0.0188434
-0.020992
-0.0451635
-0.0458966
-0.00587702
0.0446384
-0.000649691
-0.0292944
-0.00142704
0.0397379
-0.0420954
-0.00777631
-0.024952
-0.00930669
0.0367791
-0.0428114
0.0217412
-0.0115217
0.0385532
-0.012243
-0.0383564
-0.0230334
-0.0368245
-0.0485763
-0.0134476
-0.0408491
-0.0518459
0.00961622
-0.0433979
-0.0466986
-0.000358116
-0.0535185
-0.0475629
0.00679347
-0.0669765
-0.0527539
0.00782667
-0.080768
-0.0599119
-0.00606648
-0.047891
-0.0562003
0.00776776
-0.0498276
-0.0502746
-0.00893526
-0.0492965
-0.0430827
-0.0136421
-0.0644025
-0.0567193
0.0127112
-0.0473176
-0.0532359
-0.0137279
-0.0331049
-0.0627485
-0.0301868
-0.0263583
-0.0597802
-0.041995
-0.0349843
-0.0708951
-0.0281814
-0.0488999
-0.0673581
-0.0191593
-0.0570417
-0.042552
-0.0139414
-0.0629516
-0.0418193
-0.0153676
-0.111293
-0.0828995
0.00928923
-0.128022
-0.114436
-0.0986819
-0.0233439
-0.0709361
-0.0917203
0.00888536
-0.135364
-0.0153491
-0.103196
-0.155284
-0.0237057
0.125141
0.0344493
0.03294
-0.00844269
-0.040358
0.0402758
-0.00695725
0.0407812
0.0297299
0.00195999
-0.0334175
0.0266463
-0.00387703
-0.0328121
0.0287945
-0.00412726
-0.0208582
0.0147561
0.00846181
-0.0132384
-0.00184219
0.00211132
0.00658886
0.00382778
-0.016544
0.000795225
0.0132922
0.0352697
0.0406511
-0.0819696
-0.0867588
0.00918707
0.0577443
-0.0554965
-0.0421067
0.0309792
-0.0211001
-0.00287614
0.0231163
-0.00232193
0.0213908
-0.0190036
-0.028545
-0.0153865
-0.00292988
-0.0299722
-0.0418235
0.000637203
-0.0566174
-0.0472904
-0.0435386
-0.0309439
-0.0984367
0.0233199
-0.0599976
-0.063194
0.0374079
-0.0135341
-0.0311737
-0.0399055
-0.0370266
-0.063392
-0.0392813
-0.0325657
-0.0717111
0.0394459
-0.0122992
0.0333602
-0.0681999
0.00144124
-0.0493617
0.0445377
0.0240521
-0.0444767
-0.0435485
0.0348074
-0.0215411
-0.0460738
0.0327307
-0.0163372
0.053075
0.0289498
-0.0232883
0.0556334
0.029008
-0.0275947
0.0556702
-0.0131899
0.0468267
-0.0650204
-0.0273253
0.0464035
-0.0498576
-0.0216426
0.0517194
0.0779844
-0.0221007
0.0547391
-0.0706883
0.0484785
-0.0261379
-0.0774472
-0.0153829
0.0438354
-0.0656996
-0.0239951
0.0504625
0.0661949
0.020686
-0.0140422
0.0542341
0.011761
-0.0306542
-0.0570966
0.0367417
-0.0426332
-0.0491406
0.0595327
-0.0126333
0.0398013
0.04105
-0.0192423
0.0537288
0.0318128
-0.01343
-0.0393929
0.0405827
-0.00506264
-0.0367778
0.046938
0.0050721
-0.0387217
0.0526627
0.00509683
0.0430477
0.0625301
0.00997247
-0.042872
0.0449671
0.0169764
0.0386672
0.0428533
-0.004056
0.0343861
0.0479816
0.0567059
-0.0332643
0.0285966
-0.0778776
0.0500569
0.0435756
0.0539272
0.0379267
0.0459465
-0.0259513
0.0155197
-0.00594765
-0.0716985
0.154851
0.0368157
0.134336
-0.142485
0.0208108
0.172187
-0.0937176
0.0174439
0.125818
-0.0861019
-0.0727356
0.0756875
0.0861472
-0.0745203
0.018421
-0.139395
-0.0775382
0.019629
0.0825009
0.136204
-0.194066
-0.297415
0.031987
-0.263789
-0.111425
0.0216915
0.00417358
0.0962276
0.0473695
-0.039717
-0.0769639
-0.178486
0.127928
-0.499783
-0.10316
-0.114576
0
-0.0197073
0.000263168
1.80282e-05
0
0.0689701
0.0536373
-0.0522705
-0.11436
-0.00901009
-0.0887733
0
0
0
0
0
0
0
0
0
0
0
0
0.000463194
0
0.000120219
0
0
0
0
0
0
0
0
0
0
0.00312489
0.00194569
0
0
0
0
0
0
0
0
0
0
0
0
0
0
0
0
0
0
0
-7.46431e-06
1.48515e-05
-1.23671e-05
0
0
0
-0.000113217
9.37059e-05
0
0
0
0
0
0
0
0
0
0
0
0
0
0
0
0
0
0
0
0
0
0
0
0
0
0
0
8.40231e-06
0
-3.73208e-05
0
0
0
-7.32108e-06
0
1.47412e-05
0.0162207
-0.0134634
-0.0015214
0.0103077
0.00507096
-0.0231808
-0.0141371
-0.0264307
-0.0589198
-0.0430769
0.0237825
-0.0665843
-0.0120624
-0.0296169
-0.0076787
-0.0498878
0.0494316
0.00429
-0.0578369
-0.0474142
-0.00352016
-0.0536898
0.02378
0.000897435
-0.0330982
0.0503126
0.000172365
-0.0275577
-0.0260095
-0.00223285
0.0111661
-0.0337054
-0.000136766
0.0180974
0.0243081
-0.0238516
0.0227477
3.93192e-06
0
0
0
0
0
0
0
0
0
0
0
0
0
0
0
0
0
0
0
0.257276
0.267767
-0.0647385
0.16689
0
0
0
0
0
0
0
0
0
-0.00722153
0
-0.0292685
0.186641
-0.103213
0.10427
0.093295
0.0915816
0.0708231
0.208362
-0.0392731
0.0711531
0.0305038
0.0341111
-0.0498803
-0.0962514
-0.0173637
-0.0770944
0.0775212
0.0371856
-0.0283006
0.0404084
0.0200011
-0.0297426
0.0277642
0.0190328
0.032451
-0.0167754
0.000974492
-0.0395605
0.0345745
-0.0239991
0
0
9.19479e-06
7.96877e-07
0
0
0
0
0
0
0
0
0
0
0
0
0
0
0
0
0
0
0
0
0
0
0
0
0
0
0
0
0
0
0
0
0
0
0
0
0
0
0
0
0
0
0
0
0
0
0
0
0
0
-0.00701694
-0.0190642
-0.0132016
-0.006364
0.000236529
-0.0086626
0.0131472
0.0017063
-0.015097
0.0231347
0.00300464
-0.0276607
0.0361186
0.00493626
-0.0104202
-0.0193898
-0.00366457
-0.0037264
0.00611144
-0.00989954
-0.0167827
0.0185486
-0.0168576
-0.0184521
-0.0294928
-0.0161396
-0.119571
0.0887515
-0.00759542
-0.124206
0.112033
-0.0251685
-0.138882
0.112854
-0.00703241
-0.151141
-0.146944
-0.0349233
-0.113568
0.0826032
-0.0181354
-0.112917
-0.0950151
-0.0396026
-0.0319578
-0.0189161
-0.0219945
-0.0435744
-0.00743889
-0.0182973
-0.0733422
0.0546162
-0.0124719
-0.0545791
0.0844039
-0.0354987
-0.0454091
0.000879212
-0.0138531
-0.0355321
-0.012005
-0.0167544
-0.0118613
0.00517513
0.0301094
-0.0248614
-0.0195854
-0.0332348
-0.0485063
0.0106106
-0.0195532
-0.0417097
-0.0220938
-0.0189264
-0.0454121
0.0156718
-0.0434368
-0.0387571
0.00627832
-0.0415145
-0.0520895
0.0101158
-0.04881
-0.0535485
0.00133905
-0.0365005
-0.0508542
0.0126339
-0.05558
-0.0377781
0.016173
-0.0659275
-0.0480013
-0.00984458
-0.0846476
-0.058319
0.0108046
-0.0388652
-0.0603921
-0.0154524
-0.0568573
-0.0771222
0.0162369
-0.0414901
-0.0513732
-0.0161451
-0.0251892
-0.0598733
-0.0431943
0.0206391
-0.0570357
-0.0383923
-0.0167518
-0.024936
-0.0585467
-0.032536
-0.0266728
-0.0689951
-0.0484363
-0.0338063
-0.0730085
-0.0390781
-0.0486486
-0.0710902
0.0258447
-0.0464297
-0.0752602
0.0147005
-0.0524122
-0.0358453
0.0134847
-0.0788882
-0.0495741
-0.0176731
-0.0918739
-0.115139
-0.0456943
-0.113485
-0.0782167
-0.0181575
-0.138732
-0.0969096
-0.0357941
-0.0689041
-0.0967343
-0.0218097
-0.132431
-0.0714112
0.0682267
-0.146305
-0.057401
-0.0919335
0.0340336
0.0231726
0.0255958
0.0361637
0.0334015
-0.0109157
0.0359502
0.0379223
-0.0334287
-0.000797525
0.0262178
0.00584876
-0.0245678
0.022391
0.000649428
0.0205709
0.0198554
0.00372205
-0.0109675
0.000581193
0.00824465
0.00082061
-0.0111182
0.000826746
0.0169371
-0.0204342
0.00331048
-0.0295029
0.0337423
0.00139625
0.0318857
-0.0251346
-0.0261555
-0.00378446
0.00678916
0.0322147
0.0298167
0.0225285
0.00898103
-0.00605738
0.0166419
0.0357461
0.0150193
-0.0227122
0.0369005
0.00678868
0.0206256
0.0176685
0.00385006
0.0139894
-0.00701354
-0.0262367
-0.0181841
0.00753001
-0.034053
-0.0350203
-3.37517e-05
-0.0275763
-0.0150175
0.0480497
-0.0125354
-0.0702182
-0.0250177
-0.0568422
-0.0523771
0.043851
-0.0159648
-0.0352242
-0.0404077
-0.0370019
-0.0593389
0.0360569
-0.031186
0.00048049
-0.0397926
-0.0570954
0.00541501
-0.0390707
0.00859695
-0.0326296
0.0434366
0.0280471
-0.0285352
0.0420085
0.0365691
-0.0201433
-0.04426
0.0377079
-0.0161546
0.0498039
0.0358451
-0.0153687
-0.0471646
0.0235736
-0.0124297
-0.0534674
-0.00566457
0.0486313
0.0616346
-0.0298378
0.0568109
0.0544106
-0.0194559
0.048028
-0.0712161
-0.0177878
0.0549147
0.0640587
0.0453499
-0.0219956
-0.0649328
-0.00899239
0.0366467
-0.0482707
-0.0151459
0.0409594
-0.0488156
0.020548
-0.00910577
-0.0453669
0.00245008
-0.0249948
-0.0469678
0.058084
-0.0451857
0.0313238
0.00551115
-0.0501766
0.0270716
-0.0201858
-0.0332465
0.0327295
-0.0049677
-0.0311345
0.0434443
0.00346217
0.0344935
0.0470212
0.0098632
-0.0376171
0.0512333
0.00762117
0.0394149
0.0520487
0.00747671
-0.0384593
0.0528
0.0149626
-0.0377724
0.0334273
0.0139558
-0.0390856
0.0423545
-0.0573937
0.0294182
0.0503382
0.115385
0.0203568
0.0422831
-0.0661816
-0.13165
-0.0164582
0
-0.0520064
0.0393828
-0.0671131
0.0573935
0.0879878
0.146492
-0.00928108
0.0654943
-0.011055
0.12426
0.00784913
0.0573091
0.00975226
-0.107626
-0.0330652
-0.109426
-0.0552954
-0.0422803
-0.111589
0.00112346
-0.0624292
0.0118026
0
0
0
-0.00559065
-0.405636
0.145989
-0.136733
-0.0934703
-0.143154
-0.203985
-0.0428674
0
0
-6.24313e-06
1.07744e-05
0
0
-1.29565e-05
-6.17485e-05
-0.000486759
-0.0739953
-0.000215026
0
-0.249244
0
0
-0.0903807
0
0
0
0
0
0
0
0
0
0
0
0
0.00377801
-0.00310794
0.000126957
0
0
0
0
0
0
0
0
-0.00606666
0
-0.00196844
0
-0.0131182
0
0
0
0
5.04202e-06
0
-2.86985e-05
0
0
0
0
0
0
0
0
0
-4.29401e-05
-2.01255e-05
-6.45336e-05
0
9.12285e-06
0
-4.89048e-05
-7.73906e-05
2.6951e-05
0
-9.01146e-05
0
0
0
0
8.10621e-06
0
-5.71305e-05
0
-1.03582e-05
-1.83142e-05
0
0
0
0
0
0
0
0
0
0
0
0
0
0
0
0
0
0
0
0
0
-4.31349e-06
0
6.20745e-06
0
0
0
-3.83766e-05
0
0
0
0
0
0
0
0
0.0127406
-0.00171676
-0.0703265
-0.0307714
0.0159683
-0.0137706
-0.0275412
0.0364903
0.00565012
0.0472941
-0.0397798
-0.0124385
-0.00154143
0.0301283
-0.0923663
-0.0380951
-0.0109162
-0.0704934
-0.0544838
0.010596
-0.0303755
-0.0539333
0.000415243
-0.00600116
-0.0135314
-0.0164816
-0.00647271
-0.00949702
0.0201358
-0.0132273
-0.0104604
0.00681601
-0.0124086
0.00334329
-0.00963845
-0.00977752
-0.00105304
0.0210044
-0.00813877
-0.0045422
0
0
0
0
0
0
0
0
0
0
0
0.24329
0.21807
0.0400609
0.17171
0
0
0
0
0
0
0.161089
0.0784642
-0.155661
0
0
0
-2.86857e-07
0
5.61416e-07
0
2.73921e-07
0
0.0058877
0.0329193
0.0399359
0.0503123
0.128081
-0.0703979
-0.0551767
-0.0439465
0.0419913
0.065943
0.189988
-0.0172347
0.0646793
0.0425572
-0.0212061
-0.0396317
0.00161349
0.051729
0.045426
0.0511832
0.0225712
0.0270771
0.0453155
-0.00689628
-0.0192972
-0.0142031
-0.00949095
-0.0266954
-0.0316237
-4.70786e-08
0
0
7.16058e-07
0
-7.73132e-06
0
0
0
0
8.3079e-09
0
-2.02576e-06
0
2.03827e-06
0
0
0
0
0
0
0
6.84016e-05
0
1.34027e-05
-4.93426e-05
1.87729e-05
3.00978e-05
0
0
0
0
0
0
0
0
0
0
0
0
0
0
0
0
-6.94764e-06
6.62014e-05
0
0
0
0
0
0
0
0
0
0
0
0
0
0
0
0
0
-1.99244e-05
0
2.26949e-05
-0.0107696
-0.0157375
0.00284894
-0.0119981
-0.00521636
0.00977776
-0.0128723
-0.00158945
-0.00532315
0.00524543
0.0024958
-0.0163571
-0.015782
0.00543891
-0.000829818
-0.00650054
0.00297723
0.00296666
-0.0132751
0.00207556
-0.00823471
0.00982148
-0.00885463
0.00606321
-0.00797858
-0.00947076
0.0307112
-0.00505795
-0.0188645
-0.120599
0.10702
-0.0423088
-0.131378
-0.092947
-0.00716951
-0.124165
0.113097
-0.0417124
0.100771
-0.124127
-0.0169818
-0.085072
0.0908194
-0.0127217
-0.091848
-0.0921286
-0.0370733
-0.0143541