/*--------------------------------*- C++ -*----------------------------------*\
  =========                 |
  \\      /  F ield         | OpenFOAM: The Open Source CFD Toolbox
   \\    /   O peration     | Website:  https://openfoam.org
    \\  /    A nd           | Version:  8
     \\/     M anipulation  |
\*---------------------------------------------------------------------------*/
FoamFile
{
    version     2.0;
    format      ascii;
    class       volScalarField;
    location    "16260";
    object      alpha;
}
// * * * * * * * * * * * * * * * * * * * * * * * * * * * * * * * * * * * * * //

dimensions      [0 0 -1 0 0 0 0];

internalField   nonuniform List<scalar> 
526318
(
0.000100957
0.000385297
0.000164011
0.000502401
0.000265006
0.000284375
0.000751777
0.000416965
0.000502783
0.00109301
0.000177069
0.000216774
0.000202376
0.000687805
0.00056256
0.000472819
0.000149513
0.000130184
0.00035963
0.000307854
0.00041971
0.000271826
0.000957884
0.000811895
0.000392301
0.000552612
0.000247798
0.000805604
0.000417564
0.0004955
0.000417466
0.000299074
0.000210516
0.000399537
6.17788e-05
0.00101324
0.000351362
0.000260984
0.00100595
0.000449253
0.000511186
0.000244138
0.00109914
0.000453502
0.000756196
0.00152322
0.000720892
0.000768928
0.000421055
0.00065189
0.000128309
0.000653437
0.000593118
0.000605502
0.00327612
0.000627933
0.00127422
0.00173577
7.03137e-05
0.000297341
0.000629095
0.000419273
0.000369697
0.00012833
0.000155618
0.000263976
0.000220576
0.000305978
0.000287815
0.000173291
0.000212719
0.000238715
0.000420069
0.000310838
0.000459588
0.000222383
0.000120517
0.000545401
0.000381801
0.00072674
0.000136607
0.00075896
0.00027257
0.000384379
0.000447488
0.000214384
0.000489377
0.000588595
0.000145209
0.000349156
0.000360962
0.000358546
0.000526024
0.00026373
0.00124779
0.000803295
0.000652782
0.000505659
0.000415974
0.000527199
0.0260669
0.0202462
0.0132026
0.00396609
0.00896476
0.0156892
0.0022949
0.00154199
0.0014948
0.000156193
0.000354681
0.000950217
0.000737467
0.000292486
0.000370937
0.000701853
0.000316917
0.000285678
0.000175265
0.000713793
0.000739581
0.00063394
0.000656321
0.000524561
0.000405669
0.000622533
0.000491314
0.000624986
0.00049816
0.000626494
0.000739782
0.000827492
0.000594023
0.000913761
0.000852902
0.00115525
0.00111336
0.000993759
0.00113694
0.00122937
0.00134604
0.00121704
0.00119343
0.00109583
0.0011796
0.00109995
0.00115701
0.00126901
0.00111416
0.00122069
0.00116145
0.00127069
0.00122235
0.00108226
0.00126174
0.00093147
0.000909138
0.000820332
0.00137017
0.00106212
0.000740922
0.000752114
0.000599133
0.000228755
5.47688e-05
0.000363519
0.00038589
0.000437345
0.000172692
0.000166815
0.000373891
0.000390938
0.000620581
0.000412134
0.000358112
0.000483563
0.000452298
0.000888069
0.000569006
0.000489162
0.000650316
0.000424586
0.00080308
0.000702171
0.000606377
0.000966565
0.000813038
0.000895564
0.000919242
0.0010599
0.00115191
0.0011121
0.00122885
0.00113136
0.00110136
0.0010781
0.000997187
0.00103608
0.00102203
0.000791734
0.000913789
0.000461229
0.000650153
0.000727117
0.000497547
0.000656409
0.000993311
0.00106647
0.000755133
0.000960989
0.000526329
0.000124834
0.000555283
0.000162346
0.00125789
0.000144618
0.000416092
0.000203523
0.000667247
0.000964232
0.0011611
0.00106699
0.000329028
0.000369031
0.000780727
0.000577674
0.000324181
0.000699019
0.000683096
0.00101258
0.0207406
0.00315764
0.000376609
0
0
0.414597
0.0212042
0.0268605
0.0237392
0.000372898
0.000355946
0.000528599
0.000354219
0.000175489
0.000211326
2.5959e-05
0.000294898
0.000334352
0.000453468
0.000570825
0.000348575
0.000369656
0.00036248
0.00033394
0.000459297
0.000543162
0.000298414
0.000811148
0.00060615
0.000773082
0.000419779
0
0
0.309927
0
0.0201679
0.0198492
0.014042
0.00681381
0.00198166
0.00270047
0.00138322
0.000561158
0.000359373
0.000743672
0.000141744
0.000622847
0.00045769
0.000342721
0.000407813
0.000467516
0.000647869
0.000705855
0.00048902
0.000645893
0.000800918
0.000513813
0.00104628
0.000750576
0.00119628
0.00118242
0.0010363
0.00123821
0.00109617
0.00133822
0.00131374
0.0011963
0.00114924
0.00143289
0.00171692
0.00133817
0.00152813
0.00148951
0.00130945
0.000929073
0.00133947
0.00100341
0.00108638
0.0014569
0.00131066
0.00142411
0.00171673
0.000887802
0.00209326
0.00183083
0.00141886
0.00166006
0.00169319
0.00156835
0.00156925
0.000488534
0.00044538
0.000801118
0.000313576
0.000228272
0.000762478
0.000307316
0.000411057
0.000122257
0.000164844
0.000340386
0.000381137
0.000774847
0.000382137
0.000859882
0.000562
0.000757668
0.000679818
0.000800991
0.000626699
0.00102842
0.000844248
0.000893145
0.000973214
0.00103749
0.0010667
0.00117277
0.00109097
0.00109627
0.00113097
0.00103906
0.00102271
0.000978071
0.000948245
0.0008822
0.000813757
0.000609049
0.000561139
0.000554521
0.000886269
0.000679709
0.00044046
0.000901403
0.000748801
0.000700695
0.0009039
0.000811015
0.000999972
0.00128437
0.00143637
0.00126227
0.00100535
0.00104065
0.00111323
0.00114463
0.00108918
0.00104749
0.00035954
0.000772731
0.000263603
0.000149755
0.00218129
0.000235998
0.000647408
0.00130474
0.000136244
0.000554055
0.000629241
0.00221215
0.0011078
0.00264209
0.00054664
0.000524047
0.000424202
0.000758732
0.000705309
0.000681592
0.000754687
0.00041296
0.0437973
0.012043
0.00489902
0.0116968
0.00184644
0.00328262
0
0
0
0
0
0
0
0.0152038
0.0808583
0.0362517
0.00031207
0.000462815
0.00037695
0.000412623
0.000561441
0.000234633
0.000132862
0.000322893
0.000125969
0.000809554
0.000410055
0.000497394
0.000338325
0.000613667
0.000264732
0.000428074
0.000507492
0.000398113
0.000519275
0.000659598
0.000567375
0.00080957
0
0.000123956
0.000478217
0
0
0
0
0.00031767
0.000509187
0.000636534
0
0
0
0
0
0
0
0
0
12.067
0.0144006
0.0533908
0.0121839
0.00695468
0.00299986
0.00603534
0.00139169
0.00139881
0.000168074
0.00081136
0.000734894
0.000202773
0.00029275
0.000362234
0.000204532
0.000447622
0.000133784
0.000363892
0.000729415
0.000729387
0.000756197
0.000573239
0.00055975
0.000935985
0.00111396
0.00092244
0.00102796
0.00118015
0.00107913
0.00106256
0.00151497
0.00185868
0.00149798
0.00145627
0.00163413
0.00122897
0.00173762
0.00208588
0.00112068
0.00300606
0.00180246
0.00113035
0.00153816
0.00162314
0.00185759
0.00164056
0.00162568
0.00163368
0.00149556
0.00112893
0.00107742
0.00111226
0.0011394
0.00107018
0.000820997
0.000913039
0.000982571
0.00136996
0.00128864
0.00120458
0.00123516
0.0017729
0.00195615
0.000742545
0.000924703
0.000931064
0.000260763
7.28558e-05
0.000585421
7.93167e-05
0.000247122
0.000226223
0.000167201
0.000144055
0.000230093
0.000151402
0.000412033
0.000246051
0.000807308
0.00113064
0.0005033
0.00123417
0.00101266
0.000781077
0.000654014
0.00109822
0.000807106
0.00102975
0.000975089
0.00106531
0.00101894
0.00104525
0.0010804
0.00101852
0.00108358
0.00102195
0.000973345
0.000900399
0.000900063
0.000589484
0.000704005
0.000547169
0.000495799
0.000614715
0.00089937
0.000519993
0.000734598
0.000694392
0.000854889
0.000839688
0.000637313
0.000969598
0.000924115
0.000906994
0.000911962
0.00091175
0.000885618
0.000914753
0.000955485
0.0007688
0.000884049
0.000741025
0.000693518
0.000694506
0.000626915
0.000961149
0.000253562
0.000892154
0.0019344
3.20109e-05
0.000398631
0.000724589
0.000758934
0.000866821
0.000903783
0.000569497
0.000971996
0.000739042
0.000973629
0.00170806
0.00107003
0.000245074
0.000515096
0.00114873
0.00173934
0
0.146792
0.00180128
0.0380273
0.000766026
0.00126094
0
0
0
0
0
0
0
0
0
0
0
0
0
0
0
0
0
0
0
0
0.00648467
0
0
0
0.0023443
0.00698493
0
0
0
0
0
0
0
0
0
0
0
0
0
0
0.000224114
0.000200851
0.000295469
0.000284844
0.000402404
0.000305633
0.00044234
0.000269362
0.00015125
0.000576923
0.000549034
8.36492e-05
0.000363685
0.000583521
0.00039806
0.000399017
0.00032363
0.00041438
0.000563134
0.000522537
0.000685411
0.000661113
0
0
0
0
0
0
0
0
0
0
0
0
0
0
0
0
0
0
0
0
0
0
0
0
0
0
0
0
0
4.98147
0.0069849
0.0346192
0.00425311
0.0046686
0.00183396
0.00275587
0.00107284
0.00078077
0.000204157
0.000788547
0.000285536
0.000525211
0.000444625
0.000163234
7.94516e-05
0.000317135
0.000211954
0.000118713
0.00274784
0
0
0
0
0
0
0
0
0
0
0
0
0
0
0
0
0.000696963
0.000643448
0.000504979
0.000715356
0.00104912
0.000581205
0.00119048
0.00113137
0.00110551
0.00116335
0.00102816
0.00153917
0.00204262
0.00181121
0.00191019
0.00205766
0.00191929
0.00223515
0.00247449
0.00189352
0.00205463
0.00196342
0.00195764
0.00193745
0.00162304
0.00103351
0.00106702
0.00150452
0.0020637
0.0010034
0.00213023
0.0026844
0.000618965
0.000701288
0.000536062
0.000554282
0.000706792
0.000816279
0.000429131
0.000359151
0.000306646
0.000272668
0.00132589
0.0011633
0.00108945
0.000858036
0.00132588
0.001577
0.00142591
0.00144568
0.0023671
0.00178626
0.00064694
0.00104661
0.000219304
0.000370422
0.00029111
0.000815038
0.000288656
0.000148998
6.98566e-05
0.000180739
0.000102066
0.00040317
0.000342281
0.000593483
0.000887905
0.000226373
0.00064008
0.000251977
0.000710285
0.0013078
0.00124873
0.001034
0.0011869
0.0011738
0.00109593
0.0010611
0.00103993
0.0010886
0.00114326
0.000988007
0.000974097
0.00101303
0.000873533
0.000954442
0.000686184
0.00077893
0.000590114
0.000513571
0.000528577
0.000629129
0.000514389
0.00074806
0.000669189
0.000495375
0.00078571
0.000897886
0.000514857
0.000799909
0.000840661
0.000878338
0.000794812
0.000846977
0.000719307
0.000864724
0.000718175
0.000654835
0.000576459
0.000540811
0.000547336
0.000532978
0.000315868
0.000390043
0.000247658
0.000213268
0.000165012
0.000202344
0.000107912
0.000202403
0.000141543
8.15376e-05
5.5999e-05
0.000108278
5.87613e-05
0.000130128
7.28827e-05
0.000116989
8.63399e-05
0.000124947
0.000127295
0.000100346
7.6861e-05
0.000114687
0.000139612
7.22088e-05
9.96156e-05
0.00011678
0.000147657
0.000119718
0.000138695
0.000136482
0.000154347
0.000183032
0.000127427
0.00017703
0.000144009
0.000180907
0.000183931
0.000213079
0.000181278
0.000153694
0.000191611
0.00191506
0.00126791
0.000405542
0.0012661
0.0013644
0.000215647
0.00132109
0.00112051
0.000225498
0.000284682
0.00185103
0.00243824
0.00393141
0.000918298
0.000906979
0.00329615
0.00262185
0.00225358
0.00314268
0.00194647
0.0032613
0.00556035
0.00228974
2.37558
0
0.00284469
0.00759002
0.00121135
0.0092848
0
0
0
0
0
0.00544397
0
0
0
0
0
0
0
0
0.00946183
0
0
0
0
0
0
0
0
0
0
0
0
0
0
0
0
0.00492618
0
0
0
0
0
0
0.0115119
0
0.00763546
0.0134709
0
0
0.0126673
0.0142929
0
0
0
0
0
0
0
0
0
0
0
0
0
0
0
0
0
0
0
0
0.000424348
0.000334083
0.000424103
0.000338564
0.000277256
0.00045901
0.00038123
0.000351364
0.000487282
0.000621455
0.000407493
0.000321309
0.000313571
0.000596465
0.000434459
0.000532367
0.000539967
0.000388435
0.000543099
0.000319153
0.000365649
0.000387114
0
0
0.00335392
0.00313486
0
0
0
0
0.00696486
0
0
0
0
0
0
0
0
0
0
0
0
0
0.00258345
0.00803369
0.0955084
0
0.0235237
0.00508927
0.00250855
0.00713355
0.0019185
0.000968103
0.000658765
0.000830704
0.000132597
0.000557944
0.000604007
0.000317392
0.000528874
0.000377211
0.000158266
0.000271325
0.000325936
0.000579771
0.00311507
0
0
0
0
8.45989e-05
0
0
3.54957e-05
0
0
0
0
0
0
0
0
0
0
0
0
0
0
0
0.52884
3.26675
0.000533223
0.000618486
0.000829943
0.000525641
0.00132074
0.000805512
0.00118126
0.00111781
0.00129727
0.00109272
0.00160949
0.00129747
0.00298167
0.00252894
0.00294798
0.00265797
0.00219393
0.00195724
0.00207882
0.00219626
0.00270145
0.00207085
0.00220043
0.00248007
0.00173945
0.00170897
0.00251686
0.00129108
0.00216069
0.00344241
0.00354596
0.00187927
0.000279823
0.000245648
0.000445749
0.000672819
0.000663605
0.000797385
0.000289563
0.00033983
0.000155103
0.000171359
0.000243161
0.000204792
0.000180631
0.000175541
0.000150097
0.000143431
0.000152597
0.000121297
0.000194157
0.000135891
0.0001593
0.000157034
0.000166827
0.000216359
0.000203045
0.00018486
0.000192388
0.00019731
0.000197708
0.000170804
0.00118749
0.00150919
0.0010201
0.000864206
0.00136829
0.00165943
0.00152245
0.00162853
0.00239106
0.00182004
0.00189174
0.000682166
0.00049144
0.000364527
0.000361457
0.000315344
0.000221228
0.00024065
0.00038137
0.000876313
0.000699809
0.000786925
0.0010488
0.000315405
0.00025669
0.000942204
0.000557558
0.000662229
0.00133942
0.00159128
0.00221663
0.00177741
0.00144125
0.00149787
0.00120143
0.00149588
0.00145939
0.00101099
0.000945086
0.00110871
0.000894776
0.000946297
0.00079667
0.000861092
0.000676542
0.000516428
0.000492339
0.000531897
0.000513982
0.000593109
0.000389262
0.000663875
0.000627579
0.000431915
0.000805855
0.000639724
0.000469729
0.000705273
0.000593754
0.00077918
0.000692801
0.00077595
0.000855052
0.000583925
0.000543669
0.000515817
0.000445717
0.00044499
0.000395885
0.000314387
0.000205858
0.000168473
9.88404e-05
4.1581e-05
0.000113968
3.97181e-05
2.4386e-05
5.97823e-05
6.40418e-05
5.28304e-05
8.7721e-05
5.20346e-05
0.000117248
9.2064e-05
0.000145597
0.000126566
0.000188837
0.000156869
0.000126816
0.000139884
0.000255325
0.000204561
0.000211641
0.000179667
0.000167853
0.000182621
0.000186531
0.000184392
0.00019093
0.000176969
0.000195939
0.000161762
0.000191824
0.00357737
0.00274836
0.0016087
0.000664942
0.00309506
0.00146435
0.00156169
0.000924051
0.00118827
0.00190911
0.00233915
0.0014272
0.000120862
0.00264891
0.00551896
0.0159306
0.00758741
0.00466539
0.0065507
0.00325729
0.0028259
0.00422816
0.00577985
0.00520141
0.000944834
0
0
0
0.0275947
0.0162627
0.0191052
0
0
0
0.00640458
0
0
0
0
0
0
0
0.0134667
0
0
0
0
0
0
0
0
9.06329e-05
0
0
0
0
0
0
0
0
0
0
0
0
0
0
0.00626363
0
0
0
0
0
0
0
0
0
0
0
0
0
0
0
0
0
0
0.000228381
0.000331843
0.000300069
0.00039855
0.000349432
7.94054e-05
0.000483616
0.000302784
0.000331364
0.000442729
0.000666433
0.000609956
0.000422358
0.00021803
0.000396096
0.000506632
0.000502489
0.000287863
0.000266282
0.00030885
0.000493047
0.000285435
0.00146136
0
0.00116239
0
0
0
0
0
0
0
0
0
0
0
0
0
0
0
0
0
0
0
0
0
0.0444857
0.0189904
0.00998034
0.00290062
0.000855333
0.00640294
0.00169238
0.000689122
0.000993832
0.00102728
0.000460008
0.00068471
0.000578391
0.000420166
0.000726508
0.000203231
0.000304481
7.75425e-05
0.000486002
0.00019397
0
0
0
0
0
0
0
0
0
0
0
0
0
0
0
0
0
0
0
0
0
0
0.488645
0
0
0
0
0
0
0
0
0.000683502
0.000738243
0.000669206
0.00109507
0.0010193
0.000699118
0.00061145
0.00105464
0.000319083
0.000492799
0.00060772
0.00146476
0.000284026
0.00122882
0.00164799
0.00330279
0.00266553
0.00299035
0.00249894
0.00217153
0.00208169
0.00255846
0.00255772
0.00212978
0.00243646
0.00283798
0.00220154
0.00160558
0.000619891
0.00115745
0.00279608
0.00404436
0.00141008
0.00248594
0.00465596
0.000215363
0.000192366
0.000177129
0.000206527
0.000165889
0.000178582
0.000156312
0.000156714
0.000140935
0.000126362
0.000152945
0.000114217
0.000166518
0.000127129
0.000195378
0.000200169
0.000205435
0.000178876
0.00020197
0.000200692
0.000232824
0.000192032
0.000208029
0.000233451
0.000232419
0.000209656
0.000202936
0.000229003
0.000208537
0.000177498
0.000191119
0.000205915
0.000199817
0.000182252
0.000206772
0.000295082
0.000238431
0.000357069
0.000522288
0.000757507
0.000526733
0.000314092
0.00025853
0.0001744
0.000213925
0.000202381
0.000291605
0.000156988
0.000147483
0.000145694
0.000176661
0.000164153
0.000158916
0.000143738
0.000203472
0.000170055
0.000195519
0.000191406
0.000231534
0.000206353
0.000230679
0.00021324
0.000183066
0.00108769
0.00137274
0.00159832
0.00165097
0.00144855
0.00077871
0.000855268
0.00172158
0.00135793
0.0018609
0.00298074
0.000147404
0.000145493
0.000144217
0.000161591
0.000162611
0.0001597
0.000174322
0.000172334
0.000184835
0.000162879
0.000164233
0.000135068
0.000125567
9.973e-05
8.9255e-05
0.00011593
9.19732e-05
7.23612e-05
0.001184
0.00150671
0.00244178
0.00037249
0.00195981
0.000703074
0.000651962
0.00117216
0.00162681
0.000714915
0.000715695
0.00199622
0.00131886
0.00227626
0.00427404
0.00336686
0.00233338
0.00407184
0.00138465
0.00252561
0.0014822
0.00139399
0.00149296
0.00127029
0.00111762
0.00153828
0.00108686
0.00127952
0.000992798
0.000992759
0.000998111
0.000901229
0.000811815
0.000627423
0.000509854
0.000551184
0.000508892
0.00049376
0.000472345
0.000485439
0.000427751
0.000676721
0.000401255
0.000522338
0.000642813
0.000518345
0.000462582
0.000606677
0.000496054
0.000692999
0.000451609
0.000614522
0.000609883
0.000460894
0.000441768
0.000351138
0.000354005
0.000352936
0.000189935
0.000220634
7.23226e-05
8.7813e-05
0.000204964
8.37195e-05
1.52192e-05
4.49267e-05
2.7523e-05
5.46908e-05
5.37961e-05
3.66395e-05
7.42566e-05
9.91076e-05
0.00015405
0.000123558
0.000125938
0.000156962
0.000134641
0.000150671
0.000229685
0.000187485
0.00010099
0.000219871
0.000173917
0.000240309
0.00016515
0.00492151
0.00217406
0.00496116
0.00184363
0.003764
0.00836341
0.00663912
0.00141677
0.00159116
0.00261847
0.00293687
0.00320057
0.00352675
0.00282417
0.000820452
0.0407557
0.0165148
0.00143478
0.00925987
0.00643174
0.0058362
0.0110589
0.00872522
0.04916
0.465039
0
0
0
0.0023274
0.00275159
0.0150681
0
0.0156932
0.0478882
0
0
0
0
0
0
0
0
0.00902692
0
0
0
0
0
0
0
0
0.208158
0
0
0
0
0
0
0
0
0
0
0
0
0.000193315
0
0
0
0
0.00206898
0
0
0
0
0
0
0
0
0
0
0
0
0
0
0
0
0
0
0
0.00221953
0
0
0
0
0.00246887
0.000103919
0.000144206
0.000142752
0.000118146
7.54612e-05
7.81644e-05
0.000158898
0.000191261
0.000291048
0.000258282
0.000394063
0.000187919
0.000429746
0.000775704
0.000218952
0.000213041
0.00053562
0.000635429
0.000346605
0.000100061
0.000317236
0.00038519
0.000299563
0.000238778
0.000299178
0
0
0
0
0
0
0
0
0
0
0
0
0
0.00625896
0.00553534
0.00470629
0
0
0
0
0
0
0
0
0.0591904
0
0.00761332
0.00395636
0.000829335
0.000353799
0.00141397
0.000210972
5.70728e-05
0.000428675
0.00089922
0.000444139
0.000658226
0.000485279
0.000314931
0.00039707
0.000515178
0.000452081
0.000348401
0
0.00100948
0
0
0
0
0
0
0
0
0
0
0
0
0
0
0
0
0
0
0
0
0
0
0
0
0
0
0
0
0
0
0
0
0
0
0
0.000326122
0.00024175
0.000304429
0.000769725
0.000699343
0.000767983
0.000652633
0.00121623
0.00102205
0.000739191
0.00104542
0.000208442
0.000863872
0.00173157
0.00137023
0.000280784
0.00147438
0.0039536
0.00375585
0.00303849
0.00328908
0.00272751
0.00286798
0.00311076
0.00231473
0.00368793
0.00508348
0.00413333
0.00344433
0.00196841
0.00266003
0.000411836
0.00325277
0.0060557
0.00332824
0.00717771
0.00550558
0.000232463
0.000187432
0.000179285
0.000176842
0.000158993
0.00016091
0.000148758
0.000156524
0.000223469
0.000208143
0.000243216
0.000244629
0.000230748
0.000234607
0.000222001
0.000247608
0.000198129
0.000200905
0.000209955
0.000198763
0.000210036
0.000232672
0.000354124
0.000258509
0.000369531
0.000326372
0.000460286
0.000613219
0.000259015
0.000357149
0.000198196
0.000310826
0.0001991
0.000252615
0.00030189
0.000180396
0.00021791
0.000282456
0.000209935
0.000152674
0.000153126
0.00016731
0.000213623
0.000174637
0.000181191
0.000205354
0.000183782
0.000273715
0.000195148
0.00022349
0.000193046
0.000273444
0.00024907
0.0016935
0.00174337
0.0012044
0.000920134
0.00186768
0.0013575
0.000759292
0.000663495
0.00142811
0.00187978
0.00244759
0.00151889
0.000128356
8.97409e-05
0.00016626
0.000133
0.000125877
0.000133303
0.000142007
0.000126675
0.000142898
0.000147098
0.000131334
0.000117594
0.000122602
8.34017e-05
8.93344e-05
5.8971e-05
6.02955e-05
4.21827e-05
5.22375e-05
0.000115117
0.000111319
0.000126937
4.88208e-05
7.56562e-05
4.29191e-05
0.00179584
0.00103722
0.0010163
0.00266225
0.00140048
0.000992419
0.000938543
0.00303208
0.00185637
0.00496093
0.00368532
0.00354966
0.006956
0.00541344
0.00453802
0.00436856
0.00370036
0.00365232
0.00169723
0.00428571
0.00201702
0.00175209
0.0015128
0.00222919
0.00137503
0.00125521
0.00161222
0.00148527
0.00102995
0.00132927
0.000707616
0.000863697
0.000582986
0.000571974
0.00058579
0.000445396
0.00043414
0.00046636
0.000494387
0.000281154
0.00054056
0.000405165
0.000568055
0.000407082
0.000468125
0.00057484
0.000457216
0.000435173
0.000478875
0.000596205
0.000313238
0.000418583
0.000378895
0.000422099
0.000248729
0.00036601
0.000238783
0.00017512
0.000168771
0.000248166
0.000186027
3.37894e-05
4.87176e-05
8.39114e-06
4.35091e-05
2.90702e-05
3.20674e-05
7.63082e-05
5.81968e-05
9.25651e-05
0.000110945
0.000152362
0.000114211
0.000138918
0.000137372
0.000231785
0.000135503
0.000145251
9.60721e-05
0.000138159
0.00035322
0.000227271
0
0.0424043
0
0.0495443
0.00820083
0.0116728
0.0219102
0.0106053
0.0185582
0.0142366
0.0194532
0.0186821
0.300542
0.00288454
0.0153646
0.00766945
0.00180535
0
0
0
0
0
0
0
0
0.000322017
0
0
0.00685477
0.00185655
0
0
0
0
0
0
0
0
0
0
0
0
0.286192
0
0
0
0
0
0
0
0
0.100234
0
0
0
0
0.00346504
0
0
0
0
0
0
0
0.00161251
0.0181865
0
0
0.0562054
0
0
0
0
0
0.00589373
0
0.0077875
0
0
0
0
0
0
0
0
0
0
0
0
0
0
0
0
0
0.00382155
0
0
0
0
0
0
0
0
0.000178476
0.000193488
0.00014114
0.000159015
0.000109922
6.09731e-05
4.00471e-05
2.91755e-05
6.03239e-05
9.69744e-05
0.000539098
0.000495923
0.000393505
0.000325625
0.000359727
0.000263057
0.000188194
0.000653809
0.000273851
0.000232766
0.000235429
0.000363307
6.23764e-05
0.000246844
0.000418485
0.000240493
0.000279057
0
0
0
0
0
0
0
0.00562258
0.00336278
0.00488802
0
0
0
0
0.00256284
0.0151134
0
0
0
7.05623e-05
0
0
0
0
0
0.000343982
0.000753753
0.000405789
0.00266255
0.000990806
0.00143734
0.000876309
0.000194344
0.00019032
0.000768712
0.000817293
0.000832889
0.000382007
0.000558674
0.00029252
0.000591023
0
0
0.000953648
0
0
0
0
0.000279251
0
0
0
0
0
0
0
0.00910873
0
0.00416849
0.00694638
0
0
0
0
0
0
0
0
0
0
0
0.00829747
0
0
0
0
0
0
0
0
0
0
0
0
0
0.00348752
0.000244662
0.000405287
0.000263354
0.000836625
0.000268742
0.000461783
0.000494894
0.000295886
0.000630283
0.00131279
0.0011432
0.000710127
0.00177344
0.000254154
0.00109847
0.000814999
0.00259146
0.00137211
0.00131228
0.00299632
0.00376611
0.00416942
0.00308768
0.00208131
0.00260388
0.00161779
0.00264403
0.00586569
0.00673802
0.00309845
0.00225719
0.00653411
0.00243384
0.00688234
0.0101867
0.00409819
0.00486793
0.00163446
0.0052941
0.000200124
0.000199456
0.000176483
0.000206189
0.000197453
0.000201399
0.000194589
0.000217929
0.000207045
0.000170367
0.00014665
0.000188561
0.000185018
0.000185314
0.00024149
0.000257891
0.000259753
0.000255245
0.000250356
0.000252978
0.000235674
0.000225126
0.000223626
0.000205448
0.000229172
0.000219252
0.000205727
0.000212142
0.000365421
0.000300007
0.000322596
0.000346261
0.000505128
0.000441815
0.000292251
0.000377624
0.000249363
0.000298364
0.000293316
0.00025584
0.000193886
0.000212269
0.000214046
0.000250647
0.000149397
0.000179469
0.000192494
0.000153613
0.000188492
0.000249392
0.000242421
0.000217572
0.000121151
0.000274791
0.0002575
0.000207826
0.000294341
0.000186485
0.00174223
0.0018207
0.00107199
0.000824608
0.00116623
0.00168201
0.000635343
0.000764247
0.00155702
0.00162971
0.00146012
0.00181691
0.000152094
0.000216887
0.000112876
8.52428e-05
0.000114515
0.000111742
0.000116388
8.90406e-05
7.69308e-05
0.000113475
9.2326e-05
9.06384e-05
0.000111614
7.14199e-05
8.14137e-05
4.79703e-05
4.86936e-05
4.18188e-05
3.05274e-05
5.11659e-05
3.17913e-05
9.77013e-05
7.38443e-05
3.11828e-05
4.33242e-05
0.013072
0.0011834
0.0222423
0.00302893
0.00696732
0.00919235
0.00919952
0.0120589
0.00818835
0.00297403
0.151908
0.025837
0.0504571
4.04359
0.0678052
0.00524888
0.00204588
0.00421215
0.00170774
0.00437441
0.00285048
0.00262207
0.00157003
0.00213377
0.00114333
0.00146906
0.0013301
0.00152794
0.000898354
0.000704125
0.000543981
0.000544604
0.000550815
0.000439711
0.000507128
0.000370197
0.000303122
0.000521374
0.000403537
0.00037728
0.000285768
0.00041754
0.000348257
0.000328028
0.000461292
0.000461532
0.00041343
0.000344894
0.000409811
0.000372514
0.000258393
0.000282727
0.000291064
0.000248539
0.000164876
0.000197755
0.000166127
2.94463e-05
0.000152079
3.80483e-05
5.1782e-05
3.39124e-05
3.50842e-05
3.42892e-05
6.66767e-05
5.3862e-05
0.000106977
8.73971e-05
0.000112521
0.000119316
0.000155293
0.000107908
0.000142392
0.00012816
0.000123031
0.000115663
7.73627e-05
0.000311355
0.00018937
0
0
0.0120048
0
0
0.152586
0
0.0171447
0.0439404
0.110433
2.16736
2.37823
2.68487
0
0.362466
0
0
0
0.0868361
0.0669658
0
0
0
0.0106492
0
0.0084795
0.00546567
0
0
0
0
0
0
0
0
0.18559
0
0
0
0
0
0
0.337583
0
0
0
0
0
0
0
0
0
0
0
0
0
0
0
0
0
0
0
0
0
0
0
0
0
0
0
0
0
0
0
0
0
0
0
0
0
0
0
0
0
0
0
0
0
0
0
0
0
0
0
0
0
0
0
0
0
0
0
0
0
0
0
0
0
0
0
0
0
8.77288e-05
0
0
0
0
3.22152e-05
3.04494e-05
4.71161e-05
6.63862e-05
3.97562e-05
4.1756e-05
0.000185863
0.000139245
0.000108297
0.000135795
9.60262e-05
6.51038e-05
5.72601e-05
0.000191729
0.000223404
0.00066272
0.000132035
0.000296877
0.000199414
0.000332912
0.000268269
0.000392232
0.000141702
0.000346997
0.000249686
3.40767e-05
2.3422e-05
0.000135094
0.000296463
0
0
0
0
0.00472824
0.00225462
0.00426423
0
0
0.00244849
0.000887282
0
0
0
0
0
0.00355052
0.00195166
0.00645935
0
0
0
0
0
0.000233105
0.000415544
0.000497489
0.000380619
0.00028785
0.00218323
0.000950186
0.00145984
0.000675303
0.000245373
0.000497141
0.000525001
0.000435112
0.000515339
0.00037221
0.000509329
0
0.00336288
0
0
0
0
0
9.25735e-05
0
0
0.00025277
0
0
0
0.00089852
0
0
0
0
0
0
0
0
0
0
0
0
0
0
0
0
0
0
0
0
0
0.010757
0
0.0083007
0
0
0
0
0
0
0
0
0
0
0
0
0
0
0
0
0
0
0.000289768
0.000465627
0.000524325
0.000254246
0.000537293
0.000763675
0.00113896
0.000344279
0.000478905
0.00112167
0.000920048
0.00185054
0.000494284
0.00321466
0.0024572
0.00207922
0.0011138
0.00477683
0.00612687
0.0116425
0.00845773
0.00187889
0.00142898
0.00302196
0.00162875
0.00427599
0.00324543
0.00495255
0.00226076
0.00440953
0.00356981
0.00326273
0.00860105
0.0106119
0.0136421
0.00494475
0.014594
0.00714895
0.0225713
0.00539674
0.0197312
0.000214404
0.000252166
0.000198739
0.000166779
0.000220785
0.000165512
0.000207995
0.000326289
0.000192812
0.000249935
0.000230775
0.000253193
0.000259981
0.000240238
0.000276691
0.000263331
0.000254155
0.000251476
0.000270932
0.000219952
0.000230035
0.000207927
0.00019521
0.000196925
0.000265018
0.000197912
0.000279045
0.000309987
0.000299279
0.000347723
0.000393304
0.000468414
0.00052554
0.000346627
0.000342817
0.000244937
0.000260858
0.000216072
0.000235166
0.00017033
0.000160886
0.000189767
0.00019488
0.000151507
0.00020424
0.000180073
0.000199752
0.000197348
0.000233817
0.000331383
0.000406629
0.000460066
0.000362939
0.000231923
0.000194117
0.000367399
0.000133604
0.00201613
0.00159907
0.000888159
0.000986842
0.00144082
0.00114681
0.000892378
0.00072428
0.00193452
0.00154967
0.0013269
0.00132501
0.00199867
0.00203147
0.00121199
0.000181478
0.000217586
0.000101586
8.19502e-05
0.000100752
8.48698e-05
0.000101078
8.32702e-05
7.94645e-05
6.91721e-05
5.80248e-05
7.86943e-05
6.1316e-05
4.25341e-05
4.75722e-05
3.16295e-05
2.67029e-05
4.47706e-05
3.42081e-05
5.0672e-05
3.35862e-05
6.16483e-05
4.17176e-05
5.84229e-05
7.06123e-05
4.20713e-05
0
0
0
0.0296553
0
0.0175752
0.0254693
0.0448668
2.16976
0
0
0.00380886
0
0
0.00720085
0.086262
0.377419
0.00330433
0.00256306
0.00212227
0.00628441
0.00132809
0.00122265
0.00136607
0.00219502
0.00103482
0.000725447
0.00146479
0.000504701
0.000597276
0.000566437
0.000482119
0.000467885
0.000472263
0.000305305
0.00045457
0.000463348
0.000285979
0.000327096
0.000266465
0.000243586
0.000352562
0.000283534
0.00028771
0.000324918
0.000415045
0.000376702
0.000300051
0.000297832
0.000209581
0.000159592
0.00022383
0.000144399
0.000213989
2.84303e-05
0.000144025
0.000102632
5.93042e-05
8.1798e-05
3.06579e-05
4.75163e-05
4.60701e-05
7.40363e-05
5.9103e-05
8.7467e-05
8.19985e-05
0.000106918
0.000123126
0.000115136
0.000122418
0.000143546
0.000109604
0.000132049
8.2087e-05
6.35516e-05
8.44997e-05
3.61056e-05
0.000152111
0
0
0
0
0
0
0
0
0
0.201862
1.06635
0
0
1.03535
0.78302
0.35627
0.118693
0.111701
0.10567
0
0
0
0
0
0
0
0
0
0
0
0
0
0
0
0
0.184664
0
0
0
0.127131
0
0
0
0
0
0
0
0
0
0
0
0
0
0
0
0
0
0
0.314405
0
0
0
0
0
0.00214474
0.00226313
0.00426756
0
0
0
0
0
0
0
0
0
0
0
0
0
0
0
0
0
0
0
0
0
0
0
0
0
0
0
0
0
0
0
0
0
0
0
0
0
0
0
0
0
0.006061
0
0.00282104
0
0.0105566
0
0
0
4.0606e-05
7.29662e-05
6.26357e-05
3.62397e-05
5.61728e-05
4.7966e-05
5.52345e-05
0.000162306
0.000147231
0.000127596
0.000103521
8.75215e-05
4.94353e-05
7.67732e-05
0.000179294
0.000157696
0.000197278
0.000181355
0.00020576
0.00048711
0.000320392
0.000172301
0.000294698
8.13623e-05
0.000152393
0.000746603
0.00028243
0.000537558
0.000597322
0.000321681
0.000512053
0.000261795
0.000282675
0
0
0.00228369
0.00124416
0.00297648
0
0
0.00154559
0.00325076
0
0
0.027673
0.00296151
0
0
0
0
0
0
0
0.0155997
0
0
0
0.000223708
0.000257133
0.000331093
0.000392394
0.000678241
0.00132592
0.000959996
0.000265052
0.000498473
0.00034541
0.000517314
0.000335279
0.00042204
0
0
0
0
0
0
0.0107035
0.0021544
0
0
0
0
0
0
0
0
0
0.000421096
0
0
0
0
0
0
0
0.00307233
0
0
0.0173654
0
0
0
0
0
0
0
0
0
0
0
0
0
0
0
0
0
0
0
0
0
0
0.00228133
0
0
0
0
0
0
0
0
0
0
0
0.00045893
6.37287e-05
0.000566527
0.000152115
0.000645328
0.00176044
0.000718622
0.00132612
0.0011206
0.00116072
0.00161053
0.00187797
0.0014177
0.00896725
0.00419982
0.0124755
0.0140313
0.00190334
0.00210912
0.0132783
0.0204732
0.0100888
0.0142677
0.00241651
0.00253408
0.00387786
0.00490959
0.00394522
0.0030827
0.00147538
0.00205562
0.00727721
0.014822
0.00697041
0.00654961
0.0273432
0.0619325
0.235781
0
0.122192
0.997155
0.0255203
0.0212991
0.000207594
0.000214478
0.000326913
0.000201287
0.000264373
0.000259866
0.000247837
0.000252405
0.000288794
0.000229759
0.000260114
0.000228098
0.000229027
0.000225433
0.000272895
0.000250281
0.000248973
0.000260004
0.000265046
0.000238822
0.000222086
0.000255997
0.000192285
0.000244929
0.000249833
0.000113634
0.00022085
0.000277935
0.00022402
0.00024992
0.000419776
0.00039525
0.000588693
0.000467265
0.00035717
0.000296057
0.000219529
0.000196615
0.000174352
0.000149186
0.000178219
0.000173492
0.000167162
0.000136849
0.00015082
0.000163259
0.000244137
0.000375963
0.000186985
0.000410507
0.00045313
0.000414342
0.000296747
0.00045257
0.000181166
0.000234161
0.000260609
0.000205505
0.00171749
0.00215088
0.00110886
0.00110318
0.00144946
0.00131501
0.00105867
0.000787379
0.0014478
0.00155952
0.00079053
0.00108534
0.0011844
0.000952285
0.000145803
0.000103163
6.35878e-05
0.000110235
0.000127011
5.81089e-05
6.72256e-05
3.41172e-05
3.23719e-05
2.01549e-05
4.07664e-05
1.35437e-05
3.40819e-05