/*--------------------------------*- C++ -*----------------------------------*\
  =========                 |
  \\      /  F ield         | OpenFOAM: The Open Source CFD Toolbox
   \\    /   O peration     | Website:  https://openfoam.org
    \\  /    A nd           | Version:  8
     \\/     M anipulation  |
\*---------------------------------------------------------------------------*/
FoamFile
{
    version     2.0;
    format      ascii;
    class       surfaceScalarField;
    location    "12780";
    object      phi;
}
// * * * * * * * * * * * * * * * * * * * * * * * * * * * * * * * * * * * * * //

dimensions      [0 3 -1 0 0 0 0];

internalField   nonuniform List<scalar> 
788991
(
-0.0396203
0.0130538
-0.0418782
-0.038387
0.024629
-0.0538195
0.00840045
-0.00309453
-0.0710981
0.0509731
-0.0421123
0.0485641
-0.00514125
-0.0513261
-0.0499444
-0.0202416
0.0513753
0.0138561
-0.0414665
0.0303797
0.0293349
0.00990781
-0.051058
0.0290366
-0.0184674
0.058466
-0.0335515
0.0484861
-0.0168113
0.0507234
0.00765282
0.0326688
0.0617998
0.000892829
0.067913
-0.00751769
-0.0239307
-0.0446397
-0.0451524
0.00481668
-0.0526659
0.0452175
0.0322067
-0.0266194
0.0551535
-0.0187497
-0.0212062
0.0183656
-0.0136332
-0.0505083
-0.0514799
0.0156337
-0.0269172
0.0156366
0.0302593
0.0157785
0.00323843
0.0168007
0.0459554
0.0408586
0.00769622
0.00177994
-0.0158821
-0.0148694
-0.0155258
-0.0211045
0.000184893
0.0149554
-0.0078447
-0.00580423
-0.00451833
0.00747197
0.0103687
0.0152451
0.0460499
0.0144962
-0.0432224
-0.0502001
0.0154368
0.0115924
0.0312996
-0.0204387
0.0520456
-0.0433049
0.00653197
-0.0426677
0.0360308
-0.0404553
-0.0421038
-0.0206399
0.0377185
-0.0112335
-0.0483195
-0.0527932
0.0110291
0.0341779
-0.00912736
0.0420928
-0.0503148
-0.0103735
0.0186284
-0.0122748
-0.0300712
-0.032432
-0.017439
-0.00351261
-0.0148556
0.0114371
-0.0231943
0.029173
-0.0209952
-0.0219777
-0.00729123
-0.0285446
-0.0478657
-0.0435618
-0.0389886
-0.0296615
-0.0270605
0.0673343
0.0192758
-0.0752816
0.0208873
0.00619621
-0.0310547
-0.0265463
0.00163938
-0.0144891
-0.00490751
0.018402
0
0
0
0
0
0
0.0218373
0
-0.00625392
-0.0301118
0.0343135
0.0215884
0.0261439
0.0498434
0.00311387
-0.0625334
0.0686379
0.013002
0.0558359
0.0229945
-0.0025471
-0.0542837
-0.00384376
-0.0223749
0.0300907
0.011413
-0.0519455
-0.00928704
-0.0153658
0.0300594
-0.016926
0.0186423
-0.0211711
-0.0321158
0.0395791
-0.0155747
0.0423829
-0.00997128
-0.0448622
0.02707
-0.0335813
0.0389542
-0.00229795
-0.0475529
-0.0394619
-0.026585
-0.0524341
-0.0013212
-0.05851
-0.0311867
-0.0332232
0.0238534
-0.001489
-0.0337432
0.0345905
-0.0330823
0.0197528
-0.00586844
-0.0240208
0.00560437
-0.00860048
0.00071416
0.00698114
-0.0231977
0.014552
-0.0300829
0.0013848
0.0245139
-0.0341504
-0.0291572
-0.0138581
0.0130837
0.00960842
-0.0165968
-0.0271022
0.00841187
-0.0238729
-0.0107239
-0.0467184
-0.0507618
-0.0625066
0.0813246
-0.0164024
0.0283622
0.0436353
-0.00183873
0.0236356
0.0076043
0.0177506
-0.008981
0.0369613
0.020283
-0.00775904
-0.022839
0.0117781
-0.00760084
-0.0152752
-0.0035514
-0.00776464
0.00280652
-0.034057
-0.00867355
0.00443857
-0.072227
-0.0373394
0.0310354
-0.0175145
-0.0926873
-0.0160825
-0.0131131
0.00457154
-0.0203531
-0.0118306
-0.0376752
0.0254751
-0.0238407
-0.0794752
-0.037735
-0.0255062
-0.0619952
0.0299789
-0.0211066
-0.0714686
0.0317402
-0.0079729
-0.0471034
0.023668
-0.00148708
-0.0455839
-0.0253979
-0.0107602
-0.0176347
0.0195509
-0.00404757
-0.00708524
-0.0424614
-0.0576128
-0.0235114
0.0705119
-0.0382421
0.00410983
-0.0767271
0.0001138
-0.0236075
-0.0076152
-0.0395541
-0.0160257
-0.0447248
-0.0176095
0.049468
-0.0312353
0.00405459
-0.00644322
0.0129065
0.00523757
-0.00464538
0.00223745
-0.0118212
0.0153741
-0.0130985
-0.00665741
-4.52389e-05
0.010801
0.00241411
0.0144852
0.0454693
-0.00559683
-0.0288977
0.0443071
0.0541531
-0.00707475
0.00937797
-0.0217629
0.0121182
0.00316461
-0.0169192
-0.00857793
0.00795281
0.0118301
-0.0117359
0
0
0.0269412
0
0.015265
0
0
0
0
0
0
0
0
-0.0450041
-0.026937
-0.0255159
-0.0414188
-0.0202458
-0.0250457
-0.0455439
-0.0482519
-0.00893836
-0.0335401
-0.0484888
0.0033716
-0.0285577
-0.0433789
-0.00393779
0.0024532
-0.0284165
-0.0284596
0.0158463
-0.0361006
-0.0510891
0.034719
-0.0254886
0.0464917
-0.00711032
-0.0147298
0.00828857
0.0216227
-0.0187919
0.0400845
0.00998831
-0.0126091
0.020183
0
0
0
0
0
0
0
0
-0.0470534
0
0
0.0676081
0.041827
0.0108049
0.0712112
0.0533856
0.0553371
0.0773251
0.0216451
-0.0578372
0.0570634
0.0216497
-0.0427648
0.0201633
0.00572845
0.0204166
-0.0268988
-0.00720244
0.0016825
0.00752046
-0.0105745
-0.00161386
0.00520735
-0.0229274
-0.0320726
0.00975186
-0.0153507
0.0231771
0.0106026
-0.0210118
0.035352
0.00810782
-0.00746394
-0.0366982
0.00994963
-0.00238645
0.0170016
0.00179377
-0.0309911
0.0272939
0.0530796
0.0139245
-0.0184648
0.0413419
-0.06578
-0.025574
-0.0383456
-0.0259205
-0.0471102
-0.0206304
-0.00228524
0.0131413
0.0364491
0.0235186
0.00552819
0.00857718
-0.0229389
-0.00620213
-0.014504
0.0186391
-0.0420043
-0.0144991
-0.00492287
-0.0551713
-0.0124925
0
-0.0390387
0
0
0.00608646
0.0298672
-0.00853208
-0.0110739
-0.00760447
-0.0023616
0.0096183
-0.00966458
0.0103538
0.0207806
-0.0161834
0.0334295
0.0109591
-0.0237985
0.0117142
0.0178174
0.0163917
0.00329423
0.0199916
-0.0147462
-0.0119132
0.017844
0.0361778
-0.000469412
0.027232
-0.0345691
-0.0935244
0.0334544
-0.0219756
-0.0142036
-0.138387
0.0503693
-0.00810395
-0.00530007
-0.0209965
-0.0322172
-0.0508276
-0.0357678
-0.0333916
-0.0649809
0.0240952
-0.0270655
-0.0614061
0.0281135
-0.0200742
-0.0600996
-0.0218263
-0.0222699
-0.058067
0.0316589
0.00977284
-0.0223777
0.00693636
0.0161134
-0.00958834
0.023333
-0.00206715
-0.0694268
-0.0392839
0.0350614
-0.0185041
-0.0311925
0.0151812
0.0155776
-0.0472274
0.000915294
0.035173
0.0266132
-0.0347213
-0.0201757
0.0436557
-0.0310704
0.0135009
-0.0417126
0.0609654
-0.00215341
-0.0327799
0.0181019
0.0409192
0.0326202
-0.00315006
-0.0215954
0.00741424
-0.0385112
-0.0566666
0.00461981
-0.0871488
-0.0722912
-0.000566382
0.00455836
0.0229401
0.00210144
0.0141472
-0.0255265
-0.00521265
-0.00118532
-0.00583063
-0.0151075
-0.0225951
0.0208824
0.03191
-0.0126756
-0.00686622
0.00336409
0.0114283
-0.0136275
0.0307131
-0.0594238
-0.0592973
-0.0288536
0.0256699
0.0371235
0.0121953
0.00363116
0.00470064
0.0174098
-0.00648778
-0.0037095
0.000726434
-0.0138454
-0.0128148
0
0
0
-0.0206676
0
0
-0.0110166
0
0
0
0
0
0
0
0
0
0
0
0
0
0
0
0
-0.044495
-0.0447696
0.00248565
-0.0264007
-0.0477113
0.0173379
-0.0325391
-0.0390466
0.00299541
-0.031113
-0.0393811
0.00695683
-0.00423959
-0.027707
0.00660158
0.01359
-0.0313594
-0.0313227
0.02643
-0.0164618
0.0358104
-0.00938471
-0.0115069
-0.0086809
0.00482321
-0.0125771
0.0133708
0.0123293
-0.0189291
-0.031683
0.00581042
-0.0128488
-0.015883
7.24599e-06
0
8.55247e-06
0
0
-3.82072e-06
6.842e-06
-1.39427e-05
9.63102e-06
4.75786e-06
-6.76094e-07
0
0
0
0
0
0
0
0
0
0
0
0
0
0
0
0
0
0
0
0.023175
0
-0.0538216
0.103399
0.090152
-0.0596915
0.0772729
0.0431819
-0.0514367
0.0627066
0.0415965
0.0331023
0.0281453
0.0225274
-0.0148497
-0.00387163
0.0180071
0.000454788
-0.040891
-0.000911515
0.0324148
-0.0028251
-0.00421776
-0.0153902
0.00540465
-0.00725892
-0.00050691
0.00214754
-0.0136482
-0.0122195
0.0223209
-0.0033037
0.0185945
0.0288826
-0.0170574
0.0184678
0.0076237
-0.021471
-0.00624211
-0.0885984
0.00515198
0.058846
0.00628715
0.0203934
-0.00999257
0.0303119
-0.0261109
-0.00384878
0.00035359
0.0227474
-0.0624858
0
-0.0107639
0
0
0.00991758
0.00606667
0.000862222
-0.0133015
-0.0129407
0
0
0
0
0
0
0
0.034043
-0.0121343
-0.0385441
-0.00905729
-0.0151813
0.0190649
0.00321333
0.0185459
-0.0155605
0.00277667
-0.0397127
0.0215048
-0.0238277
0.0240796
0.0183378
-0.00428388
0.00944122
0.0325317
-0.0800115
0.0143465
0.0120277
-0.0285299
0.0260316
0.0124298
-0.00838509
0.034235
0.0214016
-0.00350073
0.0164505
0.0184996
0.00823873
-0.00741069
0.0308523
-0.0259264
-0.0119012
0.0350161
-0.0449266
-0.00407321
0.0339377
0.0696471
0.00700116
0.0712599
0.112759
-0.202305
0.0817075
-0.123556
-0.0622905
-0.094019
0
-0.0233045
-0.0131161
-0.0238947
-0.0252252
-0.0315
-0.0121444
-0.0439559
-0.0429373
0.0359791
-0.0446285
-0.0661913
0.0191554
-0.0244301
-0.0319716
0.0104073
0.00235053
-0.026285
0.0131854
-0.03856
-0.0492996
0.0239255
0.00483515
-0.0299562
-0.0314462
0.0419283
0.0241015
0.0191501
0.0120651
-0.0678025
0.0302449
-0.0242578
0.013365
-0.0750538
-0.0618006
-0.00949486
-0.0444059
-0.0190591
0.00527229
-0.0240552
-0.0345041
0.00595791
0.0410716
-0.0198366
-0.0451149
0.00734871
-0.0288794
0.00663966
-0.0110001
-0.024602
-0.00548806
-0.041568
-0.0397338
-0.0653887
0.00235346
-0.0222242
-0.00567891
-0.0096047
-0.0164498
-0.00269296
-0.00386824
-0.00654652
0.0197883
0.0249199
-0.0110986
-0.00396393
0.00490663
0.00533189
-0.00224388
-0.0165156
-0.0122328
0.0211436
0.00859835
-0.0383149
-0.0325543
0.0098008
0.0155836
-0.00996977
-0.0483026
0
0.0302241
0.000864113
0.0206798
-0.00173755
0.00252662
-0.0245708
0.0118631
-0.0369472
0.0214394
-0.0230488
0.0189158
-0.03308
0.0260143
0
0
0
0
0
0
0
0
0
0
0
0
0
0
0
0
0
0
0
0
0
0
0
0
0
0
0
0
0
0
0
0
0
-7.32157e-06
0
-3.5911e-06
0
-2.09901e-05
-1.03473e-08
-1.25158e-05
5.90367e-06
1.15171e-05
-4.58912e-05
0
0
1.46449e-05
0
0
0
0
0
0
0
0
0
0
0
0
0
0
0
0
0
-0.0297859
-0.0414805
-0.0238227
-0.0105815
-0.0509927
0.0433777
-0.0300072
-0.0244104
0.0125388
-0.0219489
-0.0216416
-0.00525603
0.0076937
-0.0117156
0.014311
0.0170913
0.00219397
-0.0154697
-0.00386498
-0.00576213
0.00223826
-0.00480534
-0.00420168
0.00933178
0.00481142
-0.00823324
-0.015443
0.0154477
0.0051494
0.0123413
0.0110198
0.00694875
-0.000571154
0
5.97574e-06
0
0
0
0
0
0
0
5.10534e-06
0
0
0
0
0
0
0
0
0
0
0
0
0
0
0
0
0
0
0
0
0
0
0
0
0
0
0
0
0
0
0
0
0
0
0
0
0
0
0
0
0.107275
0.0868881
-0.0101765
0.0925695
0.125552
0.0183525
0.0602573
0.069366
-0.0112208
0.0363093
0.0538491
-0.00274108
0.00624432
0.0354748
-0.0161029
-0.0243712
0.037221
0.0419434
-0.0517529
0.0161553
-0.0616629
2.17722e-05
0
0
-5.62031e-05
-2.22019e-06
0
0
2.57129e-05
0
0
0
0
0
0
0
0
0
0
0
0
0
0
0.00130722
0.00399298
-0.0191498
-0.00510336
-0.0182552
0.0101689
-0.00785705
-0.0178654
-0.0146028
-0.0106391
-0.0173618
0.00111383
-0.020296
-0.0241331
0.00836502
-0.00627546
-0.0105405
0
-0.00720228
0
0
-0.0819094
0
0.0176247
0.0201577
-0.00866144
0.0331541
0.0207008
-0.0177945
0.0142483
0
0
0
0
0
0
0
0
0
0
0
0
0
0
0
0
0
0
0.0402561
-0.0592547
0.0097262
0.0445192
0.0121086
0.0481658
0.0411608
0.00327498
-0.0105182
0.0590212
-0.0598423
0.0458296
0.0135731
0.0099342
0.0242791
-0.0265959
0.0152616
0.0437687
0.0102364
0.019762
0.0155172
0.0405483
0.0412834
0.0315102
-0.0241469
0.0032865
-0.0120264
0.00971563
0.00584195
-0.0268301
-0.0370721
-0.00452244
0.0163045
0.014894
-0.00883469
0.01906
0.00434313
-0.0267963
0.0225308
-0.0449707
-0.0256831
0.029487
0.0382311
-0.0261329
0.0175291
0.0562403
-0.024554
0.0168641
0.0963895
-0.0148843
0.0456998
-0.0415229
0.0559445
-0.0135964
-0.0171176
0
-0.0661967
0
0
-0.046999
0.0415636
-0.0405824
-0.00153474
-0.000723974
-0.0270269
-0.0201458
-0.00833041
-0.0189014
-0.0240788
0.00878444
-0.0444269
-0.0665657
-0.0286537
0.00035959
-0.0164403
-0.00596059
0.0431832
-0.00230391
-0.0238855
-0.0195346
-0.0442972
0.050585
-0.0415053
-0.0671339
-0.0386076
-0.00490345
0.0194476
-0.0437291
-0.0233241
0.0392764
-0.0453522
0.0121437
0.0494763
0.0403811
-0.0189338
0.0161071
-0.0491247
-0.0103781
0.0453329
-0.0610339
-0.0225351
-0.0189118
-0.0220998
-0.0395638
-0.0184531
-0.0212224
-0.0379371
-0.0200224
-0.0342772
-0.0242727
-0.0270549
0.0137177
-0.0221701
-0.0347171
0.0210623
-0.0502061
-0.0332665
0.0255997
-0.0795945
-0.0142552
-0.0465891
-0.0772748
-0.0129878
-0.0250856
0.0618054
-0.0772144
0.0675719
-0.0682664
0.00031423
-0.0167001
-0.0711092
0.00390716
-0.0762862
-0.0171682
0.0673356
-0.0555133
0.0682006
-0.0129754
-0.00773023
0.0666397
-0.0462306
0.0682765
0.0242267
0.01998
0.0766394
-0.0501672
0.0747363
0.0265659
0.0258411
-0.0770502
0.0325819
0.0808153
0.0559002
0.0220883
0.0857698
-0.00402025
0.0895322
0.0916223
0.049167
0.0881691
0.0185422
0.081527
-0.104627
0.0812511
0.0868468
0.086963
0.0205768
-0.10648
0.105346
-0.0859802
0.0181895
0.016543
-0.00370204
0.00067804
-0.0088572
0.0185172
-0.0115947
-0.0385935
-0.00585768
0.0190013
0.000551158
0.012441
0.0256534
0
-0.0267873
0
-0.0346079
-0.0141774
-0.00601523
-0.0215533
0
0
-0.0111359
0
0.0177781
-0.0598821
-0.0219894
-0.0173427
-0.0224293
-0.0565597
0
0
0
0
0
0
0
0
0
0
0
0
0
0
0
0
0
0
0
0
2.57444e-05
7.55432e-05
0
0
0
0
0
0
0
0
0
0
0
0
0
0.00014637
3.7402e-06
0
0
0
0
0
0
0
0
0
0
0
0
-6.69232e-05
0
0
0
0
0
0
0
0
0
0
0
0
0
0
0
0
0
0
-6.0434e-06
-1.54066e-05
0
1.40173e-05
3.52572e-05
0
-1.28823e-05
-1.92587e-05
0
0
0
0
0
0
0
0
0
0
0
0
0
0
0
0
0
0
0
0
0
0
0
0
0
0
0
0
0
0
-0.0108714
-0.0409795
0.0351957
0.0090329
-0.0483896
-0.0497893
-0.0219824
-0.0101583
-0.0101539
0.0049419
-0.00315371
0.00768757
0.00345249
0.00550597
-0.00390632
0.00732169
0.00418082
-0.00448795
0.00196421
-5.15369e-05
0.00239388
0.00833998
0.00557022
-0.00433028
-0.000125791
0.00122872
-0.00492193
0.0106249
0.011648
0.00627481
-0.0108066
0.0126404
-0.00234557
0
0
0
8.77815e-06
6.37795e-05
6.79628e-05
0
0
0
0
0
0
0.000175198
0
-9.20211e-06
0
0
0
0
0
0
0
0
0
0
0
0
0
0
0
0
0
0
4.82135e-05
4.61202e-05
1.80698e-05
0
-4.56088e-05
0
0
0
0
0.0610853
0
-0.0323339
0.100034
0.0261507
0.00813484
0.0768874
0.0942473
0.0327754
0.039145
0.102781
0.0377769
0.0133681
0.0757514
-0.0451799
-0.015431
0.0638154
-0.0681633
-0.0387086
0.05352
0.077768
-0.0504366
0.0630679
0.0326044
5.94374e-05
0
0
4.50217e-05
0
1.16526e-05
0
-8.46086e-07
0
5.0528e-07
0
-1.11486e-06
7.07147e-09
0
0
0
0
0
0
3.11733e-06
0
0
0
0
0
0
0
0
0
0
0
0
0
0
0
0.00434525
0.0494933
-0.0160001
0.00320782
-0.0206482
0.00652661
-0.028034
-0.0206595
-0.00330703
-0.0204251
-0.00112861
-0.0140465
-0.0156972
-0.00995538
0
0
-0.000384818
0.000266378
0
0
0
0
0
0
0
0
0
-0.0316942
0
-0.0110764
-0.00301538
0.00792856
0.0188164
0
0
0
0
0
0
0
0
0
0
0
0
0
0
0
-1.14552e-05
0
-1.18508e-05
0.0528378
0.0626119
-0.00704414
0.0402803
0.0449857
-0.0278947
0.041728
0.049643
-0.00316223
0.0314315
0.0471028
-0.0243536
0.0783666
0.0523814
0.0293125
0.0683828
0.0390359
-0.0201708
0.0496902
0.066494
-0.0267131
0.048492
0.074128
0.0245268
0.0246037
0.0798644
-0.0584293
-0.00829202
0.0848855
-0.102905
-0.0236046
0.0882021
0.114014
-0.0274437
0.0841358
0.112133
0.0849625
0.103256
-0.0835485
-0.0133762
0.0960249
0.0829765
-0.0185367
-0.106046
0.0225459
0.0210302
0.0244027
0.0134576
0.040624
0.0179983
0.0132578
-0.0214411
-0.0420189
0.0320444
-0.0353741
0.00797455
0.00673984
-0.0132425
0.0341471
0.0282882
0
0
-0.00286876
0.0149918
0.0464541
-0.0235016
-0.00577948
0.0176989
-0.00568537
0.00386704
-0.0171435
-0.0179457
-0.000986068
-0.035678
-0.0103761
-0.0204082
0
-0.0118455
0
0
-0.38878
0
0
0
0
0
0
0
0
0
0.000316316
0
-0.0267631
0.018477
-0.0303356
-0.0302263
-0.0103559
-0.0108184
-0.0391725
-0.0436241
-0.0325262
0.00400943
-0.0310944
-0.0250186
-0.0254593
0.00245256
-0.041244
-0.0386866
-0.0731233
0.0287941
0.0504134
0.0210654
-0.00420188
0.0636808
0.00355816
0.0216008
0.0449344
0.00229617
-0.0530301
-0.0387265
-0.00490047
-0.0541255
-0.0448122
0.048092
0.0718255
-0.0466746
0.0115391
0.0428884
-0.0339832
0.0364751
-0.0645132
0.0025023
-0.0367057
-0.0247286
-0.0414522
-0.052991
-0.00440421
-0.0571319
-0.0445653
0.0423782
-0.0504712
-0.0418329
0.024053
-0.0560616
-0.0638665
-0.0181316
-0.0745194
-0.0403395
0.0336929
-0.0808977
-0.0263868
0.0554669
-0.0638587
-0.0347383
-0.0766615
-0.085059
-0.0379361
-0.0568034
-0.0712479
-0.0211391
0.0600536
-0.0534219
0.00297867
0.0716702
-0.0488927
0.020007
0.0769603
-0.0582765
0.019588
0.0805325
-0.0368198
0.0186669
0.0816504
-0.00419123
0.0482356
0.0787258
0.0141363
0.0807578
-0.0799022
0.0167839
0.0981918
0.0801842
0.00932885
0.0960832
0.101838
0.0778154
0.0191259
0.0812211
0.102572
0.093234
-0.0754925
-0.0189562
0.0765199
0.0964711
0.0709041
0.0970148
-0.0060639
-0.00768399
0
0.0139795
0.0288576
0.000772852
-0.0365423
-0.0167209
0.0448095
0.0648623
0.00757509
-0.0112319
0.0127164
0
-0.0109102
0.000921608
0
0
0
0
0.00573992
-0.00809452
0
0
0
-0.0291433
0
0
-0.000327132
1.3043e-05
0.000110931
0
-0.000175825
0
0
0
0
0
0
0
0
0
0
4.33363e-05
0.00016988
0.00015686
0
0
0
-1.32024e-05
0
8.56584e-05
0
-2.87945e-05
0
0
0
0
0
0
0
0
-2.16908e-05
0.000262596
0
0
0
0
9.76892e-05
0
0
0
0
0
0
0
0
-1.39596e-07
-8.8985e-07
0
0
0
0
0
0
0
0
0
0
0
0
0
0
0
-2.03411e-05
0
0
0
-6.8235e-06
-6.42041e-06
0
0
0
0
0
0
0
0
0
0
0
0
0
0
0
0
0
0
0
0
0
0
7.50783e-07
0
0
0
0
-0.000222379
-0.0292403
0.030285
0.0166398
-0.0247923
-0.036086
-0.00233557
0.00190385
-0.00589098
-0.000400473
0.00554341
-0.00214949
0.00562527
3.72103e-05
-0.0144456
0.00469429
-0.00153526
0.00952709
0.00650486
0.00522218
-0.00977347
0.0155087
-0.00628143
-0.0190825
-0.0121789
-0.00169744
0.00305823
-0.000570275
0.00286814
0.00530834
0.0130699
0.00668526
0.00302724
0.000178104
0
5.77228e-05
0.000108795
5.78672e-05
-2.73222e-05
0
0
0
0
0
0
0
0
0
0
0
0
0
0
0
0
0
0
0
0
0
0
0
0
-6.57177e-05
0
0
0
0
0
0
0
0
0
0
0
-0.022387
0
-0.0287131
0.053267
-0.0417623
0.0136466
0.0463417
0.0663056
0.0458765
0.0198209
0.0866191
-0.0544878
0.00525734
0.0751124
0.0656506
-0.0310713
0.0626119
0.0745291
-0.0315558
-0.0257823
0.040211
-0.0266261
0.0502887
-0.0607156
0
0
0
0
0
0
0
0
0
0
3.47701e-07
0
0
0
0
0
0
0
0
-0.00661739
0
0
0
0
0
0
0
0
0
0
0.0115987
0
0.00247087
0
0
0
0
0
0
0
0
0
0
-0.00569657
0
0.00369583
0.00897169
0.0163036
0.000739213
0.0379197
-0.00688483
0
-0.0112576
0
-0.000118697
0
0
0.0152299
-0.00931154
0.0314106
-0.00362599
0
0
0
0
0
0
-1.45495e-05
-2.2313e-05
3.03023e-06
0
-7.94236e-06
0
-0.0113908
0
0
0
0
0
0
3.72272e-07
0
-1.26716e-05
0
0
0
0
0
0
0
0
0
0
0
0
0
0
0.0195938
0.000340345
0.0637206
-0.0446729
0.0538286
-0.0623587
0.0279177
0.0576645
0.0390995
0.0428803
-0.0736004
0.0606359
-0.0316055
-0.0267573
0.0300466
0.068306
-0.0100575
0.0746697
0.0912309
-0.0708443
0.0841584
-0.0249081
0.0731599
-0.0586552
0.0675848
0.0900952
-0.0346891
0.0823286
-0.0552488
0.0618088
-0.0934424
0.0888085
-0.0584729
-0.0427054
0.0618783
0.0932906
-0.0207461
0.0856684
0.10304
-0.019741
0.0822107
-0.0957836
-0.0102406
0.0784044
0.0832876
0.0502868
0.0269323
-0.0324609
0.050617
0.0190342
-0.0279359
0.0300013
0.0230286
0.0202815
0.00601814
0.0448036
-0.0428157
0.0719934
0.0414036
0.0498391
0.0640902
0.0154057
0.0500267
0.0522631
0.0781455
0.0280143
0.0245828
0.0800882
0.0590615
-0.0112155
0.0826457
0.0966157
-0.0282297
0.0921119
0.120568
-0.0276563
0.0860213
0.115155
-0.0150164
0.0880328
0.102831
0.0868693
-0.0227047
0.112207
0.0900308
-0.0226414
0.110666
-0.00401326
0.00576204
-0.00582937
0.00905494
0.00955856
-0.0329483
0.015955
-0.019552
0.00918509
-0.0216155
0.049465
-0.00167435
-0.00586224
0
0.040593
0.0259212
0.014105
0.0160829
0.0756056
0.0632468
0.00597034
0.0746906
-0.0602888
0.0276581
0.06454
0.0498865
0.0322548
0.0814732
0.0476122
0.0206525
0.0800021
0.0423142
0.0223973
0.0665928
0.0261082
0.0295144
0.0555592
0.0253493
0.0522746
0.0362089
0.0543379
0.0247374
0
1.55297e-05
2.44388e-05
0
0.00554094
0.0121544
0.00780778
0.00118394
-0.00420883
-0.0717619
0.00567359
0.022679
5.8922e-06
-0.0287687
-1.73474e-05
2.03496e-05
-1.16855e-05
-5.43212e-06
0
-4.25402e-05
0
0
0
0
0
0
0
0
0
0
0
0.0292468
-0.00640398
-0.00366391
-0.00628737
-0.0191194
-0.0223071
0.0442999
-0.021409
-0.00168845
0.021354
-0.0396767
-0.0248542
0.0240984
-0.00199287
0.0117277
-0.0849626
-0.0131689
0.0527894
0.0259596
0.004537
-0.0031132
-0.0412946
0.0366809
-0.00597158
0.00292861
0.0243578
0.014985
-0.000676019
0.0589224
-0.0307207
0.0248664
-0.0691869
-0.0263203
0.0357304
-0.0689338
-0.0373292
-0.00109879
0.0568004
-0.0399416
0.0131897
-0.069235
0.00720229
-0.0286112
-0.0466906
-0.0362281
-0.0496253
-0.0137169
-0.0345566
-0.0257706
0.064738
-0.0587289
-0.0438595
-0.00971657
-0.0610249
-0.0696136
0.0153262
-0.0784552
-0.0412506
0.0444266
-0.0539765
-0.0407909
-0.0896436
-0.0889239
-0.0440482
-0.0503995
-0.0770675
-0.0385146
0.0548124
-0.0693373
-0.012555
0.0640796
-0.0543134
0.000593862
0.0721315
-0.0533619
0.0118298
-0.0720175
-0.0592795
0.0189858
0.0788889
-0.0275957
0.0193753
-0.0674373
0.00261005
0.0417893
-0.0610475
0.0165429
0.0668208
0.0635897
0.0165905
0.0847583
-0.0659473
0.00804409
0.0824406
-0.0669394
-0.0646832
0.0742385
0
0.010057
0.00950699
0
-0.0041326
0
0
-0.0328382
0
0
-0.0440362
0
-0.0140312
0.00158955
-0.0126269
0
0
0
0
1.57392e-05
0
7.84377e-05
0
0.00574293
0
0
-4.86845e-05
0
-2.55919e-05
0
-9.01007e-05
0
1.17181e-05
0
0
0
0
0
0
0
0
3.55108e-05
5.05015e-05
-1.70157e-05
-2.04782e-05
0
-0.000314135
4.5863e-06
6.33291e-05
3.59684e-06
0
0
0
0
0
0
0
0
0
0
0
0
-4.05966e-05
0
-0.00010762
0
0
0
0
0
0
0
0
0
0
0.00318741
0.00202857
0
0
0
0
0
0
0
0
0
0
0
0
0
0
0
0
0
0
0
-4.55652e-06
3.7485e-06
-1.35706e-05
0
0
0
-3.29088e-05
5.3843e-06
0
0
0
0
0
0
0
0
0
0
0
0
0
0
0
0
0
0
0
0
0
0
0
0
0
0
0
9.33105e-06
0
-4.04969e-05
0
0
0
-9.13603e-06
0
1.63788e-05
0.0304944
0.01778
-0.0699233
-0.0319614
0.0717421
-0.0179925
0.0603511
0.0387337
0.00614279
-0.00739495
-0.025616
0.0120832
-0.00516512
0.0178759
-0.0027128
0.00661643
-0.00156745
-0.0027521
-0.00202222
0.00200924
5.94145e-05
0.0131414
0.00475592
-4.68102e-05
0.0101807
0.00521307
0.00602274
0.00631974
0.00105405
0.0103571
0.0145092
-0.000811606
0.0142393
0.00772696
-0.00329284
-0.00445389
-0.00039251
2.79835e-05
0
0
0
0
0
0
0
0
0
0
0
0
0
0
0
0
0
0
0
0
0
0
0
0
0
0
0
0
0
0
0
0
0
0
0
0
0
0
0
0
-0.0355319
0.0351418
0.0124159
0.0246508
-0.0176589
-0.0235518
-0.013289
-0.00725374
-0.00650699
-0.00920932
0.023254
0.0512226
0.0301407
0.0106407
0.0402621
0.0337546
-0.00560293
0.0428743
-0.0320558
-0.0182852
0.0264859
0.0253023
-0.0126063
0.0103661
0
0
9.35545e-06
7.32442e-07
0
0
0
0
0
0
0
0
0
0
0
0
0
0
0
0
0
0
0
0
0
0
0
0
0
0
0
0
0
0
0
0
0
0
0
0
0
0
0
0
0
0
0
0
0
0
0
0
0
0
-0.0152155
-0.0148313
-0.00725079
0.0204982
0.00492371
-0.0141939
0.00696228
0.00213867
-0.0231507
0.00315312
0
-0.00102209
0
0
0
0
0.00531205
-0.0242095
-0.00848475
0
0
0
0
0
0
0
0
0
0
0
0
0
0
0
0
0
0
0
0
0
0
0
0
0
0
0
0
0
0
0
0
0
0
0
0
-0.00704245
0.0451504
0.0612021
-0.0387028
0.0454552
0.0770082
-0.0424167
0.0289212
-0.0636549
-0.0470786
0.0527143
-0.0464658
-0.0284769
0.0729423
-0.100362
-0.0373968
0.0732186
0.110967
-0.0368564
0.0652519
-0.10046
-0.024337
0.064231
-0.0729443
-0.0176307
0.0887626
-0.103375
-0.00550681
0.0843364
0.0843255
-0.0249192
0.0811237
-0.0983039
0.0605157
0.00558241
-0.0708775
0.0276388
-0.00965793
0.0500755
0.00950668
-0.014218
-0.0495667
-0.0186157
0.0398733
0.0750015
0.0744743
0.0503546
0.0340598
0.0912602
0.0654219
-0.0190037
0.0832428
0.0761298
0.0211935
-0.0679134
0.0664811
0.0009641
0.0844641
-0.00639708
0.0880524
0.100881
-0.0258253
0.0882073
0.119514
-0.0202947
0.0895292
0.1063
-0.00718014
0.0937859
-0.0856236
-0.013078
0.0858622
-0.105808
0.0862989
-0.0184204
-0.115893
0.077964
-0.0175165
0.101356
-0.00307114
0.0557583
-0.0343073
0.0129135
-0.0152776
0.017696
-0.0176089
-0.0244048
0.0372683
-0.034464
-0.00645939
0.0164744
-0.00260398
0.0596914
-0.0238463
0.00553893
-0.0898367
0.140567
0.0124364
0.00681536
0.0496731
-0.0538433
0.013872
0.0605078
-0.0512088
0.0127175
0.045944
0.0651825
0.0330004
0.0607116
0.0405387
0.037607
0.0737979
-0.0319611
0.0274404
0.07253
0.0336425
0.0250387
0.0492592
-0.0232375
0.0388212
0.0524096
0.0157147
0.0470662
0.0658685
-0.0324712
0.0191623
0.0570893
0.0173766
0.0307789
0.0436061
0.0614231
0.0594808
0.00401561
-2.45024e-05
3.15874e-05
6.09555e-05
-6.08246e-05
-0.0143064
3.31921e-05
0
-0.0339332
0
0
0
0
-0.000103113
0
0
0
0
0
0
0
0
0
0
0
0
0
0
0
3.72284e-05
3.10182e-05
0
0.00281705
0
0.00697235
0
-0.0213386
0.0221404
-0.0138141
-0.00216745
0.0959731
0.0280218
0.0453007
-0.0174848
-0.0381006
0.0219841
0.016304
0.0567985
-0.0103534
0.0335426
-0.00330681
-0.0316385
0.093698
0.0819099
0.0184579
0.0592906
0.00493828
-0.0696597
0.0366215
-0.0316526
-0.0765068
-0.0260355
0.0399375
0.066815
-0.0590133
0.0502938
0.0746907
-0.0149659
0.0225413
-0.054785
-0.0369908
0.0326719
0.059636
0.00943604
-0.0313709
-0.055261
-0.0456858
-0.0527237
-0.0233952
-0.0792754
-0.0370291
-0.0558509
-0.0706806
-0.0711231
-0.00604951
-0.0656467
-0.0749012
0.0316816
-0.0511407
-0.0451289
-0.0931721
-0.0868225
0.0208686
-0.0909382
-0.060673
0.0490148
-0.0806339
-0.0374121
0.0602142
-0.0751858
-0.018798
-0.0685141
-0.0596269
-0.0109149
0.0697948
-0.0536311
0.00719966
-0.0711472
-0.0476936
0.0193698
0.0616608
-0.0187793
0.0131214
0.0418258
0.00171794
0.0266951
0.0369533
0.0147891
0.0398466
-0.0476737
0.0143886
0.0550725
-0.0483705
-0.053353
0.0533442
0
0
0
0
0
0
0
0
0
0
0
0
0
0
0
0
0
0
0
0
0
0
-0.000130728
0
0
0
0
0
0
9.87291e-07
0
0
0
0
0
0
0
0
3.42983e-07
1.54641e-06
0
0
2.8357e-05
-2.08384e-05
-2.21065e-05
0
1.5603e-06
0
0
0
0
0
0
0
0
0
0
0
0
0
0
0
0
0
0.00334105
-0.00296912
-6.77663e-05
0
0
0
0
0
0
0
0
0.00667674
0
-0.00222849
0
-0.00077004
0
0
0
0
5.6799e-06
0
-3.04299e-05
0
0
0
0
0
0
0
0
0
-8.13854e-06
3.89735e-06
2.08721e-06
0
-8.85888e-06
0
-1.51862e-05
1.36e-05
-2.15224e-05
0
2.23703e-05
0
0
0
0
9.60629e-06
0
-6.27855e-05
0
-1.41705e-05
-2.23289e-05
0
0
0
0
0
0
0
0
0
0
0
0
0
0
0
0
0
0
0
0
0
-5.37658e-06
0
7.19467e-06
0
0
0
-4.26666e-05
0
0
0
0
0
0
0
0
0.0190046
0.0231533
0.0585262
0.0230712
0.0275692
0.0397603
0.061489
0.0432324
0.071493
0.022064
0.0272241
-0.069903
0.079096
-0.0382225
0.00424922
0.00452374
0.00170551
-0.0174661
0.0060427
0.0142252
0.0109687
-0.0010433
0.012345
0.00709396
0.00529762
-0.0133623
0.00260286
0.010465
-0.0105211
-0.000981819
0.00368438
0.0100975
0.00207706
0.00328978
0.00538655
-0.00997583
0.00261631
0.0144186
-0.0103037
-0.00258995
0
0
0
0
0
0
0
0
0
0
0
2.89907e-06
0.00609457
-0.0366024
9.18503e-06
0
0
0
0
0
0
0
-6.27671e-06
0
0
0
0
-3.88469e-07
0
7.60546e-07
0
3.71213e-07
0
0
0
0
0
0
0.00784433
0.00725645
0.0105229
0.0150687
-0.0351438
0.0111182
0.0365435
0.0164349
-0.00953615
0.0179163
0.00386857
0.0176552
0.0129662
0.0030321
-0.000404266
-0.0113143
-0.00559609
0.00366998
-0.000757589
0.0026195
-0.000439478
-0.00864451
0.00541047
-0.00876303
5.95624e-09
0
0
7.46052e-07
0
-7.87334e-06
0
0
0
0
6.62257e-06
0
-1.48516e-05
0
2.1503e-05
0
0
0
0
0
0
0
8.21099e-05
0
1.28988e-05
-5.6798e-05
2.93597e-05
4.09573e-05
0
0
0
0
0
0
0
0
0
0
0
0
0
0
0
0
2.4463e-05
1.2819e-05
0
0
0
0
0
0
0
0
0
0
0
0
0
0
0
0
0
-2.04159e-05
0
2.58539e-05
-0.00682766
-0.016544
0.00985414
-0.0025994
-0.0222661
-0.0328747
0
-0.0350214
-0.0380288
0
0
0
0
1.0057e-05
0
-5.98603e-06
0
-5.87992e-06
1.86381e-05
0
0
0
0
0
0
0
0
0
0
2.65071e-05
-1.38805e-05
0
0
0
0
0
0
-0.0242313
0
0
0
1.81069e-05
1.08506e-05
3.95069e-06
0
3.80717e-05
0
0
0
0
0
0
0
0
0
-7.8451e-06
0
2.77002e-05
-0.0302456
0.0467315
-0.0696744
-0.0326356
0.0411602
-0.0665554
-0.0217453
0.00924369
0.0855967
-0.0360092
-0.0207739
0.044905
-0.0210942
0.0337429
-0.00975176
-0.0271368
0.0205043
-0.017976
-0.00146817
0.0157038
-0.043847
0.0743372
0.117367
-0.0392357
0.0712344
0.104449
-0.0172825
0.0689864
0.0787399
-0.0100128
0.0597356
0.0761706
0.000897811
0.0922277
-0.0884409
-0.0157571
0.0898141
-0.0991845
-0.0357523
0.0741173
0.110763
0.0493128
-0.0350731
-0.0963032
0.0180768
-0.0297857
0.0625769
0.00724199
-0.0381004
0.0434725
-0.0469712
0.0208708
0.0864392
0.0584979
-0.0178072
0.0815937
0.0437315
-0.0250765
-0.0913596
0.0843485
-0.0211692
0.107551
0.0718514
-0.0346619
-0.0968133
-0.0332743
0.0773886
-0.121939
-0.0214158
0.0854795
-0.11368
-0.00342395
0.0812401
0.0893163
-0.00550451
0.0805537
0.0698658
-0.00695532
0.0918852
-0.0597351
0.0793583
-0.00850913
0.0968939
0.0815279
0.00815697
-0.0706233
-0.0729951
-0.0260315
0.0595218
-0.0456832
-0.0227827
0.0314582
-0.00271677
-0.0245236
-0.0202367
-0.0398368
-0.0207824
-0.00674429
-0.0282898
-0.0598146
0.0500394
0.0644629
-0.0463344
-0.0586993
0.0043811
0.00145779
0.0294857
0.0419692
0.0144587
0.0420002
-0.0403327
-0.0381964
0.0519888
0.021002
0.0177734
0.0527338
0.0234297
0.0333508
0.0533304
-0.0270826
0.0381918
0.057213
0.0203439
0.0322059
0.0584777
0.0108139
0.0402909
0.0490169
0.0169599
0.0470832
0.0585962
-0.00789629
0.0469768
0.0673541
-0.015019
0.0434776
0.020738
-0.0186476
0.0424631
0.046936
0.00705563
-4.98365e-05
0
0
0
0
0
0
0
0
0
0
0
0
0
0
0
0
0
0
0
0
0
0
0
-8.99067e-06
0
-4.53246e-05
0
-2.4243e-05
0
0
0
0
0.0104561
0
-0.202519
0.00406999
-0.00343033
-0.0151662
0.141399
0.03707
-0.0920908
0.0239929
0.0356359
-0.0212166
0.0361663
-0.0251976
0.000529756
0.0556516
0.103072
0.0360838
0.0149608
-0.0362704
0.0277831
0.0322125
-0.0271812
-0.0660273
0.0181664
-0.0324084
0.0735346
0.116239
-0.0243716
0.0305917
-0.0751742
-0.0591358
0.0621193
-0.0412428
0.0111945
0.0465876
-0.0410503
0.0177145
-0.0739556
-0.0245422
-0.0863295
-0.0637463
-0.0733529
-0.0721936
-0.0267892
-0.0878657
-0.0587649
-0.0532083
-0.092743
-0.0990001
0.0116228
-0.108805
-0.0935965
0.0149319
-0.109552
-0.0807129
0.0426662
-0.0988137
-0.0618298
0.0606735
-0.0926894
-0.0446791
0.0675726
-0.0818178
-0.0284135
0.0678294
-0.0603526
-0.01832
0.066883
-0.0448773
0.00585911
-0.0556824
-0.0314354
0.00695686
0.0306985
-0.0177823
0.00103547
0.0247469
-0.00619285
0.00545345
0.023629
0.00339248
0.0158488
-0.0342434
-0.033481
0.0299053
0
0.0104979
0.00721255
0
0
-7.00852e-07
7.39065e-07
0
0
0
0
0
0
0
0
0
4.08448e-05
5.98557e-06
0.000204895
7.76374e-05
-7.60287e-05
0.000105738
5.95527e-05
2.80641e-05
-1.65465e-05
0
-1.99013e-05
-8.83131e-05
0
0.00898181
-0.00324064
0
0
0
4.7069e-05
0
2.42139e-05
4.15553e-06
-1.55867e-05
7.83986e-06
0
1.32086e-05
0
0
0
0
0
0
0
0
0
0
0
-3.61875e-08
1.18899e-08
0
0
0
0
0
0
-0.0145092
0
-0.0111554
0
-0.0305914
0
0
0
0
0
0
0
0
0
0
0
0
0
0
0
0
0
0
0
0
-3.42621e-05
0
0
0
0
0
0
0
0
0
0
0
0
4.52555e-06
0
0
0
0
0
0
0
0
0
0
0
0
0
-7.52156e-05
0
0
0
0
0
0
0
0
0
0
0
0
0
0
0
0
0
0
0
0
0
0
0
0
0
0
0
0
0
0
0
0
0
0
0
0
0
0
0
0
0
0
0
0
0
0
0
0
0
-1.02963e-06
2.95653e-11
0
0
0
0
0
0
0.0246602
0.0519519
-0.00906077
0.0380434
0.00360162
0.0325986
0.011833
0.0281981
0.00638794
0.0124605
-0.0300218
0.0227113
0.0593249
-0.0383743
-0.0159217
0.0516217
0.00888004
0.0699105
-0.00339374
0.0227933
0.0167863
-0.016614
-0.00158995
0.0133036
0.000777715
-0.0138504
0.0220156