/*--------------------------------*- C++ -*----------------------------------*\
  =========                 |
  \\      /  F ield         | OpenFOAM: The Open Source CFD Toolbox
   \\    /   O peration     | Website:  https://openfoam.org
    \\  /    A nd           | Version:  8
     \\/     M anipulation  |
\*---------------------------------------------------------------------------*/
FoamFile
{
    version     2.0;
    format      ascii;
    class       volScalarField;
    location    "420";
    object      H;
}
// * * * * * * * * * * * * * * * * * * * * * * * * * * * * * * * * * * * * * //

dimensions      [0 1 0 0 0 0 0];

internalField   nonuniform List<scalar> 
526318
(
1.01984
0.981264
1.05217
0.962962
1.03449
0.992437
1.00687
0.925852
0.987288
0.865948
0.84685
0.966394
0.912142
0.949763
0.912659
0.939464
0.909839
1.10552
1.01542
1.06143
1.05522
1.01004
0.773724
1.01592
0.898334
0.766391
1.03368
1.03506
1.03472
1.04716
1.07576
1.12185
1.1051
0.989047
0.986295
0.956972
0.961578
1.05078
0.977843
0.926821
0.990137
0.961281
0.627055
0.681079
0.585404
0.633463
0.610053
0.730223
0.912154
0.812966
0.899065
0.897845
0.853569
0.80912
0.311109
0.555352
0.547333
0.35993
1.06076
1.07476
1.09542
1.04681
0.993425
1.12189
1.1149
1.07464
1.0585
1.06071
0.957736
0.950353
1.06889
0.844816
0.898553
0.788177
0.745246
0.735247
0.834018
0.825798
0.74288
0.781323
0.861164
0.861441
0.814811
0.771367
0.799768
0.865529
0.867443
0.840703
0.791597
0.863246
0.770935
0.713537
0.709403
0.641117
0.637608
0.638682
0.643219
0.633732
0.6338
0.631738
0.0932686
0.0462293
0.122281
0.156649
0.216698
0.00528385
0.567763
0.377966
0.693164
0.653771
0.69494
0.814179
1.03732
0.925253
1.03479
1.04859
1.11314
1.08514
1.12914
0.631465
0.627338
0.628462
0.638171
0.590969
0.627315
0.535943
0.583294
0.491588
0.53883
0.488992
0.491278
0.479984
0.453712
0.445297
0.473457
0.411578
0.467099
0.418617
0.437457
0.379204
0.387758
0.409765
0.435326
0.420964
0.381771
0.378075
0.397464
0.381392
0.382168
0.388442
0.397936
0.388707
0.386692
0.391619
0.388773
0.351314
0.38761
0.390351
0.35706
0.312849
0.389166
0.334685
0.394375
0.914194
1.0053
0.953591
0.937712
0.737639
0.804479
0.735769
0.734666
0.733232
0.73133
0.751272
0.732167
0.666862
0.631765
0.59669
0.543896
0.602369
0.636621
0.642163
0.634313
0.517421
0.577808
0.462773
0.469657
0.48024
0.471733
0.472348
0.475292
0.463964
0.464001
0.458848
0.451231
0.4338
0.452867
0.44593
0.421321
0.399349
0.423892
0.407129
0.396448
0.419364
0.408217
0.413798
0.372275
0.388162
0.420842
0.42203
0.901694
0.916854
0.950546
0.919089
0.907122
0.900232
0.901083
0.779981
0.8223
0.566583
0.551336
0.548227
0.665562
0.806288
0.680681
0.715184
0.722527
0.66767
0.641989
0.151589
0.000999998
0.313643
0.493763
0.000286209
8.22058e-07
0.000685551
0.000966391
0.000501808
0.000993813
1.11444
1.0922
1.1442
1.13396
1.10307
1.0897
0.995398
1.08552
0.926344
0.868056
0.868828
0.867046
0.866933
0.866678
0.853608
0.852106
0.768465
0.830254
0.647015
0.701249
0.63055
0.641951
0.000993545
5.9995e-10
0.00104153
0.000994857
0.137331
0.0766301
0.130394
0.287643
0.668443
0.471096
0.71504
0.709734
0.82167
0.927719
1.04549
1.05081
1.08551
1.06197
1.12874
1.15764
0.611283
0.608214
0.568648
0.541843
0.436289
0.47224
0.397214
0.407385
0.398826
0.389438
0.378161
0.38809
0.308966
0.32796
0.363849
0.39733
0.456442
0.416419
0.38498
0.376141
0.316398
0.307555
0.357644
0.413063
0.334264
0.38361
0.377231
0.345913
0.34832
0.310034
0.312448
0.266929
0.272009
0.269473
0.260447
0.381161
0.41692
0.375912
0.414423
0.807081
0.771571
0.668216
0.756029
0.674805
0.726088
0.733264
0.725042
0.730741
0.733472
0.643951
0.552487
0.477941
0.467017
0.53632
0.484359
0.459308
0.57852
0.469868
0.509091
0.45179
0.450845
0.462806
0.452934
0.467218
0.461883
0.459296
0.463406
0.462608
0.458804
0.471236
0.462819
0.478167
0.47279
0.473379
0.456543
0.465482
0.45336
0.422163
0.423604
0.450962
0.477756
0.468484
0.445813
0.429305
0.454624
0.494643
0.490695
0.497986
0.465032
0.5005
0.51847
0.550516
0.496152
0.50988
0.529389
0.570613
0.726876
0.806018
0.721533
0.756909
0.832135
0.892526
0.802973
0.663188
0.780477
0.680724
0.70337
0.436248
0.385475
0.419508
0.402085
0.516154
0.642411
0.571331
0.645379
0.635591
0.664833
0.636568
0.000919843
0.0658526
0.217549
0.0671264
0.299821
0.187499
0.000599399
0.00231379
0.000858698
0.00100962
0.000664765
0.00100889
0.000730728
0.000955715
0.000666491
0.000952703
1.13769
1.12466
1.16431
1.15097
1.12979
1.0961
1.02413
0.934361
0.867286
0.881183
0.857146
0.855485
0.834022
0.835486
0.812355
0.813875
0.76158
0.802993
0.723275
0.668206
0.609607
0.570626
0.000968375
0.00170472
0.00102296
0.000663073
0.000357975
0.000512638
0.000613449
0.000184534
0.0020349
0.00175711
0.000542594
0.00100984
0.000848176
0.00100942
0.00139252
0.00017911
9.59721e-05
0.00219765
0.000746141
0.000931615
0.109633
0.000580547
0.197172
0.185325
0.377939
0.21234
0.572596
0.742955
0.747689
0.846558
1.06295
0.954177
1.07431
1.07402
1.08682
1.11553
1.14701
1.16279
0.527831
0.529846
0.480349
0.507333
0.444094
0.405901
0.395531
0.399417
0.388073
0.400038
0.352433
0.340799
0.286233
0.294282
0.349708
0.324434
0.296621
0.341935
0.339055
0.357831
0.269308
0.258227
0.27667
0.302848
0.298587
0.260117
0.260162
0.258396
0.259653
0.241422
0.242161
0.537826
0.50002
0.503736
0.509769
0.519729
0.628641
0.596534
0.577063
0.450249
0.499411
0.476873
0.487509
0.389664
0.322352
0.535902
0.653246
0.537318
0.541095
0.520173
0.602956
0.580876
0.651005
0.681688
0.610135
0.585508
0.622676
0.496827
0.463638
0.465194
0.459839
0.375482
0.436017
0.353962
0.308589
0.285835
0.402841
0.402646
0.453726
0.454537
0.450184
0.455855
0.451304
0.458566
0.452172
0.46599
0.455452
0.477095
0.467702
0.473779
0.477376
0.501703
0.484053
0.511006
0.511082
0.457996
0.443117
0.506755
0.492195
0.477722
0.492696
0.476769
0.465119
0.513626
0.494763
0.597927
0.598533
0.558588
0.592976
0.606168
0.56541
0.655507
0.635656
0.702672
0.713598
0.748148
0.700815
0.70292
0.703771
0.662131
0.646843
0.609431
0.705465
0.548523
0.529396
0.5826
0.609109
0.285838
0.332782
0.420002
0.538482
0.560884
0.612597
0.512563
0.463728
0.440925
0.377114
0.00097832
0.000694706
0.111175
0.000544109
0.223411
0.285544
0.000993891
0.000203836
0.00100979
0.000545241
0.00024476
0.000470015
0.000926911
0.000208943
0.000497097
0.000986846
0.000766556
0.000551352
1.94996e-05
0.000388285
0.000970624
0.000989567
0.000145684
0.00100026
0.000974682
0.000291525
0.000976501
0.00101954
0.000950231
0.00107661
0.00140395
0.00140446
0.000852655
0.000999494
0.00096777
0.000201819
9.59135e-05
0.000989075
0.000892979
0.0009482
0.00100959
0.000881287
0.001002
0.00100726
2.75699e-05
0.000858928
1.12732
1.14129
1.16272
1.15008
1.12847
1.04989
0.868943
0.957911
0.836014
0.840555
0.816966
0.815207
0.806457
0.807064
0.799264
0.799069
0.740588
0.712666
0.612857
0.652685
0.508763
0.547241
0.000851104
0.000624444
0.000948563
0.000967574
0.000954517
0.00097961
0.000986514
0.000812258
0.000998153
0.000909842
0.000677989
0.000965569
0.000971308
0.000759356
0.000205701
0.000995235
0.000690401
0.00100737
0.000803925
0.000839513
0.000369052
0.000975289
0.000889611
0.000677801
0.0016343
0.000330037
0.000919582
6.63499e-05
8.37699e-06
0.000783192
0.252179
0.0326039
0.251006
0.266697
0.561249
0.382818
0.766697
0.716658
0.784143
0.89465
0.996461
1.0757
1.08536
1.07509
1.11495
1.1432
1.12807
1.12713
0.000994494
0.000723821
0.000886173
0.000193803
0.000948899
0.000922867
0.00081396
0.000914938
0.000890554
0.000940532
0.000975785
0.00092383
0.000794854
1.97028e-05
0.000577249
0.00119052
0.00017596
0.507649
0.506199
0.506382
0.467237
0.385843
0.426121
0.345405
0.343493
0.30324
0.303218
0.260051
0.25399
0.271026
0.273311
0.230948
0.262881
0.257329
0.310901
0.293828
0.289601
0.2147
0.190554
0.188837
0.222783
0.245823
0.250482
0.224983
0.225397
0.186071
0.17649
0.135783
0.139301
0.733475
0.691206
0.741104
0.741449
0.700667
0.646579
0.814103
0.844017
0.907649
0.908326
0.455552
0.50746
0.546803
0.644305
0.46479
0.404368
0.443505
0.436834
0.279233
0.339564
0.416605
0.307693
0.522555
0.518601
0.520818
0.517778
0.536589
0.518712
0.528367
0.544035
0.420926
0.414837
0.308631
0.393873
0.381481
0.343408
0.293263
0.31709
0.250626
0.270277
0.253842
0.3387
0.402252
0.33151
0.398074
0.455337
0.453781
0.448502
0.450774
0.458684
0.477902
0.467665
0.484244
0.483146
0.503443
0.493892
0.515655
0.517429
0.516217
0.516404
0.522132
0.516703
0.559932
0.530427
0.494433
0.491906
0.561838
0.527434
0.537088
0.571517
0.616281
0.608458
0.617543
0.609833
0.64581
0.69031
0.75995
0.771037
0.787709
0.756462
0.896994
0.843228
0.966647
1.00713
0.990413
1.03386
1.08472
0.948996
1.04177
1.06
1.14054
1.18806
1.21029
1.2335
1.26516
1.20321
1.26031
1.21654
1.2989
1.30129
1.34578
1.31335
1.37642
1.40483
1.39779
1.34231
1.40973
1.43041
1.39863
1.3931
1.45986
1.43623
1.46627
1.4069
1.4062
1.47149
1.43738
1.39051
1.39026
1.42156
1.45534
0.5077
0.469235
0.640259
0.635436
0.601917
0.595325
0.601482
0.368138
0.492193
0.196504
0.219041
0.341935
0.316723
0.19828
0.276963
0.25242
0.450254
0.346643
0.325764
0.249238
0.245468
0.253326
0.278496
0.000885166
0.000999411
0.083458
0.000631828
0.0836285
0.0246329
0.00101071
0.000783136
0.000995857
0.000757325
2.66881e-05
0.0012288
0.000842141
0.000928041
0.000887054
0.00110549
3.07128e-05
0.00069126
0.000943677
0.000831092
0.000989923
0.00101139
9.17295e-05
0.000100786
0.000949
0.000255762
3.25826e-05
1.61879e-05
0.000990101
0.000818938
0.00100231
0.000944586
0.000974256
0.000417335
0.000621806
0.000322221
0.000762255
0.000945839
0.000994184
0.00097138
0.000991771
0.00116701
0.00171875
0.000978601
0.0010806
0.000955885
0.000751777
0.00112357
0.00119742
0.00077056
0.00112571
0.00112443
0.000136555
0.000912041
0.000983417
0.000983889
0.000971598
0.000354154
0.00100192
0.000912378
0.00100744
0.000997061
0.000133771
0.000910338
0.000950381
0.000921886
0.000915695
0.000919934
0.000953426
0.00167102
0.000968043
0.000968314
1.11789
1.10423
1.07933
1.07804
0.989463
1.06542
0.886223
0.819305
0.810676
0.808215
0.806779
0.808881
0.743417
0.750679
0.589243
0.548371
0.505016
0.684655
0.685607
0.632445
0.633362
0.630971
0.000923337
0.000612295
0.00193181
0.00168172
0.00100449
0.000344696
0.000173249
0.000421324
0.0010044
0.00100945
0.000161511
0.00100893
0.00108468
0.000988736
0.000297472
0.000985833
0.000726155
0.000967901
0.00021426
0.000868812
0.000683762
0.000951565
0.0013476
0.00138241
0.000658345
8.98798e-06
0.0919025
0.265692
0.389913
0.251386
0.546991
0.725915
0.747231
0.783841
0.859061
0.97552
1.03721
1.01634
1.05526
0.993399
1.0405
1.08008
1.03402
1.03257
0.00147968
0.00096024
0.00105678
0.000868069
0.00107758
0.00122438
0.000188066
0.000790435
0.00122376
0.000939387
0.00100714
0.0011319
0.00100046
1.14836e-05
0.000798512
0.000735623
0.000776991
0.000599932
0.000968046
0.000236686
0.000248866
0.000285238
0.000957616
0.000920252
0.00147237
0.000538035
0.475411
0.480206
0.393006
0.415803
0.28741
0.315483
0.25376
0.249354
0.248883
0.255124
0.223833
0.229291
0.180381
0.187696
0.159506
0.200281
0.281661
0.237715
0.276301
0.282548
0.10621
0.121499
0.158203
0.145588
0.165486
0.170057
0.115953
0.109394
0.0944089
0.104266
0.103927
0.106222
0.948525
0.942628
0.782383
0.686536
0.684895
0.660832
0.948788
0.853016
1.09652
1.17708
1.07374
0.992723
1.18943
1.1682
1.23458
1.28504
1.31369
1.31244
1.34017
1.31241
1.36623
1.39261
1.38707
1.38696
1.40274
1.38923
1.38918
1.43618
1.37946
1.37486
0.516122
0.433109
0.574612
0.659655
0.444564
0.384123
0.443847
0.436792
0.263702
0.327145
0.19573
0.360498
0.242135
0.520525
0.457099
0.516254
0.507145
0.517232
0.405355
0.311348
0.232066
0.213101
0.218431
0.263439
0.189877
0.169537
0.098744
0.187896
0.263329
0.261601
0.176455
0.281821
0.350185
0.293939
0.401001
0.34422
0.385243
0.446248
0.483187
0.454376
0.488705
0.49367
0.505373
0.49054
0.523929
0.537979
0.536572
0.546929
0.552273
0.557055
0.586447
0.597167
0.590937
0.583765
0.581019
0.578061
0.597661
0.610199
0.657773
0.643987
0.615569
0.6381
0.636479
0.676353
0.707525
0.760894
0.789453
0.798447
0.807338
0.867553
0.956245
1.02167
1.04117
1.163
1.03681
1.0931
1.24278
1.26173
1.26588
1.29786
1.35015
1.39452
1.40806
1.40704
1.43688
1.4618
1.48921
1.48681
1.4859
1.48795
1.48685
1.46705
1.40291
1.46769
1.43412
1.3878
1.38761
1.41902
1.45232
1.46106
1.38779
1.448
1.40736
0.297424
0.28718
0.359579
0.432767
0.321609
0.384799
0.526271
0.464312
0.486955
0.317807
0.232229
0.186287
0.185623
0.28782
0.285938
0.000588648
0.0684586
0.265864
0.125262
0.235312
0.248958
0.247934
0.244803
0.246295
0.29178
0.000918709
0.000875099
0.00099131
0.000988601
0.00272575
0.00250056
0.000929462
0.000172666
0.00107058
0.000807354
0.000981197
0.000995181
0.000287667
0.000315336
0.000729851
0.000646803
0.000913702
0.00141502
0.000934557
0.000984534
0.00093177
0.000660221
0.000998234
0.000701989
0.00100779
0.000868975
0.000995306
0.000994479
0.000726736
0.000669436
0.00126595
0.000108563
0.000998798
0.000964947
0.000986504
0.000857415
0.00051784
0.00100992
0.000905713
0.00106334
0.000907325
0.000938424
0.000888818
0.000899842
0.000997415
0.000973529
0.000273071
0.00155164
0.000988561
0.00106672
0.000990111
0.00107165
0.000641972
0.000367709
0.000916152
0.000960434
0.000969801
0.000892128
0.000970546
0.000479733
1.02811
1.02391
1.00907
1.01436
0.93933
1.00608
0.809768
0.876461
0.768251
0.770547
0.712439
0.693223
0.637232
0.635049
0.543651
0.440134
0.41196
0.587714
0.631553
0.632832
0.634945
0.633142
0.00171278
0.00113362
0.0017314
0.000179265
0.00101037
0.000984924
0.000986587
0.0011389
0.0010265
0.000754146
0.000135327
0.000449407
0.00137382
0.00127438
0.000956841
0.00121779
0.000992137
3.39618e-05
0.000985985
0.000873381
0.000243475
0.00114693
0.000109433
0.000968054
0.000473284
0.0764257
0.211029
0.263988
0.455646
0.273687
0.582886
0.729108
0.692174
0.809309
0.971309
0.872398
0.94851
0.946259
0.939029
0.965567
1.02124
1.01722
1.02255
0.993941
0.000769413
0.000946546
0.000601913
0.00106251
0.000806315
0.00107465
0.000653426
0.00035388
0.000799162
0.000879841
0.000957505
0.000686464
0.00133904
0.000428454
0.00101796
0.000796735
0.000956766
0.000987798
0.000672038
0.00107316
0.000715206
0.00107208
0.000915102
0.000934494
0.000997983
0.000860782
0.000668131
0.000842773
0.000136748
0.000756032
0.000938482
0.347487
0.352856
0.316703
0.290696
0.248734
0.274135
0.241238
0.237367
0.395157
0.337897
0.311487
0.166905
0.179247
0.110187
0.113743
0.155902
0.16293
0.148249
0.190465
0.25316
0.19714
0.243499
0.21738
0.116534
0.103393
0.115342
0.127529
0.0811817
0.0767182
0.0788912
0.0904029
0.0989036
0.0918671
0.0485093
0.0492442
1.50497
1.51372
1.5415
1.51839
1.56154
1.54824
1.57136
1.56332
1.61974
1.6063
1.57124
1.62292
1.58824
1.64244
1.47429
1.42682
1.44638
1.49603
1.47689
1.44602
1.44903
1.50246
1.50638
1.48265
1.46235
1.51513
1.49771
1.5049
1.53182
1.38826
1.38813
1.38718
1.38643
1.40455
1.42507
0.994018
0.93262
0.840716
0.734447
0.646447
0.733967
0.932042
0.906242
1.14343
1.1711
1.05306
1.14052
1.17587
1.2261
1.27196
1.31417
1.31001
1.31184
1.30683
1.33717
1.34861
1.37447
1.36054
1.36307
1.36574
1.37545
1.35352
1.35312
0.565936
0.483446
0.435217
0.418268
0.485184
0.658316
0.624949
0.359624
0.422309
0.298618
0.217685
1.49269
1.51404
1.52897
1.53541
1.54137
1.55194
1.55501
1.58247
1.5664
1.58505
1.58275
1.63238
1.65437
1.67766
1.67686
1.68124
1.69532
1.71751
0.232664
0.17446
0.18221
0.44188
0.325592
0.498166
0.401962
0.316424
0.216827
0.212067
0.219952
0.212665
0.0619904
0.130014
0.000816494
1.90047e-06
0.0953804
0.000712782
0.269792
0.204689
0.0942278
0.297545
0.289318
0.298448
0.354134
0.304804
0.436487
0.381315
0.470884
0.431582
0.464689
0.496936
0.514279
0.542666
0.564167
0.559402
0.573045
0.561803
0.622948
0.607603
0.600638
0.597931
0.651139
0.626607
0.689427
0.65521
0.637005
0.677249
0.722303
0.707458
0.733955
0.761477
0.765804
0.717756
0.813751
0.851369
0.819131
0.799907
0.88877
0.964334
1.04276
1.10586
1.05445
1.07395
1.20328
1.25739
1.30444
1.28011
1.34856
1.37439
1.41379
1.4344
1.4264
1.44143
1.49736
1.48137
1.48831
1.49964
1.48928
1.48532
1.48441
1.48613
1.48351
1.48502
1.48392
0.255923
0.268936
0.294219
0.220445
0.236024
0.254958
0.190568
0.338525
0.227798
0.18004
0.192989
0.164941
0.0527149
0.161234
0.17262
0.000463816
1.15869e-05
2.61349e-05
0.0380542
0.253198
0.139815
0.147451
0.128077
0.000638394
1.6854e-06
0.000887946
0.00151379
0.000891952
0.00165853
0.0009971
0.00269804
0.000973022
0.00113218
0.000995636
0.000896251
0.00096702
0.000896738
0.000998449
0.000296694
0.000888291
0.000998945
0.00107396
0.00175064
0.000995955
0.000398457
0.000668916
0.00089098
0.000270015
0.000740386
2.93147e-05
0.000786379
0.00198841
0.000173429
0.00101115
0.000694792
0.000445607
0.000977932
0.00039661
0.00101181
0.000979643
0.000945543
0.000776725
0.000999516
0.000701125
0.000858743
0.00098958
0.000826453
0.000863625
0.000993574
0.00138147
0.00105901
0.000965357
0.000681643
0.000258775
0.000980695
0.00118474
0.000984106
0.000838222
0.00118253
0.000396495
0.000863545
0.000913271
0.00117684
0.000891114
0.000685248
0.00096636
0.0010621
0.000695524
0.000567275
0.00159103
0.000334544
0.000674617
0.000835469
0.000979499
0.00158803
1.67075
1.6371
1.61213
1.71213
1.74526
1.74116
1.00542
1.00727
0.995747
0.991019
0.91283
0.979287
0.80807
0.728926
0.654693
0.671924
0.635782
0.638831
0.636365
0.63319
0.506962
0.425116
0.51741
0.595561
0.598188
0.00093523
0.000987018
0.000875173
0.000890082
0.000985552
0.000718377
0.000963223
0.000493094
0.000966414
0.00047174
0.00100943
0.000972761
0.000867133
0.231735
0.239898
0.292254
0.00105194
0.000253763
0.000128865
0.000910526
4.59314e-06
0.000171335
0.00087866
0.000980266
0.00093383
0.000987799
0.0413262
0.4123
0.571495
0.681445
0.668377
0.987049
0.906731
0.92043
0.708008
0.803098
0.886343
0.939252
0.937473
0.936763
0.954418
0.982933
0.975177
0.000924824
0.00146087
0.000706858
0.000965899
0.000939521
0.000922283
0.000953522
0.000845157
0.000918812
0.00099892
0.000817811
0.000932446
0.000763197
0.000659703
0.000998446
0.000994429
0.000993377
0.00106198
0.000950685
0.00106162
0.000961152
0.000816207
0.000803256
0.000960659
0.00087959
0.000878928
0.000762702
0.000824962
0.000962731
0.000995323
0.00123835
0.000984843
0.000919602
0.00101674
0.000723953
0.00108582
0.00108762
0.347546
0.387682
0.376638
0.310867
0.316035
0.283753
0.309584
0.176071
0.205171
0.114527
0.114997
0.321904
0.30341
0.0718481
0.0659101
0.0669865
0.078447
0.104327
0.0856307
0.130827
0.0667295
0.203397
0.141266
0.18969
0.215158
0.0272015
0.00158496
0.012726
0.0418109
0.0424492
0.0503761
0.00056699
0.000751757
0.000844439
0.000903716
1.48108e-05
0.000894998
1.50415
1.51807
1.54099
1.56289
1.571
1.57108
1.61002
1.58529
1.43942
1.43751
1.42039
1.44171
1.47382
1.43552
1.48007
1.45503
1.37476
1.36287
1.36102
1.39179
1.41999
1.39394
0.999179
0.915188
0.809201
0.909947
0.757825
0.657301
0.911543
0.921121
1.15019
1.15711
1.17022
1.06503
1.14854
1.25821
1.20216
1.14393
1.18911
1.28756
1.30216
1.29078
1.29769
1.3039
1.32717
1.35279
1.34308
1.35194
1.35214
1.35048
1.35063
1.35124
1.35131
0.402328
0.413581
0.540503
0.634538
0.401944
0.494632
0.638504
0.665821
0.404363
0.335857
0.243932
0.327083
1.52373
1.48323
1.50282
1.54721
1.54626
1.54779
1.55664
1.57922
1.59997
1.61015
1.61161
1.61601
1.63742
1.67669
1.66102
1.67725
1.69419
1.73984
1.718
1.55331
1.56499
1.57954
1.74555
1.74571
1.74418
0.153637
0.167071
0.168917
0.1551
0.242865
0.26863
0.0557769
0.108966
0.131701
0.0121039
0.0578163
0.0575606
0.000991354
0.00132697
0.00101624
0.00147214
0.0109242
0.0551843
0.144301
0.0838024
0.0783693
0.22605
0.30619
0.208812
0.370978
0.401824
0.329033
0.376208
0.437156
0.396832
0.528731
0.464785
0.535751
0.555523
0.564895
0.548535
0.599855
0.642667
0.676092
0.676911
0.678366
0.665991
0.691808
0.674875
0.721964
0.722338
0.746111
0.749169
0.725259
0.722085
0.843014
0.882187
0.789286
0.845926
0.894782
0.851474
0.955566
0.996774
1.09773
1.13597
1.11105
1.20541
1.25599
1.35892
1.33957
1.39658
1.3762
1.46887
1.46971
1.46116
1.49482
1.52097
1.51591
1.57286
1.53477
1.56302
1.52366
1.5217
1.55965
1.4879
1.52655
1.48857
0.00164727
0.0011993
0.00196292
0.000839196
0.22527
0.198338
0.182481
0.187563
0.189338
0.0360376
0.00105057
0.00107689
0.000606397
0.0198327
0.000845654
0.000863424
0.0396975
0.00144401
0.000653836
0.000396056
0.00107248
0.00103873
0.000146691
0.00160375
0.00324519
0.000428047
0.000684721
0.00334121
0.00233465
0.0016239
0.000982299
0.000989752
0.000992745
3.8322e-05
0.000987333
0.000979615
0.0010004
0.000112849
0.00044385
0.000919656
0.00180988
0.000761035
0.00252737
0.000272787
0.000984734
0.000331291
0.0009581
0.000364482
0.000990706
2.55632e-05
0.000996296
0.00177882
0.000979394
0.000134455
0.000977026
0.00151924
0.000924226
0.000489809
0.00114501
0.00114379
0.000465046
0.000978876
0.000905099
0.000920528
0.00130986
0.00134105
0.000941908
0.000962515
0.00137991
0.00136402
0.000970787
0.000777107
0.000711032
0.000919589
0.00116777
0.000103994
0.00117228
0.000996353
0.00098702
0.000966821
0.000998033
0.000973417
0.00100423
0.00089072
0.000909543
0.000805878
0.000827454
3.59003e-06
5.59272e-06
0
0.000967847
0.000846395
0.000430028
0.000972763
0.00142077
0.000923733
0.00100958
0.00100998
0.000999613
0.000998553
0.000842276
0.000942584
0.00106262
1.63234
1.64301
1.64504
1.64511
1.67857
1.78584
1.76071
1.76249
1.78617
1.72781
0.915464
0.902471
0.838442
0.840649
0.795468
0.826492
0.735122
0.688826
0.673636
0.636723
0.608923
0.612268
0.516901
0.530763
0.394568
0.436292
0.43901
0.000532675
0.000965684
0.000917419
0.00101332
0.000943241
0.000885617
0.000925631
0.270869
0.40453
0.245424
0.000919443
0.000146952
0.000928612
0.000978347
0.0972647
0.00267212
0.00102016
0.000983483
0.00095051
0.00103019
0.000849804
0.000893508
0.000944045
0.000806133
0.000845067
0.780159
0.783058
0.825717
0.528531
0.684059
0.666947
0.714126
0.826937
0.895186
0.863363
0.766813
0.847971
0.876321
0.878553
0.798051
0.827258
0.000902664
0.00107858
0.0011189
0.00109152
0.000249447
0.000970564
0.00100657
0.00146341
0.000903254
0.000997931
0.000161435
0.00035792
0.00096803
0.000936631
0.000510229
0.00156098
0.0021343
0.00236346
0.000470963
0.000878349
0.000811173
0.000996265
0.000909246
0.000912138
0.000896519
0.00120104
0
0
0
0.000945975
0.000956166
0.00127462
0.00100048
0.000816456
0.000579597
0.00116819
0.000983777
0.000988137
0.000999649
0.000279167
0.000971794
0.000996086
0.000923861
0.000676433
0.000967629
0.366713
0.382087
0.390885
0.251342
0.278219
0.231203
0.235866
0.163825
0.152222
0.0675595
0.0755638
0.0652021
0.0629755
0.167118
0.156891
0.0194925
0.0176972
0.00093108
0.000753775
0.0432827
0.0302934
0.0511579
0.120689
0.199548
0.149358
0.231432
0.168086
0.00178115
0.00134635
0.0100503
0.0370043
0.00147303
0.000879282
0.00085902
0.000987618
0.00108342
0.000956865
0.000894029
0.0026005
1.50939
1.4627
1.54048
1.50167
1.51098
1.55458
1.5463
1.59771
1.57529
1.62494
1.59075
1.55986
1.62486
1.59049
1.40385
1.40419
1.39284
1.407
1.41927
1.43113
1.43091
1.43859
1.34966
1.34971
1.37166
1.35653
1.38539
1.39366
1.00235
0.916803
0.834458
0.922077
0.70616
0.810268
0.911643
0.927948
1.1416
1.14685
1.15116
1.07219
1.23054
1.28053
1.19238
1.14112
1.28529
1.28326
1.2979
1.28272
1.31911
1.34259
1.3495
1.35063
1.34988
1.34661
1.35038
1.35059
1.34927
1.34582
0.409203
0.393398
0.558233
0.6472
0.549521
0.456292
0.702932
0.634764
0.370229
0.404238
0.376931
0.27694
1.52482
1.56136
1.54325
1.56784
1.58796
1.57651
1.61072
1.62343
1.59893
1.61047
1.60216
1.61129
1.61442
1.63844
1.65957
1.67741
1.67587
1.72736
1.70582
1.75253
1.76026
1.63389
1.64872
1.76027
1.76748
0.000875664
0.0450548
0.00101807
0.0568251
0.00283606
0.00108495
0.000984904
0.00123533
0.00148522
0.000241001
0.000945393
0.000370241
0.000882607
0.000657476
5.11672e-06
0.000997884
0.0846367
0.000877713
0.0948021
0.0869396
0.0799233
0.159259
0.304389
0.202053
0.393346
0.386449
0.358535
0.303048
0.421852
0.473522
0.529983
0.511901
0.54173
0.524868
0.6494
0.593786
0.695105
0.687383
0.710664
0.71506
0.690983
0.74515
0.786281
0.761456
0.740543
0.772287
0.823497
0.804984
0.787864
0.824702
0.911062
0.904886
0.906846
0.92031
1.04794
0.967908
1.13641
1.15919
1.16239
1.22541
1.30503
1.3758
1.38753
1.39373
1.44434
1.48678
1.52619
1.52115
1.55773
1.53637
1.58647
1.59744
1.59928
1.59624
1.5976
1.59536
1.56263
1.5963
1.56306
0.000792575
0.00200438
0.00298136
0.000993238
0.00115815
5.3561e-05
0.00101362
0.0751152
0.00112064
0.000996696
0.000733796
0.00155133
0.000651915
0.00105079
0.00145448
0.00152598
0.000932241
0.000995209
0.00195097
0.00380184
0.00412269
0.000996782
0.0001815
0.000977881
5.79229e-07
0.00232468
0.00456771
0.000672105
0.000910486
0.00100976
0.00098461
0.000745201
0.000992111
0.000128189
0.00117893
0.000999528
0.00119269
0.000959982
0.00100986
0.000887496
0.000962023
0.000995793
0.00120827
0.000998354
0.000146754
1.36216e-05
0.000627279
0.00114281
0.000988249
0.000479144
0.000826696
0.000966138
0.000991595
0.000300702
0.000519595
0.00100194
0.00100992
0.000817418
0.000560979
0.000957116
0.00101317
0.000807637
0.00099514
0.000279366
0.00089111
0.000897806
0.000977824
0.00100488
0.00097592
0.000926229
0.000956398
0.000980553
0.00088539
0.000770079
0.000984106
0.000952799
0.000993355
0.00098992
0.000934564
0.000964099
0.000974876
0.000974485
0.00179063
0.000970193
0.000905098
0.000952738
0
0
0
0
0
0
0
0
0
0
0
0
0
0
0
0
0
0
0
0.000938931
0.00090944
0.000952883
0.000753616
0.000899261
0.000436148
0.000962056
0.00112406
0.000348975
0.000811332
0.000317982
0.000878445
1.8125
1.80008
1.81665
1.8099
1.81978
1.81837
1.65869
1.66075
1.72703
1.69465
1.78605
1.80919
1.78426
1.67254
1.62219
0.777816
0.776405
0.779119
0.76367
0.775932
0.702584
0.749276
0.530463
0.589356
0.448862
0.452105
0.397304
0.393702
0.395253
3.56469e-05
0.000973546
0.00048881
0.00139115
0.237615
0.424793
0.252266
0.00123815
0.000690844
0.200006
0.117267
0.000986675
0.00113723
0.000958903
0.000968863
0.00082617
0.000507783
0.00118869
0.00113936
8.12317e-05
0.00101461
0.000932938
0.0004632
0.000842831
0.780313
0.778136
0.781638
0.783118
0.780726
0.49969
0.622766
0.556442
0.680474
0.732338
0.759333
0.689994
0.775497
0.724196
0.723506
0.710123
0.000922194
0.00116086
0.000569715
0.000963932
0.000944542
0.000935143
0.000999526
0.00102048
9.48852e-05
0.000408993
0.00102088
0.000267504
6.92933e-05
0.000527482
0.000969708
0.000616055
0.000813633
0.000919235
0.000956772
0.00101658
0.000688887
0.00095937
0.000740767
0.000726241
0.000621516
0.000982088
0.000936638
0.000862461
0.000348871
2.15212e-05
0
0
0
0
0
0.000969791
0.000985832
0.00095251
0.00119179
0.000967344
0.000774284
0.000835369
0.000126179
0.000961965
0.00100276
0.00075013
0.000942431
0.000549299
0.000917138
0.000787048
0.00088996
0
0
0
0
0
0
0.367383
0.294924
0.287261
0.214686
0.200672
0.122165
0.104636
0.0950497
0.0984966
0.0844512
0.0951379
0.032559
0.0332472
0.000509404
0.00067623
0.0921151
0.101808
0.00096573
0.000905726
0.0012373
0.000952548
0.157817
0.223993
0.132442
0.038422
0.012568
0.0955171
0.0181206
0.099829
0.00100552
0.000879235
0.0023221
0.000700682
0.00162091
0.00162365
0.000628072
0.000959699
0.000281529
0.000798649
0.00100972
0.000818552
1.4724
1.45568
1.48148
1.48158
1.48205
1.5013
1.52334
1.54239
1.54209
1.54338
1.62638
1.58238
1.54798
1.39352
1.39231
1.41933
1.40662
1.43085
1.4312
1.45556
1.43908
1.34923
1.3566
1.37833
1.36212
1.37625
1.38405
1.04129
0.954335
0.87639
0.923428
0.871445
0.766735
0.959273
0.913299
1.14647
1.1512
1.10683
1.1582
1.23662
1.28814
1.14768
1.1984
1.28622
1.28656
1.30809
1.2868
1.32736
1.34704
1.34504
1.34536
1.34439
1.34472
1.3476
1.34492
1.34351
1.34407
0.390934
0.462015
0.64702
0.612847
0.534699
0.630094
0.637523
0.72433
0.396033
0.382356
0.386292
0.291682
0.138344
0.176574
0.263618
1.5949
1.59802
1.62438
1.61758
1.64097
1.6511
1.6522
1.6525
1.6861
1.66794
1.67858
1.64247
1.67241
1.68559
1.7067
1.72778
1.74003
1.73509
1.78805
1.78698
1.8109
1.7868
1.70702
1.70992
1.82105
1.81984
0.000151141
0.000773555
0.000975838
0.000843694
0.000729054
0.00131255
0.00149995
0.000859806
0.000305007
0.00015219
0.000204458
0.00180673
0.00136083
0.000325948
0.000967868
0.000989791
0.00129913
0.000993636
0.141931
0.101031
0.000180211
0.198704
0.234922
0.251317
0.23953
0.33427
0.412855
0.291608
0.51616
0.446503
0.517828
0.52735
0.616843
0.551125
0.67205
0.708233
0.701503
0.703619
0.826996
0.791384
0.760917
0.815114
0.83761
0.830452
0.818659
0.815867
0.831488
0.827137
0.909313
0.946132
0.980872
0.942222
0.982333
1.01391
1.14614
1.08401
1.1759
1.15841
1.24386
1.31333
1.40453
1.39347
1.43355
1.46454
1.53893
1.53351
1.54939
1.55944
1.58558
1.591
1.61156
1.60078
1.61365
1.6069
1.59616
1.61039
1.59465
1.59724
0.00100037
0.00144731
0.00185129
0.000999526
0.00177628
0.000605153
0.000947628
0.000909524
8.0836e-05
0.00180149
0.000833003
0.000907127
0.000295924
0.00177633
0.00177457
0.0017243
0.00187989
0.00206161
0.00205728
0.000469423
0.000371652
0.000973796
0.00119683
0.000913628
0.000194901
0.00100997
0.000982692
0.00100529
0.000124859
0.000993153
0.000624923
0.0009951
9.76461e-05
0.000951482
0.00100863
0.00127133
0.000959848
0.00156067
0.000993441
0.00293914
0.000505833
0.000210438
0.00024578
0.00103761
0.000705096
8.52139e-09
0.00100536
0.00100983
0.000361223
0.000878877
0.00113905
0.00012922
0.00100976
0.000959372
0.000170502
0.000932999
0.000989672
0.000997745
0.00281416
0.000980885
0.000759889
0.00098777
0.000864846
0.000795598
0.00109507
0.00109785
0.00109611
0.000897464
0.000961738
0.000963724
0.000958543
0.000949903
0.000990076
0.000987022
0.000868371
0.00103476
0.000967415
0.000951887
0.000925848
1.67713e-05
0.000881191
0.00092376
0.0003855
0.000414352
0.00098456
0
0
0
0
0
0
0
0
0
0
0
0
0
0
0
0
0
0
0
0.000718312
0.000985512
0.000981037
0.000872622
0.000677308
0.000845977
0.0012178
0.000679283
0.000625555
0.0011566
0.000946968
0.000894528
1.83176
1.85311
1.86343
1.81906
1.82356
1.80946
1.81795
1.7081
1.72715
1.74388
1.75916
1.75881
1.7941
1.81944
1.6673
1.69898
1.61948
1.655
1.64772
0.771299
0.768053
0.671765
0.636244
0.733981
0.660927
0.671302
0.534562
0.564791
0.426551
0.395851
0.392862
0.397342
0.373133
0.000952053
0.000651803
0.335456
0.44871
0.226326
0.000972071
0.000991378
0.1885