/*--------------------------------*- C++ -*----------------------------------*\
  =========                 |
  \\      /  F ield         | OpenFOAM: The Open Source CFD Toolbox
   \\    /   O peration     | Website:  https://openfoam.org
    \\  /    A nd           | Version:  8
     \\/     M anipulation  |
\*---------------------------------------------------------------------------*/
FoamFile
{
    version     2.0;
    format      ascii;
    class       volScalarField;
    location    "420";
    object      Hclip;
}
// * * * * * * * * * * * * * * * * * * * * * * * * * * * * * * * * * * * * * //

dimensions      [0 1 0 0 0 0 0];

internalField   nonuniform List<scalar> 
526318
(
1.01984
0.981264
1.05217
0.962962
1.03449
0.992437
1.00687
0.925852
0.987288
0.865948
0.84685
0.966394
0.912142
0.949763
0.912659
0.939464
0.909839
1.10552
1.01542
1.06143
1.05522
1.01004
0.773724
1.01592
0.898334
0.766391
1.03368
1.03506
1.03472
1.04716
1.07576
1.12185
1.1051
0.989047
0.986295
0.956972
0.961578
1.05078
0.977843
0.926821
0.990137
0.961281
0.627055
0.681079
0.585404
0.633463
0.610053
0.730223
0.912154
0.812966
0.899065
0.897845
0.853569
0.80912
0.311109
0.555352
0.547333
0.35993
1.06076
1.07476
1.09542
1.04681
0.993425
1.12189
1.1149
1.07464
1.0585
1.06071
0.957736
0.950353
1.06889
0.844816
0.898553
0.788177
0.745246
0.735247
0.834018
0.825798
0.74288
0.781323
0.861164
0.861441
0.814811
0.771367
0.799768
0.865529
0.867443
0.840703
0.791597
0.863246
0.770935
0.713537
0.709403
0.641117
0.637608
0.638682
0.643219
0.633732
0.6338
0.631738
0.0932686
0.0462293
0.122281
0.156649
0.216698
0.00528385
0.567763
0.377966
0.693164
0.653771
0.69494
0.814179
1.03732
0.925253
1.03479
1.04859
1.11314
1.08514
1.12914
0.631465
0.627338
0.628462
0.638171
0.590969
0.627315
0.535943
0.583294
0.491588
0.53883
0.488992
0.491278
0.479984
0.453712
0.445297
0.473457
0.411578
0.467099
0.418617
0.437457
0.379204
0.387758
0.409765
0.435326
0.420964
0.381771
0.378075
0.397464
0.381392
0.382168
0.388442
0.397936
0.388707
0.386692
0.391619
0.388773
0.351314
0.38761
0.390351
0.35706
0.312849
0.389166
0.334685
0.394375
0.914194
1.0053
0.953591
0.937712
0.737639
0.804479
0.735769
0.734666
0.733232
0.73133
0.751272
0.732167
0.666862
0.631765
0.59669
0.543896
0.602369
0.636621
0.642163
0.634313
0.517421
0.577808
0.462773
0.469657
0.48024
0.471733
0.472348
0.475292
0.463964
0.464001
0.458848
0.451231
0.4338
0.452867
0.44593
0.421321
0.399349
0.423892
0.407129
0.396448
0.419364
0.408217
0.413798
0.372275
0.388162
0.420842
0.42203
0.901694
0.916854
0.950546
0.919089
0.907122
0.900232
0.901083
0.779981
0.8223
0.566583
0.551336
0.548227
0.665562
0.806288
0.680681
0.715184
0.722527
0.66767
0.641989
0.151589
0.001
0.313643
0.493763
0.001
0.001
0.001
0.001
0.001
0.001
1.11444
1.0922
1.1442
1.13396
1.10307
1.0897
0.995398
1.08552
0.926344
0.868056
0.868828
0.867046
0.866933
0.866678
0.853608
0.852106
0.768465
0.830254
0.647015
0.701249
0.63055
0.641951
0.001
0.001
0.00104153
0.001
0.137331
0.0766301
0.130394
0.287643
0.668443
0.471096
0.71504
0.709734
0.82167
0.927719
1.04549
1.05081
1.08551
1.06197
1.12874
1.15764
0.611283
0.608214
0.568648
0.541843
0.436289
0.47224
0.397214
0.407385
0.398826
0.389438
0.378161
0.38809
0.308966
0.32796
0.363849
0.39733
0.456442
0.416419
0.38498
0.376141
0.316398
0.307555
0.357644
0.413063
0.334264
0.38361
0.377231
0.345913
0.34832
0.310034
0.312448
0.266929
0.272009
0.269473
0.260447
0.381161
0.41692
0.375912
0.414423
0.807081
0.771571
0.668216
0.756029
0.674805
0.726088
0.733264
0.725042
0.730741
0.733472
0.643951
0.552487
0.477941
0.467017
0.53632
0.484359
0.459308
0.57852
0.469868
0.509091
0.45179
0.450845
0.462806
0.452934
0.467218
0.461883
0.459296
0.463406
0.462608
0.458804
0.471236
0.462819
0.478167
0.47279
0.473379
0.456543
0.465482
0.45336
0.422163
0.423604
0.450962
0.477756
0.468484
0.445813
0.429305
0.454624
0.494643
0.490695
0.497986
0.465032
0.5005
0.51847
0.550516
0.496152
0.50988
0.529389
0.570613
0.726876
0.806018
0.721533
0.756909
0.832135
0.892526
0.802973
0.663188
0.780477
0.680724
0.70337
0.436248
0.385475
0.419508
0.402085
0.516154
0.642411
0.571331
0.645379
0.635591
0.664833
0.636568
0.001
0.0658526
0.217549
0.0671264
0.299821
0.187499
0.001
0.00231379
0.001
0.00100962
0.001
0.00100889
0.001
0.001
0.001
0.001
1.13769
1.12466
1.16431
1.15097
1.12979
1.0961
1.02413
0.934361
0.867286
0.881183
0.857146
0.855485
0.834022
0.835486
0.812355
0.813875
0.76158
0.802993
0.723275
0.668206
0.609607
0.570626
0.001
0.00170472
0.00102296
0.001
0.001
0.001
0.001
0.001
0.0020349
0.00175711
0.001
0.00100984
0.001
0.00100942
0.00139252
0.001
0.001
0.00219765
0.001
0.001
0.109633
0.001
0.197172
0.185325
0.377939
0.21234
0.572596
0.742955
0.747689
0.846558
1.06295
0.954177
1.07431
1.07402
1.08682
1.11553
1.14701
1.16279
0.527831
0.529846
0.480349
0.507333
0.444094
0.405901
0.395531
0.399417
0.388073
0.400038
0.352433
0.340799
0.286233
0.294282
0.349708
0.324434
0.296621
0.341935
0.339055
0.357831
0.269308
0.258227
0.27667
0.302848
0.298587
0.260117
0.260162
0.258396
0.259653
0.241422
0.242161
0.537826
0.50002
0.503736
0.509769
0.519729
0.628641
0.596534
0.577063
0.450249
0.499411
0.476873
0.487509
0.389664
0.322352
0.535902
0.653246
0.537318
0.541095
0.520173
0.602956
0.580876
0.651005
0.681688
0.610135
0.585508
0.622676
0.496827
0.463638
0.465194
0.459839
0.375482
0.436017
0.353962
0.308589
0.285835
0.402841
0.402646
0.453726
0.454537
0.450184
0.455855
0.451304
0.458566
0.452172
0.46599
0.455452
0.477095
0.467702
0.473779
0.477376
0.501703
0.484053
0.511006
0.511082
0.457996
0.443117
0.506755
0.492195
0.477722
0.492696
0.476769
0.465119
0.513626
0.494763
0.597927
0.598533
0.558588
0.592976
0.606168
0.56541
0.655507
0.635656
0.702672
0.713598
0.748148
0.700815
0.70292
0.703771
0.662131
0.646843
0.609431
0.705465
0.548523
0.529396
0.5826
0.609109
0.285838
0.332782
0.420002
0.538482
0.560884
0.612597
0.512563
0.463728
0.440925
0.377114
0.001
0.001
0.111175
0.001
0.223411
0.285544
0.001
0.001
0.00100979
0.001
0.001
0.001
0.001
0.001
0.001
0.001
0.001
0.001
0.001
0.001
0.001
0.001
0.001
0.00100026
0.001
0.001
0.001
0.00101954
0.001
0.00107661
0.00140395
0.00140446
0.001
0.001
0.001
0.001
0.001
0.001
0.001
0.001
0.00100959
0.001
0.001002
0.00100726
0.001
0.001
1.12732
1.14129
1.16272
1.15008
1.12847
1.04989
0.868943
0.957911
0.836014
0.840555
0.816966
0.815207
0.806457
0.807064
0.799264
0.799069
0.740588
0.712666
0.612857
0.652685
0.508763
0.547241
0.001
0.001
0.001
0.001
0.001
0.001
0.001
0.001
0.001
0.001
0.001
0.001
0.001
0.001
0.001
0.001
0.001
0.00100737
0.001
0.001
0.001
0.001
0.001
0.001
0.0016343
0.001
0.001
0.001
0.001
0.001
0.252179
0.0326039
0.251006
0.266697
0.561249
0.382818
0.766697
0.716658
0.784143
0.89465
0.996461
1.0757
1.08536
1.07509
1.11495
1.1432
1.12807
1.12713
0.001
0.001
0.001
0.001
0.001
0.001
0.001
0.001
0.001
0.001
0.001
0.001
0.001
0.001
0.001
0.00119052
0.001
0.507649
0.506199
0.506382
0.467237
0.385843
0.426121
0.345405
0.343493
0.30324
0.303218
0.260051
0.25399
0.271026
0.273311
0.230948
0.262881
0.257329
0.310901
0.293828
0.289601
0.2147
0.190554
0.188837
0.222783
0.245823
0.250482
0.224983
0.225397
0.186071
0.17649
0.135783
0.139301
0.733475
0.691206
0.741104
0.741449
0.700667
0.646579
0.814103
0.844017
0.907649
0.908326
0.455552
0.50746
0.546803
0.644305
0.46479
0.404368
0.443505
0.436834
0.279233
0.339564
0.416605
0.307693
0.522555
0.518601
0.520818
0.517778
0.536589
0.518712
0.528367
0.544035
0.420926
0.414837
0.308631
0.393873
0.381481
0.343408
0.293263
0.31709
0.250626
0.270277
0.253842
0.3387
0.402252
0.33151
0.398074
0.455337
0.453781
0.448502
0.450774
0.458684
0.477902
0.467665
0.484244
0.483146
0.503443
0.493892
0.515655
0.517429
0.516217
0.516404
0.522132
0.516703
0.559932
0.530427
0.494433
0.491906
0.561838
0.527434
0.537088
0.571517
0.616281
0.608458
0.617543
0.609833
0.64581
0.69031
0.75995
0.771037
0.787709
0.756462
0.896994
0.843228
0.966647
1.00713
0.990413
1.03386
1.08472
0.948996
1.04177
1.06
1.14054
1.18806
1.21029
1.2335
1.26516
1.20321
1.26031
1.21654
1.2989
1.30129
1.34578
1.31335
1.37642
1.40483
1.39779
1.34231
1.40973
1.43041
1.39863
1.3931
1.45986
1.43623
1.46627
1.4069
1.4062
1.47149
1.43738
1.39051
1.39026
1.42156
1.45534
0.5077
0.469235
0.640259
0.635436
0.601917
0.595325
0.601482
0.368138
0.492193
0.196504
0.219041
0.341935
0.316723
0.19828
0.276963
0.25242
0.450254
0.346643
0.325764
0.249238
0.245468
0.253326
0.278496
0.001
0.001
0.083458
0.001
0.0836285
0.0246329
0.00101071
0.001
0.001
0.001
0.001
0.0012288
0.001
0.001
0.001
0.00110549
0.001
0.001
0.001
0.001
0.001
0.00101139
0.001
0.001
0.001
0.001
0.001
0.001
0.001
0.001
0.00100231
0.001
0.001
0.001
0.001
0.001
0.001
0.001
0.001
0.001
0.001
0.00116701
0.00171875
0.001
0.0010806
0.001
0.001
0.00112357
0.00119742
0.001
0.00112571
0.00112443
0.001
0.001
0.001
0.001
0.001
0.001
0.00100192
0.001
0.00100744
0.001
0.001
0.001
0.001
0.001
0.001
0.001
0.001
0.00167102
0.001
0.001
1.11789
1.10423
1.07933
1.07804
0.989463
1.06542
0.886223
0.819305
0.810676
0.808215
0.806779
0.808881
0.743417
0.750679
0.589243
0.548371
0.505016
0.684655
0.685607
0.632445
0.633362
0.630971
0.001
0.001
0.00193181
0.00168172
0.00100449
0.001
0.001
0.001
0.0010044
0.00100945
0.001
0.00100893
0.00108468
0.001
0.001
0.001
0.001
0.001
0.001
0.001
0.001
0.001
0.0013476
0.00138241
0.001
0.001
0.0919025
0.265692
0.389913
0.251386
0.546991
0.725915
0.747231
0.783841
0.859061
0.97552
1.03721
1.01634
1.05526
0.993399
1.0405
1.08008
1.03402
1.03257
0.00147968
0.001
0.00105678
0.001
0.00107758
0.00122438
0.001
0.001
0.00122376
0.001
0.00100714
0.0011319
0.00100046
0.001
0.001
0.001
0.001
0.001
0.001
0.001
0.001
0.001
0.001
0.001
0.00147237
0.001
0.475411
0.480206
0.393006
0.415803
0.28741
0.315483
0.25376
0.249354
0.248883
0.255124
0.223833
0.229291
0.180381
0.187696
0.159506
0.200281
0.281661
0.237715
0.276301
0.282548
0.10621
0.121499
0.158203
0.145588
0.165486
0.170057
0.115953
0.109394
0.0944089
0.104266
0.103927
0.106222
0.948525
0.942628
0.782383
0.686536
0.684895
0.660832
0.948788
0.853016
1.09652
1.17708
1.07374
0.992723
1.18943
1.1682
1.23458
1.28504
1.31369
1.31244
1.34017
1.31241
1.36623
1.39261
1.38707
1.38696
1.40274
1.38923
1.38918
1.43618
1.37946
1.37486
0.516122
0.433109
0.574612
0.659655
0.444564
0.384123
0.443847
0.436792
0.263702
0.327145
0.19573
0.360498
0.242135
0.520525
0.457099
0.516254
0.507145
0.517232
0.405355
0.311348
0.232066
0.213101
0.218431
0.263439
0.189877
0.169537
0.098744
0.187896
0.263329
0.261601
0.176455
0.281821
0.350185
0.293939
0.401001
0.34422
0.385243
0.446248
0.483187
0.454376
0.488705
0.49367
0.505373
0.49054
0.523929
0.537979
0.536572
0.546929
0.552273
0.557055
0.586447
0.597167
0.590937
0.583765
0.581019
0.578061
0.597661
0.610199
0.657773
0.643987
0.615569
0.6381
0.636479
0.676353
0.707525
0.760894
0.789453
0.798447
0.807338
0.867553
0.956245
1.02167
1.04117
1.163
1.03681
1.0931
1.24278
1.26173
1.26588
1.29786
1.35015
1.39452
1.40806
1.40704
1.43688
1.4618
1.48921
1.48681
1.4859
1.48795
1.48685
1.46705
1.40291
1.46769
1.43412
1.3878
1.38761
1.41902
1.45232
1.46106
1.38779
1.448
1.40736
0.297424
0.28718
0.359579
0.432767
0.321609
0.384799
0.526271
0.464312
0.486955
0.317807
0.232229
0.186287
0.185623
0.28782
0.285938
0.001
0.0684586
0.265864
0.125262
0.235312
0.248958
0.247934
0.244803
0.246295
0.29178
0.001
0.001
0.001
0.001
0.00272575
0.00250056
0.001
0.001
0.00107058
0.001
0.001
0.001
0.001
0.001
0.001
0.001
0.001
0.00141502
0.001
0.001
0.001
0.001
0.001
0.001
0.00100779
0.001
0.001
0.001
0.001
0.001
0.00126595
0.001
0.001
0.001
0.001
0.001
0.001
0.00100992
0.001
0.00106334
0.001
0.001
0.001
0.001
0.001
0.001
0.001
0.00155164
0.001
0.00106672
0.001
0.00107165
0.001
0.001
0.001
0.001
0.001
0.001
0.001
0.001
1.02811
1.02391
1.00907
1.01436
0.93933
1.00608
0.809768
0.876461
0.768251
0.770547
0.712439
0.693223
0.637232
0.635049
0.543651
0.440134
0.41196
0.587714
0.631553
0.632832
0.634945
0.633142
0.00171278
0.00113362
0.0017314
0.001
0.00101037
0.001
0.001
0.0011389
0.0010265
0.001
0.001
0.001
0.00137382
0.00127438
0.001
0.00121779
0.001
0.001
0.001
0.001
0.001
0.00114693
0.001
0.001
0.001
0.0764257
0.211029
0.263988
0.455646
0.273687
0.582886
0.729108
0.692174
0.809309
0.971309
0.872398
0.94851
0.946259
0.939029
0.965567
1.02124
1.01722
1.02255
0.993941
0.001
0.001
0.001
0.00106251
0.001
0.00107465
0.001
0.001
0.001
0.001
0.001
0.001
0.00133904
0.001
0.00101796
0.001
0.001
0.001
0.001
0.00107316
0.001
0.00107208
0.001
0.001
0.001
0.001
0.001
0.001
0.001
0.001
0.001
0.347487
0.352856
0.316703
0.290696
0.248734
0.274135
0.241238
0.237367
0.395157
0.337897
0.311487
0.166905
0.179247
0.110187
0.113743
0.155902
0.16293
0.148249
0.190465
0.25316
0.19714
0.243499
0.21738
0.116534
0.103393
0.115342
0.127529
0.0811817
0.0767182
0.0788912
0.0904029
0.0989036
0.0918671
0.0485093
0.0492442
1.50497
1.51372
1.5415
1.51839
1.56154
1.54824
1.57136
1.56332
1.61974
1.6063
1.57124
1.62292
1.58824
1.64244
1.47429
1.42682
1.44638
1.49603
1.47689
1.44602
1.44903
1.50246
1.50638
1.48265
1.46235
1.51513
1.49771
1.5049
1.53182
1.38826
1.38813
1.38718
1.38643
1.40455
1.42507
0.994018
0.93262
0.840716
0.734447
0.646447
0.733967
0.932042
0.906242
1.14343
1.1711
1.05306
1.14052
1.17587
1.2261
1.27196
1.31417
1.31001
1.31184
1.30683
1.33717
1.34861
1.37447
1.36054
1.36307
1.36574
1.37545
1.35352
1.35312
0.565936
0.483446
0.435217
0.418268
0.485184
0.658316
0.624949
0.359624
0.422309
0.298618
0.217685
1.49269
1.51404
1.52897
1.53541
1.54137
1.55194
1.55501
1.58247
1.5664
1.58505
1.58275
1.63238
1.65437
1.67766
1.67686
1.68124
1.69532
1.71751
0.232664
0.17446
0.18221
0.44188
0.325592
0.498166
0.401962
0.316424
0.216827
0.212067
0.219952
0.212665
0.0619904
0.130014
0.001
0.001
0.0953804
0.001
0.269792
0.204689
0.0942278
0.297545
0.289318
0.298448
0.354134
0.304804
0.436487
0.381315
0.470884
0.431582
0.464689
0.496936
0.514279
0.542666
0.564167
0.559402
0.573045
0.561803
0.622948
0.607603
0.600638
0.597931
0.651139
0.626607
0.689427
0.65521
0.637005
0.677249
0.722303
0.707458
0.733955
0.761477
0.765804
0.717756
0.813751
0.851369
0.819131
0.799907
0.88877
0.964334
1.04276
1.10586
1.05445
1.07395
1.20328
1.25739
1.30444
1.28011
1.34856
1.37439
1.41379
1.4344
1.4264
1.44143
1.49736
1.48137
1.48831
1.49964
1.48928
1.48532
1.48441
1.48613
1.48351
1.48502
1.48392
0.255923
0.268936
0.294219
0.220445
0.236024
0.254958
0.190568
0.338525
0.227798
0.18004
0.192989
0.164941
0.0527149
0.161234
0.17262
0.001
0.001
0.001
0.0380542
0.253198
0.139815
0.147451
0.128077
0.001
0.001
0.001
0.00151379
0.001
0.00165853
0.001
0.00269804
0.001
0.00113218
0.001
0.001
0.001
0.001
0.001
0.001
0.001
0.001
0.00107396
0.00175064
0.001
0.001
0.001
0.001
0.001
0.001
0.001
0.001
0.00198841
0.001
0.00101115
0.001
0.001
0.001
0.001
0.00101181
0.001
0.001
0.001
0.001
0.001
0.001
0.001
0.001
0.001
0.001
0.00138147
0.00105901
0.001
0.001
0.001
0.001
0.00118474
0.001
0.001
0.00118253
0.001
0.001
0.001
0.00117684
0.001
0.001
0.001
0.0010621
0.001
0.001
0.00159103
0.001
0.001
0.001
0.001
0.00158803
1.67075
1.6371
1.61213
1.71213
1.74526
1.74116
1.00542
1.00727
0.995747
0.991019
0.91283
0.979287
0.80807
0.728926
0.654693
0.671924
0.635782
0.638831
0.636365
0.63319
0.506962
0.425116
0.51741
0.595561
0.598188
0.001
0.001
0.001
0.001
0.001
0.001
0.001
0.001
0.001
0.001
0.00100943
0.001
0.001
0.231735
0.239898
0.292254
0.00105194
0.001
0.001
0.001
0.001
0.001
0.001
0.001
0.001
0.001
0.0413262
0.4123
0.571495
0.681445
0.668377
0.987049
0.906731
0.92043
0.708008
0.803098
0.886343
0.939252
0.937473
0.936763
0.954418
0.982933
0.975177
0.001
0.00146087
0.001
0.001
0.001
0.001
0.001
0.001
0.001
0.001
0.001
0.001
0.001
0.001
0.001
0.001
0.001
0.00106198
0.001
0.00106162
0.001
0.001
0.001
0.001
0.001
0.001
0.001
0.001
0.001
0.001
0.00123835
0.001
0.001
0.00101674
0.001
0.00108582
0.00108762
0.347546
0.387682
0.376638
0.310867
0.316035
0.283753
0.309584
0.176071
0.205171
0.114527
0.114997
0.321904
0.30341
0.0718481
0.0659101
0.0669865
0.078447
0.104327
0.0856307
0.130827
0.0667295
0.203397
0.141266
0.18969
0.215158
0.0272015
0.00158496
0.012726
0.0418109
0.0424492
0.0503761
0.001
0.001
0.001
0.001
0.001
0.001
1.50415
1.51807
1.54099
1.56289
1.571
1.57108
1.61002
1.58529
1.43942
1.43751
1.42039
1.44171
1.47382
1.43552
1.48007
1.45503
1.37476
1.36287
1.36102
1.39179
1.41999
1.39394
0.999179
0.915188
0.809201
0.909947
0.757825
0.657301
0.911543
0.921121
1.15019
1.15711
1.17022
1.06503
1.14854
1.25821
1.20216
1.14393
1.18911
1.28756
1.30216
1.29078
1.29769
1.3039
1.32717
1.35279
1.34308
1.35194
1.35214
1.35048
1.35063
1.35124
1.35131
0.402328
0.413581
0.540503
0.634538
0.401944
0.494632
0.638504
0.665821
0.404363
0.335857
0.243932
0.327083
1.52373
1.48323
1.50282
1.54721
1.54626
1.54779
1.55664
1.57922
1.59997
1.61015
1.61161
1.61601
1.63742
1.67669
1.66102
1.67725
1.69419
1.73984
1.718
1.55331
1.56499
1.57954
1.74555
1.74571
1.74418
0.153637
0.167071
0.168917
0.1551
0.242865
0.26863
0.0557769
0.108966
0.131701
0.0121039
0.0578163
0.0575606
0.001
0.00132697
0.00101624
0.00147214
0.0109242
0.0551843
0.144301
0.0838024
0.0783693
0.22605
0.30619
0.208812
0.370978
0.401824
0.329033
0.376208
0.437156
0.396832
0.528731
0.464785
0.535751
0.555523
0.564895
0.548535
0.599855
0.642667
0.676092
0.676911
0.678366
0.665991
0.691808
0.674875
0.721964
0.722338
0.746111
0.749169
0.725259
0.722085
0.843014
0.882187
0.789286
0.845926
0.894782
0.851474
0.955566
0.996774
1.09773
1.13597
1.11105
1.20541
1.25599
1.35892
1.33957
1.39658
1.3762
1.46887
1.46971
1.46116
1.49482
1.52097
1.51591
1.57286
1.53477
1.56302
1.52366
1.5217
1.55965
1.4879
1.52655
1.48857
0.00164727
0.0011993
0.00196292
0.001
0.22527
0.198338
0.182481
0.187563
0.189338
0.0360376
0.00105057
0.00107689
0.001
0.0198327
0.001
0.001
0.0396975
0.00144401
0.001
0.001
0.00107248
0.00103873
0.001
0.00160375
0.00324519
0.001
0.001
0.00334121
0.00233465
0.0016239
0.001
0.001
0.001
0.001
0.001
0.001
0.0010004
0.001
0.001
0.001
0.00180988
0.001
0.00252737
0.001
0.001
0.001
0.001
0.001
0.001
0.001
0.001
0.00177882
0.001
0.001
0.001
0.00151924
0.001
0.001
0.00114501
0.00114379
0.001
0.001
0.001
0.001
0.00130986
0.00134105
0.001
0.001
0.00137991
0.00136402
0.001
0.001
0.001
0.001
0.00116777
0.001
0.00117228
0.001
0.001
0.001
0.001
0.001
0.00100423
0.001
0.001
0.001
0.001
0.001
0.001
0.001
0.001
0.001
0.001
0.001
0.00142077
0.001
0.00100958
0.00100998
0.001
0.001
0.001
0.001
0.00106262
1.63234
1.64301
1.64504
1.64511
1.67857
1.78584
1.76071
1.76249
1.78617
1.72781
0.915464
0.902471
0.838442
0.840649
0.795468
0.826492
0.735122
0.688826
0.673636
0.636723
0.608923
0.612268
0.516901
0.530763
0.394568
0.436292
0.43901
0.001
0.001
0.001
0.00101332
0.001
0.001
0.001
0.270869
0.40453
0.245424
0.001
0.001
0.001
0.001
0.0972647
0.00267212
0.00102016
0.001
0.001
0.00103019
0.001
0.001
0.001
0.001
0.001
0.780159
0.783058
0.825717
0.528531
0.684059
0.666947
0.714126
0.826937
0.895186
0.863363
0.766813
0.847971
0.876321
0.878553
0.798051
0.827258
0.001
0.00107858
0.0011189
0.00109152
0.001
0.001
0.00100657
0.00146341
0.001
0.001
0.001
0.001
0.001
0.001
0.001
0.00156098
0.0021343
0.00236346
0.001
0.001
0.001
0.001
0.001
0.001
0.001
0.00120104
0.001
0.001
0.001
0.001
0.001
0.00127462
0.00100048
0.001
0.001
0.00116819
0.001
0.001
0.001
0.001
0.001
0.001
0.001
0.001
0.001
0.366713
0.382087
0.390885
0.251342
0.278219
0.231203
0.235866
0.163825
0.152222
0.0675595
0.0755638
0.0652021
0.0629755
0.167118
0.156891
0.0194925
0.0176972
0.001
0.001
0.0432827
0.0302934
0.0511579
0.120689
0.199548
0.149358
0.231432
0.168086
0.00178115
0.00134635
0.0100503
0.0370043
0.00147303
0.001
0.001
0.001
0.00108342
0.001
0.001
0.0026005
1.50939
1.4627
1.54048
1.50167
1.51098
1.55458
1.5463
1.59771
1.57529
1.62494
1.59075
1.55986
1.62486
1.59049
1.40385
1.40419
1.39284
1.407
1.41927
1.43113
1.43091
1.43859
1.34966
1.34971
1.37166
1.35653
1.38539
1.39366
1.00235
0.916803
0.834458
0.922077
0.70616
0.810268
0.911643
0.927948
1.1416
1.14685
1.15116
1.07219
1.23054
1.28053
1.19238
1.14112
1.28529
1.28326
1.2979
1.28272
1.31911
1.34259
1.3495
1.35063
1.34988
1.34661
1.35038
1.35059
1.34927
1.34582
0.409203
0.393398
0.558233
0.6472
0.549521
0.456292
0.702932
0.634764
0.370229
0.404238
0.376931
0.27694
1.52482
1.56136
1.54325
1.56784
1.58796
1.57651
1.61072
1.62343
1.59893
1.61047
1.60216
1.61129
1.61442
1.63844
1.65957
1.67741
1.67587
1.72736
1.70582
1.75253
1.76026
1.63389
1.64872
1.76027
1.76748
0.001
0.0450548
0.00101807
0.0568251
0.00283606
0.00108495
0.001
0.00123533
0.00148522
0.001
0.001
0.001
0.001
0.001
0.001
0.001
0.0846367
0.001
0.0948021
0.0869396
0.0799233
0.159259
0.304389
0.202053
0.393346
0.386449
0.358535
0.303048
0.421852
0.473522
0.529983
0.511901
0.54173
0.524868
0.6494
0.593786
0.695105
0.687383
0.710664
0.71506
0.690983
0.74515
0.786281
0.761456
0.740543
0.772287
0.823497
0.804984
0.787864
0.824702
0.911062
0.904886
0.906846
0.92031
1.04794
0.967908
1.13641
1.15919
1.16239
1.22541
1.30503
1.3758
1.38753
1.39373
1.44434
1.48678
1.52619
1.52115
1.55773
1.53637
1.58647
1.59744
1.59928
1.59624
1.5976
1.59536
1.56263
1.5963
1.56306
0.001
0.00200438
0.00298136
0.001
0.00115815
0.001
0.00101362
0.0751152
0.00112064
0.001
0.001
0.00155133
0.001
0.00105079
0.00145448
0.00152598
0.001
0.001
0.00195097
0.00380184
0.00412269
0.001
0.001
0.001
0.001
0.00232468
0.00456771
0.001
0.001
0.00100976
0.001
0.001
0.001
0.001
0.00117893
0.001
0.00119269
0.001
0.00100986
0.001
0.001
0.001
0.00120827
0.001
0.001
0.001
0.001
0.00114281
0.001
0.001
0.001
0.001
0.001
0.001
0.001
0.00100194
0.00100992
0.001
0.001
0.001
0.00101317
0.001
0.001
0.001
0.001
0.001
0.001
0.00100488
0.001
0.001
0.001
0.001
0.001
0.001
0.001
0.001
0.001
0.001
0.001
0.001
0.001
0.001
0.00179063
0.001
0.001
0.001
0.001
0.001
0.001
0.001
0.001
0.001
0.001
0.001
0.001
0.001
0.001
0.001
0.001
0.001
0.001
0.001
0.001
0.001
0.001
0.001
0.001
0.001
0.001
0.001
0.001
0.001
0.00112406
0.001
0.001
0.001
0.001
1.8125
1.80008
1.81665
1.8099
1.81978
1.81837
1.65869
1.66075
1.72703
1.69465
1.78605
1.80919
1.78426
1.67254
1.62219
0.777816
0.776405
0.779119
0.76367
0.775932
0.702584
0.749276
0.530463
0.589356
0.448862
0.452105
0.397304
0.393702
0.395253
0.001
0.001
0.001
0.00139115
0.237615
0.424793
0.252266
0.00123815
0.001
0.200006
0.117267
0.001
0.00113723
0.001
0.001
0.001
0.001
0.00118869
0.00113936
0.001
0.00101461
0.001
0.001
0.001
0.780313
0.778136
0.781638
0.783118
0.780726
0.49969
0.622766
0.556442
0.680474
0.732338
0.759333
0.689994
0.775497
0.724196
0.723506
0.710123
0.001
0.00116086
0.001
0.001
0.001
0.001
0.001
0.00102048
0.001
0.001
0.00102088
0.001
0.001
0.001
0.001
0.001
0.001
0.001
0.001
0.00101658
0.001
0.001
0.001
0.001
0.001
0.001
0.001
0.001
0.001
0.001
0.001
0.001
0.001
0.001
0.001
0.001
0.001
0.001
0.00119179
0.001
0.001
0.001
0.001
0.001
0.00100276
0.001
0.001
0.001
0.001
0.001
0.001
0.001
0.001
0.001
0.001
0.001
0.001
0.367383
0.294924
0.287261
0.214686
0.200672
0.122165
0.104636
0.0950497
0.0984966
0.0844512
0.0951379
0.032559
0.0332472
0.001
0.001
0.0921151
0.101808
0.001
0.001
0.0012373
0.001
0.157817
0.223993
0.132442
0.038422
0.012568
0.0955171
0.0181206
0.099829
0.00100552
0.001
0.0023221
0.001
0.00162091
0.00162365
0.001
0.001
0.001
0.001
0.00100972
0.001
1.4724
1.45568
1.48148
1.48158
1.48205
1.5013
1.52334
1.54239
1.54209
1.54338
1.62638
1.58238
1.54798
1.39352
1.39231
1.41933
1.40662
1.43085
1.4312
1.45556
1.43908
1.34923
1.3566
1.37833
1.36212
1.37625
1.38405
1.04129
0.954335
0.87639
0.923428
0.871445
0.766735
0.959273
0.913299
1.14647
1.1512
1.10683
1.1582
1.23662
1.28814
1.14768
1.1984
1.28622
1.28656
1.30809
1.2868
1.32736
1.34704
1.34504
1.34536
1.34439
1.34472
1.3476
1.34492
1.34351
1.34407
0.390934
0.462015
0.64702
0.612847
0.534699
0.630094
0.637523
0.72433
0.396033
0.382356
0.386292
0.291682
0.138344
0.176574
0.263618
1.5949
1.59802
1.62438
1.61758
1.64097
1.6511
1.6522
1.6525
1.6861
1.66794
1.67858
1.64247
1.67241
1.68559
1.7067
1.72778
1.74003
1.73509
1.78805
1.78698
1.8109
1.7868
1.70702
1.70992
1.82105
1.81984
0.001
0.001
0.001
0.001
0.001
0.00131255
0.00149995
0.001
0.001
0.001
0.001
0.00180673
0.00136083
0.001
0.001
0.001
0.00129913
0.001
0.141931
0.101031
0.001
0.198704
0.234922
0.251317
0.23953
0.33427
0.412855
0.291608
0.51616
0.446503
0.517828
0.52735
0.616843
0.551125
0.67205
0.708233
0.701503
0.703619
0.826996
0.791384
0.760917
0.815114
0.83761
0.830452
0.818659
0.815867
0.831488
0.827137
0.909313
0.946132
0.980872
0.942222
0.982333
1.01391
1.14614
1.08401
1.1759
1.15841
1.24386
1.31333
1.40453
1.39347
1.43355
1.46454
1.53893
1.53351
1.54939
1.55944
1.58558
1.591
1.61156
1.60078
1.61365
1.6069
1.59616
1.61039
1.59465
1.59724
0.00100037
0.00144731
0.00185129
0.001
0.00177628
0.001
0.001
0.001
0.001
0.00180149
0.001
0.001
0.001
0.00177633
0.00177457
0.0017243
0.00187989
0.00206161
0.00205728
0.001
0.001
0.001
0.00119683
0.001
0.001
0.00100997
0.001
0.00100529
0.001
0.001
0.001
0.001
0.001
0.001
0.00100863
0.00127133
0.001
0.00156067
0.001
0.00293914
0.001
0.001
0.001
0.00103761
0.001
0.001
0.00100536
0.00100983
0.001
0.001
0.00113905
0.001
0.00100976
0.001
0.001
0.001
0.001
0.001
0.00281416
0.001
0.001
0.001
0.001
0.001
0.00109507
0.00109785
0.00109611
0.001
0.001
0.001
0.001
0.001
0.001
0.001
0.001
0.00103476
0.001
0.001
0.001
0.001
0.001
0.001
0.001
0.001
0.001
0.001
0.001
0.001
0.001
0.001
0.001
0.001
0.001
0.001
0.001
0.001
0.001
0.001
0.001
0.001
0.001
0.001
0.001
0.001
0.001
0.001
0.001
0.001
0.001
0.001
0.0012178
0.001
0.001
0.0011566
0.001
0.001
1.83176
1.85311
1.86343
1.81906
1.82356
1.80946
1.81795
1.7081
1.72715
1.74388
1.75916
1.75881
1.7941
1.81944
1.6673
1.69898
1.61948
1.655
1.64772
0.771299
0.768053
0.671765
0.636244
0.733981
0.660927
0.671302
0.534562
0.564791
0.426551
0.395851
0.392862
0.397342
0.373133
0.001
0.001
0.335456
0.44871
0.226326
0.001
0.001
0.1885
0.169622
0.001
0.001
0.001
0.0468196
0.001
0.00103851
0.001
0.001
0.00130962
0.001
0.001
0.001
0.001
0.001
0.001
0.736594
0.780163
0.757947
0.731536
0.507333
0.506009
0.527057
0.595902
0.710549
0.708208
0.665177
0.710022
0.711074
0.0010508
0.001
0.001
0.001
0.001
0.001
0.00183114
0.00192554
0.001
0.00134313
0.00117108
0.00120514
0.001
0.001
0.00100975
0.001
0.001
0.00142751
0.001
0.001
0.001
0.001
0.001
0.001
0.001
0.001
0.001
0.001
0.00182677
0.001
0.001
0.001
0.001
0.001
0.001
0.001
0.001
0.001
0.001
0.001
0.001
0.001
0.001
0.001
0.001
0.00132544
0.001
0.001
0.001
0.001
0.001
0.00143145
0.001
0.001
0.001
0.001
0.001
0.001
0.001
0.001
0.001
0.001
0.001
0.283825
0.206472
0.198013
0.136134
0.143044
0.113038
0.125623
0.0944996
0.138909
0.0620078
0.0585061
0.00332297
0.00861807
0.001
0.001
0.001
0.001
0.0235721
0.00526267
0.001
0.001
0.001
0.001
0.0823121
0.123003
0.001
0.001
0.0103823
0.125479
0.186463
0.143309
0.001
0.001
0.001
0.00153307
0.00107376
0.001
0.001
0.001
0.001
0.00100999
0.00102142
0.001
1.48174
1.47302
1.48128
1.4979
1.47912
1.51033
1.53167
1.51639
1.52923
1.58365
1.53317
1.6133
1.58191
1.64904
1.37413
1.39565
1.39142
1.4129
1.39528
1.42055
1.44632
1.41231
1.34402
1.35334
1.35943
1.36785
1.36664
1.36568
1.09479
1.00595
0.896061
0.924083
0.817962
0.919417
0.919582
0.985674
1.15829
1.15219
1.16003
1.12969
1.24196
1.29149
1.21324
1.16267
1.2888
1.29069
1.29561
1.3154
1.34556
1.33353
1.34519
1.3453
1.34441
1.34445
1.34345
1.34279
1.34375
1.34377
0.481915
0.379033
0.654702
0.646504
0.558368
0.662446
0.649453
0.760006
0.37741
0.385484
0.363272
0.34079
0.283068
0.38496
1.60936
1.62692
1.64723
1.68036
1.67672
1.69403
1.70996
1.71503
1.72509
1.71087
1.71659
1.73905
1.75775
1.76907
1.77138
1.78043
1.79899
1.81971
1.82834
1.82959
1.83957
1.7222
1.71002
1.86023
1.87772
0.001
0.00108811
0.001
0.001
0.001
0.001
0.001
0.001
0.001
0.00181079
0.001
0.001
0.001
0.001
0.001
0.001
0.00136527
0.001
0.00115642
0.112539
0.0191281
0.187392
0.271939
0.270768
0.1783
0.335692
0.347368
0.43452
0.49444
0.462241
0.540932
0.480919
0.675127
0.59673
0.704553
0.706326
0.718373
0.779162
0.904569
0.909653
0.853307
0.879232
0.907246
0.852321
0.958132
0.890398
0.868183
0.899172
1.03488
1.04014
1.10618
1.15483
1.04514
1.13027
1.27716
1.22178
1.28952
1.2644
1.45088
1.42238
1.4811
1.50261
1.57169
1.57748
1.64159
1.60386
1.65345
1.63232
1.65016
1.68759
1.65432
1.68893
1.69553
1.65076
1.639
1.68448
1.68139
1.65006
0.00140587
0.001
0.00114584
0.001
0.001
0.001
0.001
0.001
0.001
0.001
0.001
0.001
0.001
0.00171584
0.001
0.001
0.00100968
0.00213257
0.001
0.001
0.00214834
0.001
0.001
0.001
0.00122996
0.001
0.001
0.001
0.00100758
0.001
0.00117624
0.001
0.001
0.001
0.001
0.001
0.001
0.0010427
0.001
0.001
0.001
0.001
0.001
0.001
0.001
0.001
0.00138046
0.00186027
0.00211081
0.001
0.001
0.001
0.001
0.001
0.001026
0.001
0.00118958
0.001
0.001
0.001
0.00100552
0.00110831
0.001
0.001
0.001
0.001
0.001
0.001
0.00110254
0.001
0.001
0.001
0.00113093
0.001
0.00105468
0.001
0.001
0.001
0.001
0.001
0.001
0.001
0.001
0.001
0.001
0.001
0.001
0.001
0.001
0.001
0.001
0.001
0.001
0.001
0.001
0.001
0.001
0.001
0.001
0.001
0.001
0.001
0.001
0.001
0.001
0.001
0.001
0.001
0.001
0.001
0.001
0.001
0.001
0.00122399
0.00119278
0.001
0.001
0.00121613
0.001
0.001
0.00114514
0.001
0.001
0.001
1.88576
1.87008
1.88466
1.858
1.84622
1.87378
1.85878
1.83819
1.85681
1.71718
1.74326
1.74282
1.74258
1.81248
1.85777
1.87685
1.77599
1.65353
1.68521
1.65526
1.65627
1.64791
1.69139
1.58036
0.537593
0.635374
0.534994
0.574416
0.572478
0.480095
0.480348
0.481672
0.478442
0.480492
0.449335
0.372252
0.341576
0.261262
0.283629
0.395571
0.505411
0.00101687
0.001
0.174198
0.169646
0.00112842
0.00161557
0.0987474
0.00104971
0.00109629
0.00100937
0.00146122
0.001
0.001
0.001
0.00105738
0.00195843
0.00108659
0.00127681
0.001
0.00103157
0.64477
0.570874
0.548035
0.633718
0.50509
0.526257
0.660914
0.593419
0.635681
0.709526
0.708609
0.00184597
0.001
0.001
0.00123285
0.001
0.001
0.00175564
0.001
0.001
0.00124679
0.00102671
0.001
0.001
0.001
0.001
0.001
0.00149187
0.00203779
0.001
0.001
0.001
0.001
0.0014294
0.001
0.001
0.001
0.001
0.00115106
0.001
0.00182381
0.00115054
0.001
0.001
0.001
0.001
0.001
0.001
0.001
0.001
0.001
0.001
0.001