/*--------------------------------*- C++ -*----------------------------------*\
  =========                 |
  \\      /  F ield         | OpenFOAM: The Open Source CFD Toolbox
   \\    /   O peration     | Website:  https://openfoam.org
    \\  /    A nd           | Version:  8
     \\/     M anipulation  |
\*---------------------------------------------------------------------------*/
FoamFile
{
    version     2.0;
    format      ascii;
    class       volScalarField;
    location    "420";
    object      nut;
}
// * * * * * * * * * * * * * * * * * * * * * * * * * * * * * * * * * * * * * //

dimensions      [0 2 -1 0 0 0 0];

internalField   nonuniform List<scalar> 
526318
(
0.000505416
0.000445766
0.000584793
0.000507302
0.000646345
0.000574715
0.000509586
0.000424594
0.000219486
0.00037342
0.000312786
0.000250139
0.000305244
0.000380442
0.000587047
0.000600919
0.000296295
0.000806618
0.000774529
0.000608563
0.000844614
0.000773127
0.000327197
0.000390269
0.000280135
0.000286847
0.00050492
0.00037364
0.000224696
0.000592985
0.000676342
0.000788944
0.000641399
0.000692696
0.000697555
0.000814837
0.000734368
0.00086188
0.000976821
0.000825692
0.000652108
0.000384952
0.000271588
0.000420987
0.000421649
0.000336986
0.000401363
0.000286529
0.000439502
0.000300044
0.000500497
0.000211975
0.000502945
0.000270002
0.000181303
0.000594171
0.000317011
0.000460042
0.00118158
0.00103412
0.000956867
0.00090593
0.00100162
0.000774771
0.000897369
0.00093532
0.00123097
0.00101194
0.00131216
0.00129018
0.00114055
0.00117647
0.00129952
0.0011646
0.00120557
0.00112975
0.00128873
0.00126309
0.0011915
0.00129379
0.00137505
0.00141661
0.00142698
0.00124974
0.00126399
0.00156112
0.00145973
0.00154625
0.00177236
0.0017369
0.00147522
0.00172626
0.00193792
0.00175062
0.00199553
0.001723
0.00173789
0.0019478
0.00192732
0.00192833
0.00012154
7.30823e-05
0.000105194
0.000382067
0.000250253
1.19175e-05
0.000282428
0.000395662
0.000314732
0.000452518
0.000377057
0.000385309
0.000497589
0.00027078
0.000450741
0.000583246
0.000645596
0.000672
0.000813592
0.00189444
0.00195992
0.00197989
0.0018623
0.00194307
0.00192357
0.00202722
0.00201814
0.00186803
0.00189105
0.00187893
0.00197881
0.00187206
0.00168312
0.00168687
0.00174407
0.00153403
0.00176512
0.00151141
0.00161422
0.00137574
0.00142553
0.00142877
0.00160166
0.00144331
0.00130001
0.00126594
0.00133724
0.00116625
0.00120651
0.00124196
0.00131756
0.00110334
0.0010999
0.00118657
0.00120242
0.000990111
0.0011372
0.0011249
0.00100213
0.000854925
0.000958022
0.000855273
0.00104779
0.00109653
0.00120583
0.00092854
0.00100283
0.0011465
0.00113044
0.00108017
0.0011898
0.00116472
0.00126786
0.00130491
0.00112319
0.00105432
0.00136327
0.00148576
0.00125179
0.00140673
0.0016057
0.00164294
0.00191939
0.00203661
0.00192735
0.00196808
0.00186315
0.00184172
0.00189714
0.00179304
0.0018404
0.00168868
0.00176599
0.0016527
0.00154061
0.00136894
0.00151403
0.00135791
0.00124601
0.00118423
0.00125648
0.00117963
0.000974215
0.00105245
0.00111983
0.00114503
0.000969063
0.000994319
0.00108834
0.00106443
0.000524113
0.000500656
0.000655784
0.000600942
0.000733263
0.000815608
0.000805009
0.000356113
0.000517574
0.000288912
0.000601972
0.000247031
0.000247967
0.000369585
0.000162303
0.000121903
0.000428332
0.000458328
0.000246726
0.000438017
1.18255e-06
0.000298695
0.000316445
0
0
0
0
0
0
0.00086483
0.00113274
0.00069909
0.000931676
0.000965127
0.00125789
0.00134161
0.00121735
0.00136647
0.00128068
0.00138592
0.00139254
0.00152451
0.0015016
0.00161542
0.00169473
0.00187257
0.00186143
0.00191442
0.00193848
0.0019194
0.00190119
0
0
3.11444e-06
0
0.000150488
0.0002136
0.000154475
0.000250884
0.000433721
0.000380744
0.000450922
0.000343553
0.000274401
0.000480944
0.000374665
0.000538913
0.000621064
0.000553388
0.00057191
0.000743624
0.0018049
0.00182842
0.00168729
0.00171255
0.00160496
0.00161864
0.00145406
0.00147523
0.00136973
0.00135768
0.00123502
0.00128785
0.000814574
0.000843359
0.00085018
0.00100489
0.00101005
0.00106775
0.000956426
0.000958306
0.000847907
0.000881184
0.000973121
0.000922531
0.000885787
0.00112679
0.00112058
0.000957078
0.000988314
0.000815325
0.00081392
0.000683477
0.000723593
0.000727368
0.000709513
0.000953407
0.000970211
0.000929595
0.000985295
0.00103859
0.000939274
0.000816583
0.000999202
0.000862051
0.00100247
0.00108504
0.000913614
0.00108914
0.000902725
0.00065228
0.000869732
0.000870564
0.00068413
0.00113677
0.000866487
0.00154116
0.00168032
0.00119128
0.00183509
0.00186923
0.00178617
0.00178627
0.00180884
0.00181508
0.00180182
0.00180232
0.00177146
0.00169305
0.00175155
0.00158287
0.00164922
0.00144347
0.00152269
0.0014108
0.00130037
0.00125278
0.00113167
0.00113631
0.00109944
0.00110004
0.00112128
0.00106641
0.000979491
0.00101111
0.00104033
0.00101679
0.00110169
0.00102836
0.000961892
0.000976266
0.00094136
0.00108203
0.000973734
0.000951947
0.00102729
0.0010189
0.000485703
0.000553912
0.000486715
0.000468355
0.000635906
0.000764938
0.000452009
0.000603238
0.000714416
0.000327009
0.00055262
0.000238566
0.000177383
0.000246864
0.00014923
0.00018728
0.000356214
0.000171132
0.000443731
0.000186529
0.000490165
0.000158873
0
8.0604e-05
0.000170205
0.000122009
6.47428e-05
0.000188852
0
1.773e-07
0
0
0
0
0
0
0
0
0.000821726
0.00113971
0.000627512
0.000950794
0.00102463
0.00128348
0.00125212
0.00128913
0.00133119
0.00134614
0.00142565
0.00144145
0.00155135
0.00158451
0.00171832
0.00161534
0.00177435
0.00177574
0.00183547
0.00183785
0.00177798
0.00173027
0
3.02847e-07
1.1198e-07
0
0
0
0
0
2.14301e-07
1.65058e-07
0
0
0
0
3.53691e-09
0
0
1.97253e-07
0
0
0.000184841
0
0.000428814
7.76419e-05
0.000243623
0.000225231
0.000301581
0.000511318
0.000235186
0.000507891
0.00051922
0.000284072
0.000476036
0.000568101
0.000559616
0.000626748
0.000541333
0.000744774
0.00155195
0.00153985
0.00149541
0.0014707
0.00143888
0.0014064
0.00128456
0.00131049
0.00118792
0.00119608
0.00104324
0.000995222
0.000706025
0.000773844
0.000941335
0.000790181
0.000811968
0.000852282
0.000825375
0.000951138
0.000518431
0.000658024
0.000603254
0.000823523
0.00080405
0.000678947
0.000616426
0.000540247
0.000528775
0.000433425
0.000451191
0.00100036
0.00104641
0.00102637
0.000982117
0.00110498
0.00111538
0.0009647
0.000924496
0.00101002
0.00104476
0.00105467
0.00102
0.000974025
0.000900237
0.000610826
0.000632853
0.000518996
0.000708525
0.000639395
0.000770352
0.000698655
0.000817442
0.000811752
0.000615467
0.000541479
0.000312383
0.000113654
0.000350238
0.000265451
0.000554437
0.000848995
0.000674843
0.00139794
0.000924487
0.00104708
0.00151132
0.00157409
0.00164355
0.00174205
0.00172766
0.00175045
0.00172084
0.00173797
0.00173643
0.00165872
0.00171398
0.00152949
0.00160519
0.00147195
0.00138523
0.00124041
0.00130577
0.00114612
0.00117704
0.0010677
0.00104349
0.00109848
0.00105176
0.000954295
0.00106212
0.00101963
0.000932868
0.0010364
0.000949944
0.000973134
0.00101401
0.000906252
0.000998812
0.00100374
0.00101892
0.00108768
0.000978895
0.0010051
0.00111694
0.00098239
0.00055338
0.000530628
0.000427242
0.000498691
0.000559453
0.000394513
0.00063353
0.000420787
0.000541379
0.000160721
0.000476129
0.000250995
8.96866e-05
0.00020831
0.000389698
0.000395232
0.000406994
0.000420995
0.000160423
0.000449881
0.00011965
0
0
0.000106432
0
0.000268635
0.000290591
0
0
0
0
0
0
0
0
0
0
0
0
0
0
0
0
0
0
0
0
0
7.08168e-09
0
1.07578e-07
1.60573e-07
2.51042e-08
0
0
0
0
0
0
0
0
0
0
0
0
0
0
0.00111797
0.00082109
0.000606135
0.000932442
0.00106036
0.00123775
0.00121492
0.00126054
0.00131972
0.00129989
0.00141483
0.00141011
0.00150318
0.00155183
0.00158138
0.00161775
0.00165783
0.00159146
0.00156255
0.00155734
0.00145584
0.00150432
0
0
0
0
0
0
0
0
0
0
0
0
0
0
0
0
0
0
0
0
0
0
0
0
1.79576e-08
0
0
0
0
0
0.00034101
2.86233e-05
0.000203861
0.000174781
0.000353427
0.000183797
0.00051436
0.000168587
0.000188039
0.000488309
0.000358256
0.00051895
0.000568826
0.000514075
0.000503908
0.000612103
0.000727987
0.000477013
0
0
0
0
0
0
0
0
0
0
0
0
0
0
0
1.18194e-08
0
0.00135883
0.00136536
0.00130861
0.00132721
0.00120166
0.00122946
0.00100974
0.00101736
0.000825153
0.00082854
0.000690331
0.000613619
0.000673107
0.000594933
0.000634928
0.000634728
0.000760432
0.000861663
0.000837263
0.000840786
0.000411108
0.000304553
0.000342394
0.00046824
0.000493566
0.000507723
0.000361136
0.000356331
0.000212519
0.000231224
0.000125962
0.000203556
0.000959921
0.00104113
0.000960523
0.00107228
0.00102193
0.00107944
0.00111898
0.000942787
0.000992425
0.00107875
0.00106129
0.00102939
0.00115164
0.00102409
0.00102009
0.00102284
0.00106473
0.0010189
0.000830587
0.000857592
0.000346112
0.000213158
0.000458871
0.000507786
0.000610024
0.000634712
0.000614678
0.000572284
0.000265787
0.000380568
0.000313388
0.000116992
0.000325134
6.05615e-05
0.000346758
0.000134503
0.000661095
0.000561283
0.000723992
0.0010361
0.000831929
0.00127688
0.00153434
0.00129504
0.00151945
0.00163795
0.00171987
0.0016743
0.00168583
0.00165962
0.00155048
0.00161339
0.00151879
0.00142157
0.00127281
0.00136581
0.00121875
0.00115826
0.00109528
0.00106151
0.00095238
0.000993929
0.000982209
0.000965745
0.000929586
0.00101372
0.000923832
0.00101686
0.000856371
0.000988808
0.000953854
0.000984217
0.000880346
0.000960198
0.000923351
0.000999739
0.000926012
0.00103809
0.000923925
0.00104058
0.00110957
0.00087965
0.00102147
0.000923674
0.00108643
0.00118166
0.00123477
0.00112288
0.00105197
0.00114501
0.00109536
0.00119815
0.00120469
0.00131469
0.00122707
0.00127801
0.00124458
0.0013106
0.0015111
0.00136291
0.00143581
0.0015782
0.00166821
0.00158463
0.00155806
0.00165906
0.00168341
0.0016983
0.00175703
0.00179114
0.00180542
0.00188435
0.0018305
0.00197705
0.0018981
0.00189685
0.00191338
0.00209412
0.00202918
0.00201288
0.00196425
0.000369803
0.000197103
0.000419029
0.000489367
0.000412915
0.000392803
0.000571217
0.000408841
0.000290753
0.000202545
7.13266e-05
0.000386705
0.000209117
0.000278851
0.000234872
0.000304065
0.0004184
0.000397255
0.000367281
0.000355653
1.82715e-05
0.000271054
0.000417694
0
0
0.000131279
0
9.53513e-05
3.18673e-05
6.23905e-09
0
0
0
0
8.84057e-10
0
0
0
1.6422e-08
0
0
0
0
0
1.08302e-08
0
0
0
0
0
0
0
0
0
0
0
0
0
0
0
0
0
0
0
4.36286e-07
2.90778e-07
0
2.0151e-09
0
0
3.0525e-09
1.49343e-09
0
5.92841e-09
4.57777e-09
0
0
0
0
0
0
0
0
0
0
0
0
0
0
0
0
0
5.48761e-08
0
0
0.000832087
0.00107373
0.000905782
0.000607074
0.0011562
0.00108525
0.00121436
0.00114085
0.0012268
0.00125223
0.00137939
0.00133868
0.00141214
0.00144088
0.00133408
0.00128063
0.00126878
0.00138185
0.00140223
0.00130439
0.00136289
0.00130788
0
0
2.27264e-07
2.57507e-07
0
0
0
0
0
0
0
0
2.42887e-06
0
0
0
0
0
0
0
0
0
1.24408e-07
5.41262e-08
0
0
0.000347775
0.000260733
0.000215306
0.000151371
0.000146785
0.000470223
4.85052e-05
0.000477993
0.000220556
0.000469136
0.000508759
0.000411276
0.000522999
0.000443464
0.000414856
0.000579255
0.000443496
0.000710597
2.19443e-07
0
6.72434e-07
0
1.36621e-07
2.36533e-09
0
0
1.06429e-09
0
0
1.08134e-06
0
0
0
0
0
0
0
0
0
0
0
0
1.7023e-07
0
0.0011362
0.00109242
0.00100245
0.000967254
0.000804894
0.000837022
0.000670436
0.000605086
0.000487363
0.000528873
0.000341863
0.000374229
0.000453131
0.000439145
0.000477903
0.000534203
0.000761063
0.000625136
0.000802098
0.000803122
0.000146717
0.000203873
0.000261322
0.000222687
0.000192644
0.00023512
5.27924e-05
0.000122348
5.4399e-05
3.15579e-05
0.000104245
6.07423e-05
0.00105497
0.00109744
0.00102775
0.00107714
0.00101421
0.00106063
0.00107145
0.00115138
0.00129079
0.00129968
0.00125078
0.00117489
0.00144566
0.00123514
0.00154165
0.00161138
0.00168847
0.00154309
0.00181996
0.00167226
0.00188541
0.00199235
0.00209315
0.00215129
0.00211509
0.00221243
0.00222525
0.00204353
0.00233785
0.0023343
0.00105904
0.00106017
0.00111583
0.00107601
0.00105189
0.000986181
0.000991276
0.000906488
0.000839583
0.000943082
0.000171023
0.000332712
0.000188695
0.000474353
0.000293229
0.00048186
0.000349677
0.000263755
0.000272647
0.000180939
0.000243459
0.000288787
0.000271988
0.000142954
0.00023093
0.000188826
0.000184234
0.000460096
0.000882302
0.0006914
0.000453266
0.00102727
0.00130597
0.00102023
0.00157423
0.00132312
0.00151929
0.00161896
0.00156075
0.00158033
0.00152873
0.0014975
0.0013355
0.00142225
0.00126506
0.00120058
0.00107789
0.00114483
0.00100746
0.00097246
0.000848983
0.000971741
0.000909668
0.000863471
0.000983261
0.000859855
0.000804998
0.000925117
0.000805419
0.000940171
0.000880854
0.000941654
0.000934576
0.000825136
0.000874278
0.000920069
0.000963226
0.000856907
0.000821963
0.00101686
0.00078056
0.0010508
0.000949507
0.00115791
0.0010706
0.00100798
0.00116937
0.00119268
0.0013016
0.00130813
0.00147756
0.00149002
0.00165906
0.00164718
0.00179991
0.00177527
0.00190596
0.00186438
0.0019115
0.00191715
0.00193491
0.00196454
0.0021198
0.00196569
0.00203421
0.00222622
0.00221038
0.00211402
0.00202275
0.00208895
0.00236338
0.00222535
0.00233175
0.00030189
8.3579e-05
0.000352982
0.000317198
0.000352091
0.000309877
0.000462936
0.000341876
0.000146568
0.000142014
0.000235596
7.70736e-05
0.000112751
0.000554712
0.000438837
0
0.000239409
0.000476776
0.000387732
0.000491597
0.000478199
0.000190699
0.000379676
0.000582058
0.00046415
0
0
0
0
2.2402e-07
1.76768e-07
0
0
1.28289e-08
0
0
0
0
0
0
0
0
1.50439e-08
0
0
0
0
0
0
0
0
0
0
0
0
2.05297e-09
0
0
0
0
0
0
0
0
1.20893e-08
0
0
0
0
0
0
0
4.29138e-10
0
4.24877e-10
0
2.80574e-09
0
0
0
0
0
0
0
0
0.000850029
0.000957445
0.000800299
0.000620146
0.000977298
0.0010287
0.00111577
0.001098
0.00119656
0.0011569
0.00121793
0.00123842
0.00120858
0.00119463
0.00106292
0.00086047
0.000893559
0.00100156
0.00111348
0.00118094
0.00118471
0.00112145
1.37902e-06
9.87977e-07
9.75315e-08
0
0
0
0
7.16056e-08
4.72688e-08
0
0
0
5.63017e-08
1.50281e-06
0
7.16838e-09
0
0
0
0
0
9.36028e-08
0
0
0
0.000292831
0.000234135
0.00015814
0.000282133
4.72219e-05
0.000104944
0.000427216
9.92771e-05
0.000409924
0.000429773
0.000261234
0.000392614
0.000457344
0.000394858
0.000473893
0.000435522
0.000634158
0.000545368
0.000357111
0
0
0
1.46974e-09
0
1.02467e-09
0
0
0
0
0
0
1.92073e-06
0
5.16081e-07
0
0
0
0
2.63032e-09
0
3.44441e-09
0
0
0
0
0
0
0
0
0
0.000743515
0.000734485
0.000675748
0.000606037
0.000496999
0.000552615
0.000391487
0.000338934
0.000677895
0.000580592
0.000531688
0.000167561
0.000269382
0.000143344
6.10572e-05
0.00032714
0.000306609
0.000392856
0.000484317
0.000726226
0.000643806
0.000802069
0.000740352
8.39773e-05
3.71011e-05
0.000101041
9.06704e-05
3.26011e-05
7.60225e-05
0.000118664
0.000120045
0.00012819
9.12658e-05
0.000103784
0.000110754
0.00233032
0.00210897
0.00211943
0.0022224
0.00194015
0.00201899
0.00199478
0.00207169
0.00189597
0.00182528
0.00198772
0.00174806
0.00193534
0.00178184
0.00227924
0.00249834
0.00241818
0.00216517
0.00224758
0.00252719
0.00238558
0.00218157
0.00222044
0.00238403
0.00255316
0.00213931
0.00258359
0.00237928
0.00209775
0.00239983
0.00235166
0.00248349
0.00258571
0.00274221
0.0026311
0.00113891
0.00116033
0.00107483
0.00109287
0.00104732
0.001044
0.00114738
0.00115506
0.00137514
0.00148901
0.00136711
0.00134253
0.0013375
0.00158829
0.0014851
0.0016501
0.00169077
0.00176804
0.00187724
0.00197594
0.0021705
0.00222327
0.00245912
0.00245176
0.00258454
0.00253007
0.00275471
0.00269714
0.0010499
0.00103927
0.00109077
0.00108731
0.000984169
0.0010645
0.0010801
0.000970114
0.000893444
0.000777214
0.000763859
0.00198639
0.00196619
0.00203836
0.00203339
0.00197759
0.00194108
0.00196942
0.00187954
0.00190121
0.00180541
0.00183392
0.00176225
0.00170195
0.00167799
0.00160743
0.00173209
0.00161737
0.00156192
0.000291958
0.000102751
0.000189709
0.00025409
0.000154239
0.000250494
0.000223944
0.000216191
0.000258682
0.000224413
2.94587e-05
0.000287459
0.000109064
5.57685e-05
0
0
0.000160881
0
0.000739348
0.000532091
0.000251582
0.00088388
0.00104426
0.00114101
0.00131737
0.00114084
0.00146597
0.00125921
0.00143795
0.00138545
0.00140874
0.00137287
0.00127859
0.00123168
0.00115697
0.00117906
0.00102419
0.00108719
0.000889445
0.000901574
0.000748928
0.00082265
0.000754376
0.000797857
0.000872059
0.000699785
0.000618131
0.000785404
0.000700003
0.000877575
0.000768888
0.000920168
0.000851763
0.000679866
0.000881545
0.000834317
0.000831822
0.000883748
0.000604471
0.00101697
0.000841235
0.00110583
0.00114289
0.000949673
0.00111434
0.00116074
0.00128037
0.00127749
0.00144445
0.00144068
0.00158925
0.00163715
0.00177372
0.00172787
0.00186729
0.00193534
0.00191852
0.00201443
0.00198899
0.00191741
0.00192178
0.00194073
0.0019503
0.00192296
0.0019394
0.00174288
0.00106568
0.00103594
0.00018311
0.000313941
0.000263902
0.000361833
0.000363033
0.000270895
0.000480041
0.000230048
0.000172806
8.76414e-05
0.000227849
0.000144947
0
0
0
0.000209082
0.000787819
0.000343711
0.000476694
0.00111687
0
0
0
1.42049e-08
0
1.60815e-07
0
1.59239e-07
0
1.3446e-08
0
0
0
0
0
0
0
0
7.70855e-07
2.00163e-06
0
0
0
0
0
0
0
0
2.13681e-07
0
3.44457e-09
0
0
0
0
4.38488e-09
0
0
0
0
0
0
0
0
0
0
9.65741e-09
1.29311e-08
0
0
0
0
5.89436e-09
0
0
6.40404e-09
0
0
0
9.22568e-09
0
0
0
7.02991e-09
0
0
1.20052e-08
0
0
0
0
1.0409e-08
0.00166782
0.00185884
0.0019056
0.00167444
0.00152503
0.00159113
0.000821901
0.000814379
0.000618271
0.000690476
0.000909671
0.000928505
0.00105392
0.00104699
0.00104956
0.00103534
0.00106972
0.00102589
0.00102202
0.00105415
0.000786023
0.00062633
0.000785033
0.000945244
0.000929147
0
0
0
0
0
0
0
0
0
0
0
0
0
0.000186828
0.000149043
0.000206493
3.80288e-09
0
0
0
0
0
0
0
0
0
0.000167141
0.000217896
0.000312706
0.000319842
0.000194398
0.000484996
0.000450144
0.000460196
0.000190633
0.000332068
0.00029975
0.000383606
0.000415594
0.000361048
0.000325033
0.000434378
0.000323808
0
1.70042e-07
0
0
0
0
0
0
0
0
0
0
0
0
0
0
0
3.86923e-09
0
1.31499e-09
0
0
0
0
0
0
0
0
0
0
3.71254e-09
0
0
9.24565e-09
0
1.64484e-08
1.09819e-08
0.00042133
0.000491744
0.000433876
0.000440776
0.000496324
0.000356529
0.000389256
0.000165446
0.00028992
0.000209276
0.000103964
0.000334351
0.000293763
9.8612e-05
0.000119516
0.000147659
5.23281e-05
0.000244615
0.000205885
0.000376069
0.000238889
0.000574312
0.000427597
0.000561935
0.000612912
6.14238e-05
1.43306e-06
4.38811e-05
9.77535e-05
3.67626e-05
5.35441e-05
0
0
0
0
0
0
0.00252661
0.00237355
0.00236889
0.00226934
0.0021833
0.00227887
0.00212184
0.00218886
0.00266013
0.0028067
0.00282766
0.00268705
0.00272487
0.00284002
0.00262351
0.00275069
0.00271216
0.00282395
0.00301254
0.00288344
0.00294078
0.00308381
0.00119348
0.00118191
0.00118272
0.00113559
0.0011018
0.0010734
0.00115924
0.00112141
0.00133813
0.00107008
0.00176744
0.0013395
0.00113424
0.00156217
0.00175836
0.00161876
0.00153201
0.00178058
0.00174076
0.00192895
0.00195729
0.0021988
0.00225578
0.00257411
0.00257901
0.00287073
0.00294218
0.00293072
0.00303104
0.0032497
0.00314298
0.00106092
0.000985931
0.00115405
0.0010711
0.00100263
0.00105523
0.00103906
0.00104275
0.000935395
0.000949438
0.000692658
0.000819298
0.00192668
0.0019208
0.00193089
0.00190106
0.0019174
0.00185564
0.00183257
0.00178033
0.00174411
0.00166741
0.00169208
0.00162546
0.00160132
0.00153758
0.0016107
0.00157642
0.00149031
0.00147415
0.00156193
0.00182781
0.00177692
0.00171415
0.00157412
0.00156876
0.00147348
0.000258922
0.000176232
0.000641862
0.000194134
6.21683e-05
0.000359499
0.000243402
9.61182e-05
0.000107663
4.96796e-05
9.91023e-05
3.35997e-05
0
2.55054e-07
7.96119e-07
1.66087e-07
1.27426e-05
0.00011881
0.000515286
0.000265354
0.00012395
0.000825062
0.00102442
0.000779132
0.00135493
0.00127007
0.000985639
0.00115986
0.00122241
0.00125893
0.00121763
0.00116661
0.00116614
0.00116404
0.00106979
0.00111144
0.000940531
0.000950715
0.000785575
0.000848936
0.000716426
0.000588344
0.000704356
0.00063409
0.000593195
0.000779141
0.000715981
0.000528153
0.000647618
0.000783494
0.000670718
0.000783905
0.00065728
0.000750882
0.000794136
0.00082665
0.000925523
0.00076467
0.000600424
0.00132483
0.00118605
0.00104657
0.00113308
0.00123827
0.00123523
0.00140388
0.0014034
0.00159802
0.00157114
0.00173577
0.00178399
0.00191675
0.00187181
0.00207733
0.00199316
0.00213119
0.002019
0.00199577
0.00209125
0.00193804
0.00197646
0.00194978
6.41547e-06
4.09879e-06
8.22149e-06
0
0.000351976
0.00016094
0.000155093
0.000273134
0.000713395
8.91236e-05
1.10763e-06
1.72737e-06
0
1.38761e-05
0
0
0.0001394
5.21497e-06
0
0
2.49843e-06
3.71328e-06
0
5.81731e-06
1.39934e-06
0
0
1.05338e-06
5.1521e-07
2.71032e-07
0
0
0
0
0
0
0
0
0
0
8.65537e-07
0
6.71815e-07
0
0
0
0
0
0
0
0
2.88002e-06
0
0
0
9.648e-09
0
0
8.47214e-09
8.12931e-09
0
0
0
0
4.6508e-08
5.79842e-08
0
0
3.43389e-08
5.09643e-08
0
0
0
0
2.32012e-08
0
5.97146e-08
0
0
0
0
0
0
0
0
0
0
0
0
0
0
0
0
0
6.0306e-09
0
0
0
0
0
0
0
3.3485e-09
0.00210315
0.00203671
0.00181495
0.00176881
0.00162057
0.00162056
0.00150211
0.00161984
0.00153008
0.00163349
0.000738456
0.000695904
0.000521004
0.000573272
0.000853344
0.000829129
0.000878239
0.000914874
0.000923417
0.000963785
0.000916994
0.000867646
0.000781377
0.000783356
0.000496607
0.000621866
0.000626232
0
0
0
5.5639e-09
0
0
0
0.000586612
0.000223036
0.000349068
0
0
0
0
0.000608336
6.27559e-06
1.25812e-07
0
0
2.72933e-09
0
0
0
0
0
0.00046437
0.000467187
0.000460893
0.000303672
0.000257228
0.000227838
0.000249933
0.000355894
0.00042964
0.000283217
0.000212965
0.000256698
0.000331607
0.000359463
0.000253287
0.00026133
0
5.85028e-07
6.24403e-07
2.89059e-09
0
0
0
1.91029e-08
0
0
0
0
0
0
0
1.46174e-06
3.63356e-07
5.051e-07
0
0
0
0
0
0
0
7.26191e-09
0
0
0
0
0
6.41276e-09
0
0
0
1.60083e-09
0
0
0
0
0
0
0
0
0
0.000301085
0.000307509
0.000407897
0.00019886
0.000232237
0.000191981
0.000270433
0.000264979
0.000192792
8.09534e-05
0.000126912
0.0001394
0.00015834
0.000229897
0.000215856
4.43602e-05
1.01445e-05
0
0
7.96079e-05
6.90172e-05
7.37703e-05
0.000277616
0.000516686
0.000344279
0.000632479
0.000429746
2.99232e-06
1.41848e-06
2.46827e-05
7.88874e-05
4.91351e-09
0
0
0
1.25907e-08
0
0
8.09114e-07
0.00255137
0.00264041
0.0024504
0.00253007
0.00244311
0.00238698
0.00235691
0.00230665
0.00222293
0.00203339
0.00222432
0.00213414
0.0019967
0.0021798
0.00304154
0.00291981
0.00300374
0.00292936
0.00292057
0.00284279
0.00279073
0.00271451
0.00310148
0.00323571
0.00317426
0.00328014
0.00323651
0.00314895
0.00116387
0.00117727
0.0011675
0.0011445
0.00104975
0.00110679
0.00115119
0.00112779
0.00145359
0.00140768
0.00135254
0.00135506
0.00181693
0.00176404
0.00167664
0.0016363
0.00197987
0.00200415
0.00228507
0.00226527
0.00269073
0.00268384
0.00311243
0.00304885
0.00334942
0.00343133
0.00344449
0.00333156
0.00352819
0.00360341
0.000918388
0.000915342
0.00108448
0.00107458
0.00103772
0.000955964
0.00102749
0.000989508
0.000861538
0.000921973
0.000882692
0.000795318
0.00204792
0.00198387
0.00199006
0.00192034
0.00194988
0.00188446
0.00192361
0.00185224
0.00180871
0.00161662
0.00169484
0.00160464
0.00154159
0.00156073
0.0015068
0.00156798
0.00147264
0.00147204
0.00156069
0.00149687
0.00157831
0.00169586
0.00174787
0.00163098
0.00156039
0
0.000103342
1.78357e-06
0.000126399
1.88002e-06
2.12153e-06
0
1.81922e-06
7.37581e-07
0
0
0
0
0
0
0
0.000149931
0
0.000191964
0.000242965
0.00017049
0.000491686
0.000834501
0.000479119
0.00107498
0.00115948
0.00103838
0.000745162
0.00107885
0.00106727
0.00111808
0.00105744
0.00102854
0.00105094
0.000958196
0.000932548
0.000837901
0.000939044
0.000661296
0.000842389
0.000697017
0.000471293
0.000646589
0.000616385
0.000744564
0.000595058
0.000499817
0.000701988
0.00062886
0.000758228
0.000745927
0.000722699
0.00068962
0.000728659
0.000766555
0.00082338
0.00105492
0.000667924
0.00111357
0.000931808
0.00122081
0.0011782
0.00141968
0.00137538
0.001595
0.00154638
0.00179831
0.00173068
0.0018695
0.00192679
0.00205956
0.00197906
0.00216791
0.00207301
0.00219141
0.00207827
0.0019977
0.00217412
0.00199906
0
2.90585e-06
4.151e-06
0
9.54586e-07
0
2.35766e-07
0.000156479
1.73392e-06
0
0
1.08852e-07
0
1.35955e-07
2.33485e-07
2.67486e-07
0
0
1.27658e-07
5.47289e-06
4.27936e-06
0
0
0
0
8.36899e-07
2.44181e-06
0
0
0
0
0
0
0
8.1328e-09
0
2.97979e-09
0
0
0
0
0
1.34434e-06
0
0
0
0
2.99939e-09
0
0
0
0
0
0
0
0
0
0
0
0
1.71782e-09
0
0
0
0
0
0
0
0
0
0
0
0
0
0
0
0
0
0
0
0
0
1.16439e-08
0
0
0
0
0
0
0
0
0
0
0
0
0
0
0
0
0
0
0
0
0
0
0
0
0
0
0
0
0
1.83041e-09
0
0
0
0
0.00167683
0.00170126
0.00162938
0.00158449
0.00167209
0.00156792
0.00194186
0.00174649
0.00158492
0.00173658
0.00166468
0.00148757
0.00171273
0.00194722
0.00202851
0.000627882
0.000755645
0.000737552
0.000746533
0.000699946
0.000832505
0.000776324
0.000789274
0.000805892
0.000649766
0.000636269
0.000534801
0.000518501
0.000434998
0
0
0
4.5891e-09
0.000128818
0.000115406
0.000218345
4.27375e-08
0
0.0002463
0.000467346
0
1.63278e-06
0
0
0
0
2.00758e-06
1.0133e-07
0
2.87147e-08
0
0
0
0.000395934
0.000532686
0.000473655
0.000327641
0.000367142
0.000218283
0.000149812
0.000150801
0.00018262
0.000317481
0.000256756
0.000147706
0.000233704
0.000194668
0.000269209
0.000217781
0
2.35627e-09
0
0
0
0
0
1.17974e-09
0
0
8.63243e-09
0
0
0
0
0
0
0
0
9.42314e-10
0
0
0
0
0
0
0
0
0
0
0
0
0
0
0
0
0
0
7.16143e-10
0
0
0
0
0
0
0
0
0
0
0
0
0
0
0
0
0
0
0.00034283
0.000212277
0.000248369
0.000191053
0.000228352
0.000161953
0.000111402
8.85526e-05
0.000150556
0.000103112
0.000140426
9.00902e-05
0.000149897
0
0
0.000106928
0.000103605
0
0
3.45626e-09
0
0.000516754
0.000752881
0.000416093
7.73231e-05
3.65815e-05
0.000248722
3.74252e-05
0.000275547
0
0
3.31438e-06
0
6.85432e-09
6.50828e-09
0
0
0
0
0
0
0.00263861
0.0027037
0.00250913
0.00264904
0.002543
0.00248148
0.00245488
0.00240936
0.0023446
0.00236303
0.00215034
0.00233195
0.00232952
0.00308283
0.00316021
0.00302622
0.00308609
0.00288005
0.00294765
0.00280308
0.00282598
0.00345358
0.00335935
0.00332121
0.00337269
0.00325285
0.00323083
0.00125795
0.00118491
0.00111938
0.00114788
0.00114305
0.00101403
0.00117159
0.00110091
0.00151139
0.00157403
0.00140234
0.00148657
0.00198807
0.00202416
0.00178987
0.00195333
0.00234432
0.00235673
0.00278139
0.00275978
0.00325761
0.00321979
0.00354566
0.0035074
0.00368446
0.00365608
0.00350548
0.00355757
0.00363386
0.00361186
0.00088383
0.00091429
0.00104057
0.00101019
0.000980192
0.00104394
0.000926387
0.000999473
0.000897135
0.000842928
0.000921927
0.000819332
0.000424617
0.000436231
0.000796447
0.0021774
0.00209299
0.0019832
0.00199565
0.001944
0.00193479
0.00202647
0.00196442
0.00180855
0.00184492
0.00166029
0.00159596
0.00152647
0.00157069
0.00149868
0.00154225
0.00155353
0.00148744
0.00157403
0.00152611
0.00163461
0.00159953
0.00174007
0.00169521
0.00166404
0.00169879
0
0
0
0
0
1.089e-07
1.18534e-07
0
0
0
0
2.86551e-09
5.40931e-10
0
0
0
3.30246e-09
0
0.000222929
0.000168001
0
0.000403938
0.000367966
0.000856326
0.000560384
0.000948598
0.000992891
0.000709408
0.00103658
0.000927033
0.000978167
0.0010419
0.000930484
0.000932006
0.000803258
0.000893139
0.000790177
0.00075619
0.000741453
0.000610342
0.000596796
0.000521789
0.000700998
0.000670974
0.000736362
0.00056942
0.000527252
0.000700984
0.00062497
0.000757335
0.000755798
0.000816588
0.000808267
0.000782952
0.000681957
0.000845968
0.00113103
0.00103763
0.00123545
0.00113068
0.00145326
0.00136098
0.00162539
0.00157312
0.00174963
0.00182132
0.0019201
0.00200509
0.00212306
0.00203024
0.00223972
0.00211719
0.00230939
0.00216276
0.00212396
0.0022948
0.00206344
0.00227099
0
3.95975e-06
3.42825e-06
0
8.0061e-07
0
0
0
0
5.74868e-08
0
0
0
5.91518e-08
2.13578e-07
1.4003e-07
2.95763e-07
1.50791e-07
2.30387e-07
0
0
0
3.47081e-08
0
0
0
0
0
0
0
0
0
0
0
0
1.18635e-08
0
6.25619e-09
0
3.44489e-07
0
0
0
1.96129e-06
0
0
0
0
0
0
9.0612e-09
0
0
0
0
0
0
0
1.56559e-07
0
0
0
0
0
2.06235e-09
2.38701e-09
2.84212e-09
0
0
0
0
0
0
0
0
4.28398e-09
0
0
0
0
0
0
0
0
0
0
0
0
0
0
0
0
0
0
0
0
0
0
0
0
0
0
0
0
0
0
0
0
0
0
7.27044e-09
0
0
3.0726e-10
0
0
0.0017509
0.00174349
0.00177337
0.00171883
0.00167891
0.00168027
0.00165947
0.00184518
0.00169754
0.00166454
0.00161937
0.00154188
0.00170678
0.00155904
0.00207425
0.00190023
0.00230524
0.00205534
0.0022636
0.000596541
0.000609919
0.000543999
0.000472199
0.000443975
0.000671981
0.000669386
0.000666351
0.000618947
0.000571525
0.000545861
0.00047207
0.000470182
0.000355342
0
0
0.000144613
5.43843e-05
5.34572e-05
0
0
0.000105148
8.59978e-05
0
0
0
3.68864e-05
0
1.02424e-06
0
0
1.44152e-08
0
0
0
0
0
0
0.000338053
0.000336023
0.00022294
0.000298465
0.000106427
0.000144185
0.000114699
0.000145368
0.000190197
0.000254693
0.000132243
0.000212237
0.000160603
1.33667e-08
0
0
0
0
0
1.22898e-07
1.78558e-07
0
1.06418e-06
8.44845e-07
1.23772e-08
0
0
0
0
0
9.3185e-08
0
0
0
0
0
0
0
0
0
0
9.42789e-09
0
0
0
0
0
0
0
0
0
0
0
0
0
0
0
0
3.83721e-09
0
0
0
0
0
9.51379e-09
0
0
0
0
0
0
0
0
0
0
0
0.00024434
0.000186042
0.00018633
0.000115554
0.000139011
0.000132919
6.92468e-05
0.000137496
9.96723e-05
0.000252828
0.000248034
5.58226e-06
2.59236e-05
0
0
0
0
7.81803e-05
7.79394e-06
0
0
0
0
0.000274872
0.00025314
0
0
2.44634e-05
0.000312746
0.000463404
0.000286298
0
0
0
4.43561e-08
4.87874e-09
0
0
0
0
0
2.11832e-09
0
0.0027345
0.00267765
0.00259209
0.00258089
0.00265245
0.0025917
0.00252997
0.00251693
0.00249074
0.00247684
0.00247794
0.00241562
0.00240246
0.00220442
0.00317641
0.00314602
0.00304227
0.00301721
0.00291543
0.00290109
0.00279832
0.00280591
0.00342857
0.00340841
0.0033048
0.00331006
0.00312074
0.00313997
0.00139439
0.00121527
0.00105118
0.00114559
0.000949034
0.00113502
0.00103641
0.00121733
0.0018388
0.00162914
0.00167677
0.00149185
0.00233385
0.00244232
0.00237272
0.00208232
0.00281087
0.00285516
0.00327421
0.00332411
0.00363202
0.00362861
0.00371384
0.0036988
0.00363859
0.00366194
0.00341975
0.00340588
0.00343267
0.00340034
0.000945773
0.000822419
0.00101241
0.00095707
0.000942414
0.00108344
0.000851316
0.00101276
0.000819968
0.000860429
0.000755271
0.000734061
0.000471413
0.000892262
0.00220728
0.00200062
0.00198498
0.00211685
0.0022024
0.00196004
0.00203661
0.00184367
0.00190723
0.00163386
0.0015925
0.00155551
0.00154074
0.00152022
0.00154385
0.00156308
0.00152829
0.0016202
0.00160443
0.00167317
0.00167147
0.00177823
0.00172494
0.00174202
0.00175051
0
5.33864e-10
0
0
0
0
0
0
0
6.18329e-10
0
0
0
0
0
0
7.14781e-09
0
8.92109e-07
0.000212518
3.60087e-05
0.000347278
0.000583166
0.000526839
0.000429742
0.000682991