/*--------------------------------*- C++ -*----------------------------------*\
  =========                 |
  \\      /  F ield         | OpenFOAM: The Open Source CFD Toolbox
   \\    /   O peration     | Website:  https://openfoam.org
    \\  /    A nd           | Version:  8
     \\/     M anipulation  |
\*---------------------------------------------------------------------------*/
FoamFile
{
    version     2.0;
    format      ascii;
    class       volScalarField;
    location    "7320";
    object      H;
}
// * * * * * * * * * * * * * * * * * * * * * * * * * * * * * * * * * * * * * //

dimensions      [0 1 0 0 0 0 0];

internalField   nonuniform List<scalar> 
526318
(
0.70427
0.663632
0.737129
0.654846
0.723074
0.671982
0.689819
0.610687
0.672221
0.542969
0.526802
0.648196
0.591042
0.633688
0.595071
0.616699
0.595022
0.791238
0.699886
0.74361
0.73827
0.691181
0.452596
0.695081
0.582614
0.448302
0.717917
0.718216
0.723452
0.73391
0.759415
0.805037
0.790811
0.669431
0.670438
0.637909
0.644222
0.732646
0.661147
0.61191
0.669866
0.64999
0.303158
0.356147
0.271104
0.317185
0.284373
0.408008
0.599654
0.483967
0.578138
0.574445
0.530771
0.491464
0.000403542
0.232424
0.229054
0.0295869
0.747175
0.761972
0.779272
0.732691
0.676639
0.806999
0.800935
0.757432
0.746865
0.746598
0.650044
0.641876
0.753889
0.534508
0.588544
0.48313
0.440009
0.42619
0.525447
0.517473
0.4361
0.477711
0.558651
0.558495
0.513945
0.466164
0.493844
0.561055
0.559084
0.538351
0.493993
0.564255
0.464429
0.421024
0.407271
0.345483
0.336104
0.34119
0.340052
0.337608
0.333736
0.340291
7.97638e-05
2.15653e-06
0.000782323
8.85215e-08
0.000711983
0.000148343
0.246471
0.0590581
0.374788
0.33236
0.377786
0.49296
0.718349
0.612134
0.724729
0.730637
0.796869
0.770857
0.812981
0.332212
0.332582
0.33655
0.337185
0.293791
0.334581
0.246077
0.288522
0.197368
0.247496
0.195469
0.198964
0.184754
0.161996
0.153646
0.179298
0.120622
0.17846
0.127038
0.142224
0.090304
0.0940605
0.11543
0.146493
0.134236
0.090939
0.0892327
0.106361
0.0914199
0.089751
0.0937104
0.109104
0.0956493
0.101569
0.101152
0.099937
0.0651572
0.0990866
0.099878
0.0669893
0.0223315
0.0978629
0.0497425
0.105891
0.602825
0.697079
0.639909
0.624523
0.430297
0.497138
0.430003
0.430261
0.426619
0.428049
0.456586
0.42646
0.362089
0.33609
0.298845
0.241898
0.300916
0.341134
0.34179
0.341832
0.229243
0.28183
0.16948
0.176811
0.185293
0.176486
0.178761
0.180612
0.170346
0.173586
0.169759
0.158346
0.138147
0.163564
0.156984
0.12947
0.108495
0.135572
0.11934
0.108328
0.131873
0.119028
0.121925
0.0841534
0.104268
0.140988
0.136774
0.579316
0.590759
0.630218
0.601908
0.586663
0.585148
0.583534
0.46229
0.502757
0.24964
0.232216
0.22453
0.353174
0.489196
0.356228
0.396606
0.400104
0.342375
0.324899
0.000749738
1.52658e-16
8.68721e-07
0.168222
0.00027704
9.76159e-09
0.000995694
0.000255125
0.000396609
0.000963311
0.797094
0.782827
0.828428
0.824608
0.784612
0.779063
0.692742
0.774586
0.617572
0.560799
0.562952
0.564864
0.561278
0.560391
0.541312
0.55777
0.469458
0.536495
0.348328
0.405188
0.331203
0.347399
0.00100536
4.55059e-11
0.000154997
0.00100202
0.000103589
0.000987509
4.58193e-08
0.000500324
0.349833
0.15658
0.394048
0.393009
0.504831
0.608164
0.729114
0.732227
0.766439
0.747787
0.81322
0.841894
0.31207
0.313709
0.273563
0.246001
0.144175
0.176913
0.10524
0.1153
0.10756
0.100425
0.0915905
0.0947333
0.0217063
0.0443971
0.0819877
0.116637
0.165209
0.131508
0.0992352
0.101367
0.0320826
0.0230882
0.0773481
0.13005
0.0498801
0.0897272
0.0890591
0.0564855
0.0551912
0.0232443
0.0198455
0.000675396
0.000582081
0.0008266
0.000552215
0.101364
0.137458
0.0971228
0.132573
0.502141
0.459795
0.354693
0.442831
0.366412
0.415437
0.428311
0.415488
0.425754
0.428097
0.344202
0.253516
0.182738
0.163321
0.239163
0.180447
0.170345
0.279346
0.169922
0.220989
0.158412
0.158732
0.165578
0.160611
0.173395
0.16839
0.1668
0.168595
0.168616
0.168201
0.179202
0.171956
0.184385
0.180319
0.185513
0.160313
0.176075
0.158469
0.134829
0.132229
0.160126
0.186601
0.1799
0.157666
0.138668
0.158841
0.211701
0.209815
0.219547
0.183969
0.2165
0.232649
0.267679
0.219501
0.224942
0.257678
0.283865
0.407235
0.486239
0.403416
0.442655
0.511243
0.578578
0.48585
0.350933
0.464998
0.360171
0.386301
0.117875
0.0634694
0.0941867
0.0774745
0.196719
0.319945
0.248118
0.31806
0.320785
0.341514
0.321168
2.95166e-09
0.000979078
8.88787e-05
5.69831e-06
0.000639238
0.000771661
0.000599399
0.00100998
0.000160582
0.00100962
0.000664765
0.00100889
0.000730728
0.000955715
0.000582482
0.000952703
0.820205
0.815337
0.848649
0.842433
0.817224
0.787528
0.718721
0.632033
0.560321
0.573886
0.551258
0.559009
0.531764
0.525327
0.509499
0.512099
0.454686
0.504569
0.43356
0.372145
0.314999
0.271505
0.000964127
0.00112447
0.0011241
0.000663073
0.000463336
0.000731205
0.000602317
0.000760476
0.00112448
0.001125
0.000912684
0.00100984
0.000651169
0.00100942
0.00122355
0.00017911
0.000293343
0.000487392
0.000977135
0.00096135
7.31626e-08
0.000978536
0.000793614
1.85613e-05
0.0492578
5.66595e-25
0.255389
0.421718
0.427997
0.527931
0.74457
0.631615
0.754932
0.754127
0.770491
0.798479
0.830684
0.850116
0.232618
0.232107
0.184623
0.212367
0.150964
0.115465
0.10546
0.106312
0.101092
0.106485
0.0593463
0.0526309
0.00106889
0.0139271
0.0662534
0.0393699
0.0144577
0.060056
0.0548022
0.0791384
0.000563312
0.000877153
0.00094466
0.00709899
0.00801274
0.00097883
0.000841189
0.000874718
0.000899986
0.000387281
0.000872478
0.258513
0.223166
0.229388
0.224431
0.245222
0.351445
0.322303
0.2967
0.177562
0.219826
0.202673
0.205199
0.106744
0.0452478
0.227573
0.336336
0.22214
0.231511
0.205066
0.292968
0.267757
0.344599
0.376777
0.301299
0.280687
0.319392
0.192782
0.167861
0.163766
0.165725
0.082907
0.132891
0.0562496
0.0101506
0.00100874
0.11201
0.110598
0.158744
0.161735
0.157762
0.159643
0.161907
0.165082
0.159376
0.171654
0.16771
0.182226
0.178936
0.183356
0.180816
0.207357
0.196366
0.221785
0.226789
0.172467
0.154077
0.219694
0.204934
0.192399
0.209252
0.195384
0.181378
0.229523
0.206205
0.313472
0.324344
0.269849
0.314295
0.320285
0.280753
0.374103
0.351401
0.419904
0.437336
0.465868
0.377046
0.384214
0.380102
0.343617
0.319745
0.293804
0.380228
0.233177
0.211949
0.26396
0.284621
0.000586173
0.0125578
0.094509
0.210769
0.244584
0.282706
0.190538
0.146741
0.1116
0.0578006
0.000965631
0.000310861
1.42674e-06
1.84795e-07
0.000778321
0.00100068
0.000993891
0.000234006
0.00100979
0.000545241
0.00024476
0.000470015
0.000926911
0.000208943
0.000889372
0.000986846
0.000766556
0.000551352
0.000138864
0.000388285
0.00097475
0.00101
0.000138683
0.00100015
0.000980669
0.000354496
0.00110811
0.000978649
0.0010847
0.000941257
0.001108
0.00110793
0.0008514
0.000999494
0.0009727
0.000201819
9.59135e-05
0.000989075
0.000892979
0.0009482
0.00100959
0.000881287
0.00100851
0.00100824
2.67287e-05
0.000951409
0.817053
0.828287
0.850542
0.839286
0.821654
0.742966
0.564083
0.651189
0.529321
0.532066
0.514913
0.508188
0.503093
0.506138
0.498346
0.50471
0.442713
0.410547
0.313884
0.358946
0.213762
0.25197
0.000922552
0.000624444
0.000948563
0.000967574
0.000969466
0.000982262
0.000986514
0.000879074
0.000998153
0.000691408
0.000677989
0.000965569
0.000971308
0.000759356
0.000380116
0.000991326
0.000690401
0.00100737
0.000803925
0.000839513
0.000369052
0.000975289
0.000889611
0.000439439
0.000917861
0.00068906
0.00101
0.000641909
8.95669e-06
6.82991e-05
0.000555011
0.000719123
0.000886885
0.000882604
0.234642
0.0660291
0.445402
0.397363
0.461888
0.579004
0.673446
0.756757
0.767608
0.756672
0.797885
0.830678
0.81492
0.81304
0.00118624
0.000887316
0.000886173
0.00030779
0.000995891
0.000922867
0.00081396
0.000934219
0.000890554
0.000725685
0.000975785
0.00092383
0.000794854
2.99799e-07
0.000836048
0.00101
0.000170373
0.211205
0.211114
0.214304
0.175769
0.0960677
0.132347
0.0584164
0.0514369
0.0156828
0.0101187
0.000936328
0.000776924
0.000872732
0.000410448
0.00062271
5.69438e-05
0.00043719
0.0287195
0.0128603
0.013871
0.000712611
0.000921773
0.000703425
0.000545433
0.000771027
0.000818397
0.000964289
0.000555971
0.000325844
0.000996791
0.000920408
0.000390313
0.454141
0.41633
0.459798
0.469628
0.417527
0.371847
0.541847
0.564141
0.629533
0.638127
0.181685
0.219119
0.28331
0.366694
0.189195
0.126099
0.175909
0.165223
0.00388946
0.0535561
0.110142
0.000555251
0.206971
0.210768
0.206384
0.20893
0.232399
0.204063
0.221655
0.236082
0.115102
0.112929
0.00725688
0.0980277
0.0912394
0.042163
0.00761041
0.0124451
4.44873e-64
4.74289e-17
0.000972569
0.0437921
0.109048
0.0400297
0.105759
0.157711
0.156521
0.158174
0.164125
0.163488
0.182513
0.175821
0.187717
0.189018
0.21238
0.206107
0.224641
0.220731
0.23032
0.222639
0.231729
0.22676
0.269786
0.238301
0.205544
0.204184
0.272627
0.237957
0.246155
0.294658
0.328453
0.327421
0.334113
0.330822
0.359286
0.413004
0.475079
0.497968
0.509929
0.485338
0.627467
0.56278
0.691562
0.730756
0.723515
0.763808
0.815204
0.683899
0.769179
0.789489
0.870146
0.919968
0.941485
0.96281
0.991685
0.93571
0.989799
0.947941
1.02544
1.02477
1.0732
1.0425
1.10333
1.13189
1.12177
1.07115
1.13715
1.16001
1.12603
1.1246
1.19105
1.16566
1.20095
1.1394
1.13849
1.20443
1.17334
1.12618
1.12561
1.15985
1.19164
0.180766
0.14835
0.321729
0.315343
0.27986
0.278451
0.27888
0.0433016
0.179388
0.000693831
0.000686864
0.0101269
0.000374358
0.000894448
0.000862726
7.91029e-05
0.115442
0.0173769
0.0163921
0.000278432
0.000871562
0.00059104
0.000918832
0.000348275
0.00101
5.27544e-07
5.8384e-05
9.70941e-06
5.35186e-05
0.00101
0.000966006
0.000995857
0.00062772
1.7266e-05
0.00150202
0.000842141
0.000928041
0.000844807
0.000691483
0.000298117
0.00069126
0.000943677
0.000831092
0.00126839
0.000545419
0.00012748
0.000146108
0.000949
0.000431299
9.03027e-06
1.61879e-05
0.000990101
0.000932549
0.00100929
0.000950674
0.000911134
0.000410555
0.00079896
0.00106751
0.00114884
0.000906857
0.0009988
0.00106763
0.000989455
0.0009693
0.00101
0.00057983
0.000983417
0.00104219
0.00100714
0.000976065
0.00104194
0.0009825
0.00101254
0.00101415
0.000467339
0.000587797
0.00101
0.000773625
0.000908767
0.000377029
0.000991017
0.000960908
0.00100983
0.00100977
0.000136678
0.000992237
0.000950381
0.000921886
0.000915695
0.000919934
0.00071145
0.00112493
0.000710851
0.000968314
0.809203
0.793582
0.766798
0.769865
0.682356
0.757747
0.57633
0.515496
0.503472
0.508227
0.505967
0.500563
0.440069
0.447974
0.294069
0.253063
0.21248
0.383819
0.387833
0.333902
0.335315
0.333249
0.000647301
0.000448621
0.00104608
0.00104606
0.000962471
0.000414864
0.000711517
0.000410365
0.00104607
0.000974317
0.000161511
0.00100893
0.000972717
0.000941946
0.000297472
0.000985833
0.000726155
0.00091818
0.00021426
0.00071546
0.00050783
0.000951565
0.00127448
0.00127469
3.81621e-05
6.90454e-06
0.000169957
0.00101
0.0657863
2.91852e-16
0.236206
0.400887
0.429555
0.462269
0.540015
0.660771
0.719064
0.69645
0.742508
0.677425
0.724917
0.769397
0.724029
0.717706
0.00122192
0.000945085
0.00101
0.000849207
0.000998358
0.00119848
0.000757792
0.000799434
0.00119849
0.000952606
0.000973001
0.00100941
2.67454e-05
1.14836e-05
0.000931699
0.000373012
6.93372e-07
0.000656439
0.00098774
0.000236686
0.000248866
0.000953147
0.00096459
0.000795867
0.00118159
0.0010101
0.184892
0.186792
0.106692
0.125937
0.00175289
0.0241249
0.000903797
0.000832194
0.000695151
0.00155485
0.000275067
0.000751573
0.000686785
0.000630537
0.000126475
0.000390582
0.00395062
0.000843365
0.0039575
0.00395201
0.000534605
0.0002975
0.000361962
0.0008342
0.00030944
0.000950196
0.000717662
0.000602104
0.000980152
0.000764758
0.00123469
0.000728982
0.67611
0.672815
0.501307
0.414341
0.401676
0.38936
0.672935
0.58229
0.830582
0.909315
0.803287
0.729223
0.920792
0.90176
0.967023
1.01499
1.04352
1.04344
1.07002
1.04312
1.09834
1.12286
1.11948
1.11979
1.14109
1.12453
1.1282
1.17507
1.11511
1.10752
0.231859
0.167891
0.31068
0.380358
0.155729
0.11537
0.17084
0.164878
0.000367859
0.0455039
0.000424144
0.0428793
0.000947345
0.204633
0.154761
0.217006
0.204447
0.203709
0.100641
0.0071831
0.000963639
2.52277e-06
3.83664e-06
0.000987407
7.05933e-301
9.60489e-29
1.81001e-06
0.000998818
0.000728282
0.000810978
3.63154e-05
0.00082561
0.0552754
0.0014972
0.108108
0.0539134
0.0974117
0.15098
0.188829
0.161217
0.20051
0.203326
0.208361
0.193757
0.236157
0.244389
0.241286
0.252734
0.264389
0.263096
0.294989
0.311623
0.305232
0.29403
0.302039
0.296918
0.310302
0.328565
0.37693
0.363932
0.335893
0.364519
0.356059
0.389846
0.424723
0.488147
0.517924
0.518591
0.529083
0.597392
0.679153
0.752401
0.768011
0.894147
0.765045
0.821418
0.967144
0.990479
0.987374
1.02311
1.07314
1.12034
1.13441
1.13628
1.1683
1.19457
1.22468
1.22309
1.22372
1.22431
1.22494
1.20652
1.14392
1.20698
1.17433
1.12761
1.12964
1.16042
1.19326
1.20287
1.12887
1.18984
1.14985
0.000697961
0.000778622
0.0357256
0.117955
0.0044345
0.0669079
0.204247
0.139409
0.1666
0.00396404
0.000961351
1.93585e-06
0.000756867
0.00214341
7.32197e-06
8.31968e-05
1.53247e-05
0.000741451
0.000978156
0.00132348
0.00132416
0.000284872
0.000306312
0.000184832
0.000999876
0.000871197
0.000795729
0.000978231
0.000901282
0.0013382
0.00133605
0.00086849
0.000172666
0.000618863
0.00150175
0.000981197
0.000797742
0.000478021
0.000315336
0.000551787
0.00101
0.000821565
0.00126807
0.000928609
0.00101
0.000654361
0.000660221
0.000998234
0.000701989
0.000865625
0.000874495
0.00105248
0.000948917
0.000796769
0.000751098
0.000990039
8.20965e-05
0.00099613
0.000976554
0.000151024
0.000650036
0.000544652
0.000936558
0.000816347
0.000957421
0.000831808
0.0010458
0.000978339
0.000943996
0.000974885
0.00092222
0.000219115
0.00122133
0.000926718
0.00102522
0.000767871
0.00100962
0.000641972
0.000367709
0.000916152
0.000960434
0.000960174
0.000892128
0.000614471
0.000479733
0.718391
0.713277
0.69781
0.70547
0.627229
0.698571
0.500929
0.573751
0.46411
0.461161
0.408301
0.392338
0.337342
0.3325
0.2516
0.144374
0.124143
0.288945
0.336625
0.336724
0.33655
0.334086
0.00104618
0.000915381
0.00104618
0.000416952
0.000973634
0.000973647
0.00094649
0.000972052
0.00100548
0.000830393
0.000135327
0.000443538
0.00093376
0.000997208
0.00060297
0.00100999
0.00098232
3.53596e-05
0.000985985
0.000873381
0.000276721
0.000583231
0.000655599
0.00101
0.000321117
3.32274e-05
0.00016739
0.000967041
0.127901
3.28516e-17
0.27331
0.401927
0.378375
0.488906
0.656682
0.554
0.632754
0.631135
0.62518
0.655687
0.711858
0.703767
0.710115
0.682569
0.000769413
0.000922585
0.000573493
0.000958878
0.000712787
0.000933944
0.000627141
0.000410495
0.000816397
0.000879841
0.000957505
0.00103039
0.000972908
4.47012e-06
0.000915771
0.000873917
0.00096514
0.000987798
0.000802007
0.00100999
0.000468733
0.00079002
0.00120333
0.000901385
0.00101
0.000860782
0.000668131
0.000489708
0.000136748
3.72589e-05
0.00098545
0.0606977
0.0600943
0.0236775
0.00464467
0.000273559
0.00085684
0.000956993
0.000435578
0.1052
0.0451308
0.024049
0.000187059
0.0009323
0.000408908
0.00100989
0.00132821
0.00132827
0.00025087
0.000583215
0.000696303
0.000807948
0.00053723
0.000801456
0.000830286
0.000589303
0.000349619
0.000336872
0.000587295
0.00100971
1.30661e-05
0.00052455
0.000737284
0.000689738
0.000594218
0.000809643
1.2469
1.25886
1.28262
1.26388
1.30488
1.29061
1.30798
1.30744
1.36079
1.34761
1.31168
1.36146
1.32617
1.38076
1.21507
1.16733
1.18826
1.23638
1.21654
1.18513
1.19029
1.24328
1.24824
1.22536
1.20135
1.25684
1.23662
1.2461
1.27382
1.12535
1.1291
1.12959
1.1251
1.14602
1.16913
0.721606
0.664114
0.560357
0.464672
0.377893
0.451547
0.654437
0.638073
0.878892
0.903399
0.787089
0.868947
0.90799
0.959554
1.00474
1.04852
1.04276
1.04538
1.04045
1.06978
1.07935
1.10702
1.09301
1.09531
1.10027
1.11149
1.08745
1.08602
0.290013
0.20971
0.153432
0.147073
0.2075
0.381061
0.35624
0.0904836
0.138966
0.0171435
0.000834228
1.23432
1.25518
1.26957
1.27532
1.28202
1.29209
1.29625
1.32363
1.30933
1.32582
1.32828
1.37022
1.39634
1.41606
1.41575
1.42101
1.43534
1.46208
0.000701313
0.000607544
0.00142036
0.130339
0.0226523
0.199084
0.0860353
0.015895
0.00124279
1.71137e-06
0.0012429
0.00124278
0.000150505
0.00022733
0.000648238
0.000634227
1.56935e-49
6.10001e-120
0.000466802
0.000793005
0.000395231
0.00221591
0.00300423
0.00244564
0.0579273
0.0135954
0.142762
0.0865602
0.169707
0.139819
0.171773
0.21094
0.223973
0.24316
0.267646
0.266576
0.277521
0.272487
0.32504
0.320525
0.309865
0.309705
0.359533
0.329556
0.397886
0.36269
0.342718
0.384788
0.427376
0.42074
0.449875
0.483682
0.484938
0.425792
0.534477
0.562911
0.537274
0.526303
0.610935
0.691782
0.769058
0.834998
0.78059
0.800817
0.926927
0.985016
1.0252
1.00498
1.07126
1.10016
1.14291
1.16129
1.15738
1.1748
1.23197
1.21542
1.22408
1.236
1.22651
1.223
1.22352
1.22468
1.22464
1.22443
1.22485
0.000975634
1.8894e-05
0.00194143
0.000263575
0.000308718
4.01649e-06
0.000598279
0.0112005
0.000939382
0.000921613
0.000808084
0.000992538
8.58466e-05
0.000488373
0.00142029
0.000995286
0.000243313
9.91112e-05
4.28478e-05
0.00132228
0.000623724
0.00038011
0.000918507
0.0001026
0.000735431
0.000776707
0.000728231
0.000792481
0.00112614
0.000998583
0.00133598
0.000880724
0.00104765
0.000972945
0.000776109
0.00096702
0.000896738
0.000998449
0.00026155
0.000888291
0.00100984
0.000894905
0.0011255
0.000390182
0.000398457
0.000668916
0.000993795
0.000269368
0.000740386
7.03186e-11
2.26484e-07
0.00241592
0.000384657
0.00102184
0.000694792
0.000545923
0.000997667
0.0003892
0.00100993
0.000972649
0.000977525
0.000963111
0.000999516
0.000717408
0.00108871
0.000788965
0.000754633
0.000995897
0.000824157
0.00108653
0.00089779
0.000955844
0.000631827
0.000258775
0.00077177
0.000964465
0.000941166
0.000838222
0.00101
0.000334973
0.000769708
0.000685233
0.000978177
0.000925692
0.000935309
0.000912099
0.00091709
0.000695524
0.000567275
0.0019492
0.000214388
0.000674617
0.000835469
0.000992608
0.00194977
1.40896
1.37624
1.35991
1.454
1.49468
1.48412
0.694541
0.698511
0.686887
0.680485
0.60123
0.674368
0.498994
0.422575
0.349603
0.36421
0.333522
0.33735
0.33492
0.336826
0.213015
0.130227
0.220004
0.299411
0.298819
0.00093523
0.000823532
0.000875173
0.000890082
0.000931393
0.0009764
0.000965395
0.000493094
0.000931051
0.000554111
0.00100943
0.00103683
0.0009963
0.000968182
0.000291622
0.000450723
0.00100998
0.000498781
0.000128694
0.000927014
4.59314e-06
0.000274527
0.000921556
0.000785239
0.00052174
0.000783296
0.000978157
0.101215
0.241646
0.354692
0.357404
0.674689
0.596935
0.607584
0.396741
0.483778
0.57113
0.627437
0.62472
0.62376
0.641909
0.67238
0.665403
0.000729226
0.00113512
0.000622498
0.000982796
0.000712554
0.000720222
0.00100904
0.000845157
0.000731321
0.000960547
0.000817811
0.000932446
0.000763197
0.000834556
0.00100996
0.000809655
0.000679345
0.00101335
0.000977986
0.000912301
0.000933677
0.000682923
0.000770427
0.000937995
0.000997599
0.000978674
0.000347723
0.000953032
0.000978459
0.000973622
0.00101
0.000984843
0.000871643
0.000978065
0.000827832
0.00109093
0.000899273
0.0595084
0.0941516
0.0825066
0.0259954
0.024852
0.00098223
0.0157317
0.00018178
0.000584142
0.000278868
0.000919076
0.0298773
0.0191932
0.000406768
0.000973962
0.000612942
0.000962556
0.000490688
0.000432878
0.000753925
0.000136085
7.42918e-05
0.00065721
0.000224512
0.000925023
5.79952e-05
0.000680105
0.000702988
0.000420221
0.000653842
0.000551523
0.000693939
9.93495e-05
0.000358069
0.000994303
6.30683e-05
0.000979051
1.24428
1.26185
1.28391
1.30856
1.31875
1.3185
1.34564
1.31908
1.18107
1.1788
1.16133
1.18392
1.21574
1.17525
1.22667
1.19523
1.11362
1.0991
1.09838
1.13416
1.162
1.136
0.725491
0.645304
0.541613
0.626916
0.476323
0.388454
0.645353
0.64045
0.886049
0.886552
0.904939
0.796896
0.877332
0.992292
0.936272
0.880042
0.920747
1.02354
1.03673
1.0255
1.0315
1.03696
1.05899
1.08442
1.07599
1.08716
1.08317
1.08281
1.0847
1.08422
1.08697
0.127598
0.133957
0.268779
0.361541
0.136224
0.216744
0.36855
0.387937
0.125009
0.0682677
8.3059e-05
0.0465015
1.26465
1.22407
1.24387
1.28722
1.28668
1.28776
1.29669
1.31793
1.34037
1.35217
1.35074
1.35578
1.37754
1.41751
1.39923
1.4175
1.43815
1.48384
1.4627
1.29312
1.30244
1.31906
1.49039
1.49439
1.49374
0.00141986
0.00141978
0.00141996
0.000341511
0.0001273
0.000916942
0.000509958
0.000928091
0.000584814
0.000659527
0.000757232
0.000881632
0.000627873
0.0011515
0.000651992
0.00115146
0.000969713
4.57582e-06
0.000753117
2.49962e-09
0.00180426
0.000974209
0.00594153
0.0008988
0.0742562
0.104078
0.0373518
0.0738251
0.140666
0.106637
0.229997
0.175264
0.246634
0.259587
0.271254
0.260279
0.2961
0.334985
0.382111
0.379206
0.38594
0.375506
0.398386
0.379941
0.428543
0.431209
0.457806
0.462707
0.432093
0.43802
0.555446
0.600938
0.504809
0.56644
0.613595
0.574075
0.679119
0.720441
0.82285
0.86079
0.837439
0.928878
0.981171
1.07938
1.06314
1.12158
1.0986
1.19646
1.19922
1.19321
1.22563
1.2546
1.25039
1.3076
1.26933
1.29984
1.25976
1.26019
1.29707
1.2272
1.26499
1.2286
0.000278737
5.36638e-06
0.000809039
0.000599838
0.000769361
0.000964183
0.00057408
6.04819e-07
0.00101
0.000199154
0.000131652
0.000512431
0.000170827
0.000632165
0.000511315
0.000344065
0.000642107
9.35498e-05
0.000302915
2.85264e-05
0.000124015
4.98173e-05
5.50518e-07
0.000269583
0.000868214
0.000994505
0.00127657
0.000346854
0.00112563
0.00112578
0.000971301
0.000995782
0.000992745
3.82214e-05
0.00101
0.000912008
0.0010004
0.000112849
0.00044385
0.000919656
3.54208e-06
0.000297927
0.00207489
1.62242e-06
0.000984734
7.43883e-05
0.0009581
0.000364482
0.000965205
3.20685e-05
0.000986598
0.00219792
0.000980838
0.000134455
0.000987682
0.00115971
0.00119686
0.000432123
0.00100983
0.000979813
0.000465046
0.000983408
0.000969573
0.000835887
0.00108825
0.00108795
0.000938621
0.000987726
0.0010868
0.00108741
0.000955402
0.000729997
0.000711032
0.000919589
0.00142046
9.87226e-05
0.00142024
0.000870803
0.00098702
0.000966821
0.000960968
0.00100578
0.00103418
0.00103395
0.000813304
0.000805878
0.000827454
1.21904e-05
9.12481e-06
0
0.000966443
0.000799517
0.000430028
0.000874226
0.00119678
0.000898711
0.00100958
0.00100997
0.000957783
0.000998553
0.000946811
0.000914726
0.00101
1.3606
1.38773
1.38879
1.38592
1.42127
1.52544
1.51025
1.51386
1.53227
1.47109
0.608245
0.592013
0.525391
0.532441
0.48609
0.513432
0.428993
0.380849
0.369879
0.335056
0.312597
0.309463
0.219485
0.23156
0.098559
0.142891
0.140643
0.000529692
0.000965684
0.000913493
0.00101
0.000999238
0.000917688
0.000585991
0.00118123
0.0740095
1.80576e-05
0.000919443
0.000220381
0.000954139
0.000961382
1.53545e-06
0.000368616
0.00101
0.000973131
0.000923979
0.00102217
0.000849804
0.00099312
0.000944045
0.000847483
0.00025022
0.4705
0.472408
0.51462
0.216775
0.354459
0.356072
0.392408
0.516171
0.585772
0.550403
0.452104
0.535973
0.56557
0.567549
0.484013
0.51541
0.000957717
0.000984891
0.00113517
0.00101382
0.000659014
0.000826583
0.00101
0.00118866
0.000986085
0.000996139
0.000160682
0.000717341
0.000827345
0.000936631
0.000510229
0.00126145
0.000966669
0.00096949
0.000847742
0.000993453
0.000795041
0.00101348
0.000844685
0.000963211
0.000917364
0.00101
0
0
0
0.000906329
0.0010565
0.00096252
0.00100563
0.000944429
0.000473953
0.000939511
0.000978965
0.000963917
0.00097325
0.000338297
0.000895901
0.000914242
0.000953661
0.000979183
0.000970153
0.0788423
0.0882112
0.0986795
0.000667447
0.000579223
0.000969064
0.00011426
0.000936972
0.000750894
0.000945485
0.000479969
0.00102792
0.00202791
0.000506154
0.000491909
0.000406739
0.000489035
0.000242686
0.000584634
0.000389242
0.000939705
0.000270985
0.000575667
0.000666396
0.000877991
0.000890212
4.62537e-07
0.000157274
0.00114529
0.000582162
0.00113714
0.000312228
0.000747328
0.000748379
0.000346646
0.00101
0.000942721
0.000621855
0.00114525
1.25214
1.20537
1.2761
1.24423
1.25672
1.28613
1.30242
1.34045
1.3312
1.35888
1.34267
1.2956
1.35826
1.33094
1.14726
1.14766
1.13713
1.14995
1.16281
1.17555
1.17204
1.17821
1.08522
1.08581
1.11381
1.0959
1.12775
1.13467
0.727112
0.650159
0.56383
0.643021
0.435635
0.52959
0.646828
0.654634
0.873828
0.877027
0.879895
0.80346
0.968232
1.01252
0.922787
0.876411
1.01858
1.01956
1.03201
1.01994
1.05274
1.07624
1.08305
1.08117
1.07887
1.08051
1.08379
1.08405
1.08161
1.08034
0.131936
0.12054
0.293663
0.371093
0.26867
0.188242
0.423783
0.36712
0.100831
0.123895
0.0939693
0.0133349
1.26432
1.30073
1.28297
1.30752
1.32713
1.31425
1.34977
1.35993
1.33866
1.34954
1.3403
1.3491
1.35354
1.3783
1.39999
1.42039
1.41863
1.47418
1.44936
1.50134
1.51024
1.37357
1.38545
1.50458
1.51648
0.000415286
0.000110297
0.000696944
0.000551543
0.000525579
9.3846e-05
0.000260243
0.000207944
0.00101
1.00585e-05
0.000927799
0.000258474
0.000653321
0.000657476
5.07035e-06
0.000780461
0.00180419
0.000512058
0.000872027
0.000687083
0.000528241
1.85227e-16
0.00265842
5.19077e-223
0.0984294
0.0966397
0.0577026
0.00879127
0.127328
0.178592
0.237567
0.215424
0.234716
0.220508
0.350967
0.300577
0.407835
0.388832
0.424773
0.424038
0.40835
0.458517
0.498355
0.473583
0.456816
0.487925
0.541028
0.520522
0.5064
0.544104
0.629762
0.626058
0.625282
0.641778
0.768764
0.690589
0.861068
0.883278
0.885793
0.948094
1.02501
1.09779
1.10895
1.11753
1.17003
1.214
1.25701
1.25314
1.29121
1.26876
1.31998
1.33174
1.33413
1.33162
1.33464
1.33274
1.302
1.33496
1.30184
0.00085025
9.98457e-05
0.00648801
0.00102547
0.000694042
7.73581e-05
0.000686777
0.000538285
0.00079675
0.000700239
0.00101
0.00128543
0.00062804
0.00128759
0.00128573
0.00128735
0.0012882
0.000996676
0.00128707
0.00630091
0.00100904
0.000638589
0.000184916
0.00172691
0.000425296
0.00172746
0.00172708
0.000412468
0.000232777
0.00100217
0.000993637
0.000687571
0.000856518
0.000791694
0.00101
0.00104052
0.000780733
0.000959982
0.00100986
0.000887496
0.000962023
0.000998131
0.0018197
0.000969094
0.000146754
1.36216e-05
0.000607696
0.00096357
0.000988249
0.000479144
0.000826696
0.00095019
0.00100941
0.00031059
3.12946e-05
0.000987756
0.00100992
0.000817418
0.000560979
0.000805261
0.00101
0.000799183
0.000971501
0.000279366
0.000904827
0.00095865
0.000965259
0.00104316
0.000997862
0.000930599
0.000886752
0.00100949
0.00097168
0.000773375
0.000984106
0.000952799
0.000723588
0.00098992
0.000934564
0.000964099
0.000974876
0.000974485
0.00107089
0.000979771
0.000905098
0.000506325
0
0
0
0
0
0
0
0
0
0
0
0
0
0
0
0
0
0
0
0.00099334
0.000899824
0.000937661
0.000812305
0.000910933
0.000434354
0.000930589
0.001066
0.000325168
0.000811332
0.00035232
0.000878445
1.56049
1.5485
1.56296
1.55955
1.5691
1.56905
1.3948
1.41731
1.47226
1.43834
1.53611
1.55769
1.53239
1.39839
1.35123
0.469155
0.465856
0.469297
0.456958
0.468951
0.399712
0.443222
0.232713
0.288007
0.152472
0.151871
0.0967883
0.100954
0.101879
4.53839e-05
0.000857868
0.000495047
0.000982711
0.000829578
0.0976978
3.35328e-05
0.000961728
0.000977449
0.000822516
0.000686377
0.000984192
0.000961616
0.000962997
0.00097202
0.000717645
0.000335301
0.000983795
0.00101
0.000213894
0.00100974
0.000932938
0.0004632
0.000576385
0.471357
0.470724
0.4712
0.475016
0.468724
0.184942
0.295712
0.239062
0.362188
0.42295
0.44755
0.374049
0.459989
0.411449
0.413554
0.396979
0.000954778
0.00113192
0.000730107
0.000970576
0.000973219
0.000935143
0.00085934
0.00101485
0.000145752
0.000878643
0.0010138
0.000629839
6.92933e-05
0.000614295
0.000972224
0.000508825
0.000763669
0.000795766
0.000981404
0.00101575
0.000821665
0.000971885
0.000740767
0.000726241
0.000621516
0.00100957
0.000653948
0.000986115
0.000350393
2.15212e-05
0
0
0
0
0
0.000918858
0.00105677
0.000978274
0.00105634
0.00106729
0.000982429
0.00078846
0.000985286
0.000954971
0.00100113
0.00093197
0.000953825
0.000956596
0.000941905
0.000787048
0.000895142
0
0
0
0
0
0
0.075554
0.00629954
0.000813397
0.000902675
0.000752889
0.000680509
0.00078824
0.000960083
0.000791447
0.000311719
0.00100956
0.000885959
0.000375808
0.000550644
0.00033854
0.000760208
0.000752664
0.000795758
0.000905726
0.000971356
0.000988654
6.51335e-05
0.000925217
2.01592e-05
0.000486704
0.000734614
0.000634249
0.000404769
0.000958393
0.00027789
0.000627226
1.31742e-05
0.000467482
0.00184189
0.00183818
0.000678089
0.000959699
0.000281529
0.000798649
0.00100972
0.000818552
1.23239
1.19364
1.23867
1.23689
1.22089
1.2659
1.23552
1.25877
1.28494
1.30497
1.37484
1.33012
1.27898
1.13649
1.1379
1.16376
1.15175
1.17595
1.17464
1.19753
1.18003
1.08341
1.09132
1.11467
1.10005
1.11667
1.12675
0.766783
0.691875
0.603572
0.647773
0.588407
0.500243
0.685681
0.642079
0.878189
0.880648
0.840964
0.886506
0.974836
1.01922
0.882076
0.927922
1.02212
1.01955
1.04163
1.0236
1.06647
1.08199
1.07782
1.09079
1.07351
1.08718
1.07897
1.08171
1.07645
1.07948
0.119807
0.180736
0.368944
0.352196
0.261207
0.354252
0.371473
0.442218
0.114757
0.112713
0.106623
0.0254728
5.3971e-05
5.34923e-07
0.000645465
1.33446
1.33657
1.36202
1.35514
1.37703
1.38928
1.3896
1.3893
1.426
1.40477
1.41746
1.3816
1.41371
1.4261
1.44906
1.46747
1.48418
1.48098
1.53299
1.53529
1.5581
1.53278
1.4466
1.45044
1.57212
1.57161
0.00016622
0.000334169
0.00101
8.13605e-06
0.000729054
0.00123141
0.0012308
0.000971477
0.000305007
0.0001395
0.000146845
0.00195569
0.00118605
0.000563808
0.000822227
0.000856805
0.00100232
0.000626775
0.000320397
0.000824137
8.63116e-05
0.000995528
0.000301624
4.11162e-09
0.000992302
0.0428732
0.11071
0.000740154
0.21019
0.153313
0.220388
0.222505
0.327852
0.266942
0.374393
0.410513
0.407725
0.406673
0.540167
0.493768
0.459759
0.521549
0.551069
0.544128
0.534268
0.529991
0.537009
0.54102
0.624543
0.665747
0.701582
0.663692
0.702844
0.732009
0.868686
0.806857
0.897972
0.880293
0.961871
1.03397
1.12385
1.11629
1.15693
1.19085
1.26834
1.26193
1.2827
1.29095
1.31798
1.32549
1.34487
1.33619
1.349
1.34356
1.33413
1.34812
1.3329
1.33605
0.000974911
0.000864682
0.00101
0.00067133
0.000953755
0.000657298
0.000566723
0.000789161
0.000642839
0.00128474
0.000355341
0.000777264
0.000295436
0.00128601
0.00128706
0.00128859
0.00128833
0.00128645
0.00128766
0.00031683
0.000371652
0.00100461
0.000689527
0.000938422
0.000788581
0.00100179
0.000868193
0.000997704
0.000180038
0.000954666
0.000624923
0.00101
0.000209386
0.000613088
0.00100863
0.00104053
0.000663841