/*--------------------------------*- C++ -*----------------------------------*\
  =========                 |
  \\      /  F ield         | OpenFOAM: The Open Source CFD Toolbox
   \\    /   O peration     | Website:  https://openfoam.org
    \\  /    A nd           | Version:  8
     \\/     M anipulation  |
\*---------------------------------------------------------------------------*/
FoamFile
{
    version     2.0;
    format      ascii;
    class       volScalarField;
    location    "7320";
    object      nut;
}
// * * * * * * * * * * * * * * * * * * * * * * * * * * * * * * * * * * * * * //

dimensions      [0 2 -1 0 0 0 0];

internalField   nonuniform List<scalar> 
526318
(
5.34328e-05
8.59927e-05
9.68537e-05
0.000195251
0.000180167
0.000154924
0.000305349
0.000271092
7.33231e-05
0.000251676
4.04069e-05
0.000132689
1.96072e-05
0.00027447
0.000164557
9.61871e-05
9.37494e-05
0.000156509
0.00016925
0.00010734
8.96894e-05
0.000157829
0.000234779
0.000277074
5.55067e-05
8.45928e-05
0.000216883
0.000514936
0.000134538
0.000152115
0.000198175
0.000256733
9.67123e-05
0.000180744
0.000102685
0.000103766
6.707e-05
0.000191913
4.5594e-05
0.000181731
0.000113252
0.000100521
0.000190284
0.000112934
0.00024235
0.000408765
0.000123477
0.000219399
0.000240238
0.000239001
5.42756e-05
0.000142395
2.44398e-05
0.000104357
0
0.000137235
0.00013316
1.604e-06
0.000172325
0.000145971
0.000107594
0.000108103
5.67849e-05
3.99786e-05
0.000202171
0.000128198
0.000179559
4.4943e-05
0.000168489
0.000170262
9.08647e-05
3.61596e-05
3.89791e-05
5.35176e-05
6.60404e-05
0.000107125
0.000109024
4.80354e-05
7.06816e-05
0.000144638
2.39189e-05
9.81701e-05
0.000137817
6.15764e-05
7.00356e-05
0.000191944
0.000159203
0.000185281
0.000216742
0.000172514
0.000150193
0.0001292
0.000176446
0.000101599
0.000229929
0.000193175
0.000168964
6.89439e-05
8.25262e-05
0.000132041
0
0
0
0
0
0
0.000112734
3.06616e-05
0.000230416
0.000206013
7.21752e-05
0.000172464
0.000332761
0.000163435
9.45508e-05
0.000299258
0.000244279
6.40622e-05
0.00013003
0.00010749
5.3298e-05
4.29441e-05
0.000134943
0.000121022
2.04527e-05
8.13806e-05
0.000147953
4.23059e-05
5.36843e-05
2.23731e-05
6.80665e-05
4.50787e-05
2.0755e-05
3.34593e-05
2.18119e-05
2.47324e-05
4.96046e-05
3.04126e-05
1.614e-05
3.11469e-05
1.39146e-05
1.46193e-05
4.03857e-05
3.50228e-05
4.85704e-06
2.38596e-05
2.82148e-05
3.13162e-05
1.61167e-05
6.93017e-06
1.66566e-05
7.73334e-06
1.34454e-05
8.04055e-06
1.04293e-05
3.61125e-06
3.13772e-05
1.66244e-05
1.96276e-06
9.70062e-06
3.11722e-05
2.41411e-07
2.20376e-05
5.73645e-05
0.000180171
3.43283e-05
0.000134593
6.60778e-05
0.00013893
0.000142917
0.000114948
5.15745e-05
0.000161512
0.000167787
9.75103e-05
8.93773e-05
0.000161138
0.000194345
9.0721e-05
0.000191221
0.000150875
0.000183545
6.30616e-05
9.57424e-05
0.000175066
9.09448e-05
5.68081e-05
2.73335e-06
5.58184e-05
2.29838e-05
4.38511e-05
3.56061e-05
3.56982e-05
4.36463e-05
5.21462e-05
3.49524e-05
3.44214e-05
3.97215e-05
3.33646e-05
8.86611e-06
3.62826e-05
6.54699e-05
7.25821e-05
6.91286e-05
3.61336e-05
2.94338e-05
3.31984e-05
2.53751e-05
8.39562e-05
7.96627e-05
3.93863e-05
0.000154408
4.70002e-05
0.000103908
6.95257e-05
8.52658e-05
5.53281e-05
9.55239e-05
4.25118e-05
5.16013e-05
0.000226067
0.000108674
8.45e-05
9.95547e-05
0.000168015
5.56561e-05
8.81221e-05
5.61003e-05
4.02217e-05
0
0
0
7.6213e-05
0
0
0
0
0
0
0.000108871
0.000190373
0.000172541
0.000234185
0.000143565
0.000216591
0.000112699
0.000114576
0.00010974
7.20023e-05
0.000121831
3.63008e-05
0.00010818
6.64397e-05
6.49282e-05
0.000112647
3.82079e-05
1.38667e-05
8.70468e-06
4.31754e-05
9.14034e-05
2.73283e-05
0
0
0
0
0
0
0
0
0.000222759
0.000137902
0.000199329
0.000167685
0.000187851
0.000186271
0.00019572
0.000225934
0.00022467
0.000109505
0.000105428
0.000218689
7.53232e-05
4.64015e-05
2.53487e-05
6.36327e-05
5.42791e-05
2.82743e-05
1.35541e-05
2.33069e-05
3.22297e-05
7.87887e-06
2.39491e-05
2.01951e-05
4.88688e-06
8.03172e-06
3.10902e-05
8.88634e-05
7.43817e-05
0.000104804
5.56158e-05
6.06819e-05
1.22234e-05
5.86507e-06
4.95934e-05
0.00010428
1.30109e-05
1.89751e-06
1.30214e-05
2.09401e-05
6.37411e-06
7.29133e-06
4.90168e-06
0
0
0
0
2.13057e-05
2.72563e-05
5.065e-05
3.93664e-05
0.000162944
7.31098e-05
1.42395e-05
3.78908e-05
0.000133153
0.00010755
0.000148166
0.000130386
0.000141443
6.65455e-05
3.11113e-05
0.000110606
0.000137938
2.90866e-05
0.000191942
7.69738e-05
0.00010418
0.000213229
0.000169149
0.000118188
0.000120187
3.42399e-05
1.80076e-05
8.18e-05
4.21134e-05
2.58105e-05
3.47085e-05
3.37765e-05
4.17903e-05
4.70494e-05
2.10763e-05
4.48618e-05
6.00424e-05
5.20409e-05
9.3979e-05
3.38155e-05
7.83523e-05
3.81182e-05
1.40509e-05
4.58471e-05
5.7557e-05
8.54354e-05
7.63464e-05
6.07879e-05
6.51652e-05
7.71084e-05
4.69419e-05
3.9597e-05
2.17359e-05
4.01102e-05
5.72844e-05
4.78762e-05
9.27349e-05
9.2083e-05
5.79284e-05
0.00011009
0.000138225
3.75742e-05
5.09253e-05
6.35037e-05
0.000142594
9.11156e-05
3.99372e-05
6.06597e-05
6.2892e-05
8.78343e-05
1.96927e-05
2.24707e-05
6.79191e-05
5.81384e-05
5.61194e-05
4.45418e-05
2.30751e-05
2.21299e-05
5.64989e-05
2.29278e-05
4.85458e-05
9.02773e-06
5.96593e-05
0
0
0
0
0
0
0
0
0
0
0
0
0
0
0
0
0.000149776
0.000167075
0.000151501
0.000143355
0.000165145
0.000161758
0.000134422
0.000108412
6.29332e-05
0.000130749
0.000159327
5.07566e-05
6.8012e-05
0.000138268
7.58544e-05
3.00798e-05
5.2966e-05
8.52246e-05
4.14346e-05
3.90633e-05
5.93673e-05
7.33121e-05
0
1.81934e-09
3.90214e-09
0
0
0
0
0
1.67982e-10
2.10697e-09
0
0
0
0
2.08184e-09
0
0
0
0
0
0
0
0
0
9.07656e-05
0
0.000378119
0.000326903
0.000238464
0.00016772
0.000109759
0.000240589
0.00019806
0.000142545
0.000151098
0.000119903
0.000170023
8.10615e-05
4.19708e-05
4.14755e-05
4.35919e-05
7.07952e-06
2.27978e-05
3.61118e-05
1.089e-05
2.01818e-05
1.75131e-05
2.42152e-05
2.2539e-05
8.47637e-06
1.14085e-07
6.20206e-06
1.8706e-05
2.28948e-05
6.38443e-06
1.67093e-05
2.3174e-05
2.63641e-05
0
0
0
2.46867e-06
5.08618e-06
0
0
0
0
0
0
0.000137823
0.000155022
0.000109344
7.25412e-05
0.000120353
0.00031747
0.000188312
0.000216481
4.05901e-05
8.10742e-05
7.48721e-05
0.000181034
1.18459e-05
2.51765e-05
6.52556e-05
6.67816e-05
3.17373e-05
9.32057e-05
1.74163e-05
6.66711e-05
0.000104475
0.000117099
0.000155913
4.61651e-05
0.000122505
6.21643e-05
5.63714e-05
0.00012308
5.38078e-05
0.000177664
6.59564e-05
0.000207688
9.52787e-05
1.50303e-05
0
0.000172579
8.02359e-05
6.87941e-05
9.45864e-06
4.51968e-05
1.86181e-05
2.74738e-05
4.29039e-05
6.17511e-05
1.13237e-05
2.52789e-05
4.0689e-05
5.47063e-05
7.92229e-05
3.25269e-05
2.53011e-05
4.14485e-05
2.46057e-05
3.71219e-05
7.54663e-05
7.5093e-05
5.2186e-05
4.52967e-06
1.85669e-05
7.01832e-05
5.64314e-05
4.61518e-05
5.31654e-05
4.7906e-05
6.03176e-05
0.000111266
7.89459e-05
9.44636e-05
6.45276e-05
0.000156086
0.000272434
0.000175859
0.000275626
0.000275675
0.000250267
8.69602e-05
6.90243e-05
7.10852e-05
5.83556e-05
7.47067e-05
7.68091e-05
3.20387e-05
8.08099e-05
8.3408e-05
0.000121153
1.88105e-05
0
1.17454e-05
6.93425e-05
0.000186406
0.000120853
1.88582e-05
7.94034e-05
2.47305e-05
4.02905e-05
8.17003e-06
0
0
0
0
0
0
0
0
0
0
0
0
0
0
0
0
0
0
0
0
0
0
0
0
0
0
4.44921e-10
0
3.95113e-10
0
1.5694e-10
6.87843e-10
0
0
0
0
0
0
0
0
0
0
0
0
0
0
0.000110563
0.000141797
0.000226069
7.71042e-05
0.000179044
0.000113487
0.000112177
0.000111285
4.0025e-05
0.000103952
6.86629e-05
6.77535e-05
3.93381e-05
0.000110339
3.62235e-05
6.75129e-05
4.8084e-05
3.35919e-05
6.01756e-05
8.45075e-05
4.90767e-05
3.92244e-05
0
0
0
0
0
0
0
0
0
0
0
0
0
0
0
0
0
0
0
0
0
0
0
0
0
0
0
0
0
0
0
0
0
0
0.000187825
4.1536e-05
7.95411e-05
0.00032185
0.000296187
7.49363e-05
0.000277921
4.25597e-05
6.49649e-05
0.000206886
0.000213355
9.01101e-05
0.000120071
0.000270325
9.77273e-10
0
0
0
0
0
0
0
0
0
0
0
0
0
0
0
0
3.16928e-05
5.35213e-05
8.27748e-06
5.2382e-05
2.30371e-05
5.60284e-06
1.02295e-05
3.57182e-05
8.11541e-06
2.79612e-06
0
0
0
0
0
0
0
2.14308e-05
1.0067e-05
1.69419e-06
0
0
0
0
0
0
0
0
0
0
0
0
0.000272041
0.000263283
0.000268255
0.000295241
0.000239347
0.000261977
0.000314121
0.000322976
0.000303546
0.00031491
4.43797e-05
0.000203202
0.000152047
0.00019718
4.88169e-05
5.8291e-05
9.3164e-05
3.27246e-05
2.43945e-06
4.05236e-05
8.40154e-05
0
7.97317e-05
0.000104503
8.60437e-05
9.16022e-05
9.06155e-05
4.8162e-05
9.16684e-05
0.000116547
8.59351e-05
2.30536e-05
6.10949e-07
0.0001146
0.00021016
8.10317e-05
1.39891e-05
7.23895e-05
0
0
0
2.22646e-05
3.63145e-05
1.71261e-05
2.90394e-05
2.12907e-05
1.6559e-05
2.56353e-05
4.07486e-05
1.9569e-05
3.97092e-05
7.02387e-05
7.51905e-05
3.12409e-05
1.62306e-05
5.57712e-05
3.51495e-05
4.79043e-05
6.12422e-05
5.18905e-05
2.3868e-05
5.97746e-05
6.85505e-05
0.000101781
2.45834e-05
7.97237e-05
0.000103068
0.000125649
2.16315e-05
0.000136007
0.000117552
8.60087e-05
3.93283e-05
5.85531e-05
0.000167426
0.000227956
0.000197346
0.000258816
0.000257248
0.000236457
0.000308559
0.000282614
0.000299145
0.0003183
0.000256441
0.000331063
0.000335065
0.000278377
0.000313899
0.000390167
0.000447289
0.000435072
0.000453269
0.00049773
0.000478747
0.000425073
0.000431732
0.000370585
0.000494046
0.000475782
0.000394502
0.000324524
0.000400043
0.000284258
0.000434608
0.000179814
0.000287944
0.000105673
0.000278076
0.000153403
0.000133611
0.000174673
0.000278525
0.000282812
0.000263445
0.000289558
0.000396365
0.000387394
0.000343172
0.000486512
0.000443207
7.10529e-05
3.61283e-05
5.35585e-05
5.11828e-05
0.000108345
5.90197e-05
3.46702e-05
2.12851e-05
8.86624e-05
0
0
2.18582e-07
0
0
0
0
4.0968e-05
1.09476e-06
1.9606e-06
0
0
0
0
0
0
0
0
0
0
0
0
0
0
0
4.46655e-09
0
0
0
0
0
0
0
0
3.9157e-09
0
0
0
0
0
0
0
0
0
0
0
0
0
0
9.55359e-10
8.86826e-10
0
0
8.52704e-10
0
0
0
0
0
2.13368e-09
0
0
1.91627e-09
0
3.50978e-09
7.29372e-10
0
0
0
0
0
0
0
0
0
0
0
0
0
0
0
0
0
3.04388e-09
0
0
0.000149033
0.000159619
0.000182422
0.000261213
9.3435e-05
0.000160295
0.000114379
9.28854e-05
0.000102208
6.23098e-05
5.80703e-05
8.83843e-05
5.32839e-05
5.68593e-05
5.6204e-05
6.34518e-05
6.18704e-05
3.89053e-05
6.5513e-05
3.70656e-05
7.19419e-05
6.29924e-05
0
0
1.08115e-09
7.80986e-10
0
0
0
0
1.79909e-09
0
0
0
0
0
0
0
0
0
0
0
0
0
4.3215e-09
3.38494e-09
0
0
0
0
4.75261e-05
0
7.84305e-05
0.000179015
0.000218626
0.000177024
0.00031012
0.000178681
0.000202908
0.000288826
0.000197983
0.000252397
0.000298494
0.000222544
0.000304598
0.000186161
8.12786e-10
0
0
0
0
2.69526e-11
0
0
5.15689e-11
0
0
0
0
0
0
0
0
0
0
0
0
0
0
0
8.67078e-08
0
4.67873e-05
2.83958e-05
1.45044e-05
1.54855e-05
2.51815e-07
1.29773e-05
0
0
0
1.63701e-08
0
0
0
0
0
0
5.14169e-07
0
4.35231e-07
3.25582e-07
0
0
0
0
0
0
0
0
0
0
4.36059e-10
0
0.000334148
0.000333218
0.000250889
0.000252711
0.00023476
0.000226371
0.000326688
0.000310927
0.000276942
0.000472933
0.000342417
0.00029614
0.000469721
0.000331229
0.000321464
0.000410127
0.000344467
0.00020678
0.000214427
0.000175717
0.000190289
0.000214633
0.000216094
0.000222939
0.000514185
0.000377097
0.000456641
0.000558273
0.000278871
0.000235489
0.000202135
0.000141193
0.000228555
0.000214835
5.53266e-05
6.04201e-05
4.7597e-05
1.26022e-05
0
3.02694e-05
0
9.61643e-05
0
7.66448e-05
4.99592e-05
7.84689e-05
0.000131884
7.26799e-05
0.000106956
6.78306e-06
0
0
0
0
0
0
0
0
0
0
0
0
2.28249e-05
2.41675e-07
1.20381e-05
2.8279e-05
2.28059e-05
1.786e-05
3.51625e-05
4.57928e-05
2.7811e-05
1.15e-05
3.6448e-05
4.67616e-05
2.2697e-05
3.97145e-05
3.00494e-05
0.000126944
4.28429e-05
7.39595e-05
0.000107475
9.55408e-06
2.8948e-05
7.37136e-05
0.000136617
2.56029e-05
5.00389e-05
0.0001408
7.96221e-05
5.76517e-05
0.000124881
8.94855e-05
0.000143422
5.67931e-05
0.000232091
0.000197337
0.000247699
0.000299374
0.000271894
0.000271025
0.000287923
0.00030704
0.000354683
0.000497483
0.000450335
0.000480496
0.000507035
0.000453765
0.000466248
0.000417372
0.000417929
0.000355874
0.000310849
0.000177326
0.00018747
0.000245372
0.000296823
0.000391174
0.000525793
0.000445753
0.000615355
0.000616654
0.000569307
0.000646835
0.000597897
0.00051892
0.000505318
0.000553978
0.000603958
0.000519243
0.000476726
0.00050286
0.000417416
0
0
2.16365e-05
0.000121847
2.04163e-06
4.50364e-05
4.64195e-05
2.47487e-05
2.30785e-05
5.16641e-07
0
0
0
2.39879e-07
0
0
0
0
0
7.79598e-09
5.84595e-09
0
0
0
0
0
0
0
0
6.20392e-09
4.37778e-09
0
0
0
5.66153e-09
0
0
0
0
0
0
0
4.4663e-09
0
0
0
0
0
0
0
0
4.35437e-11
0
0
0
0
0
0
0
0
0
0
0
0
0
0
1.15859e-09
0
0
0
0
0
3.67606e-09
0
1.42388e-09
0
0
0
0
0
0
0
0
0
0
0.000130267
0.000215699
0.000211106
0.000226058
5.87109e-05
9.10282e-05
6.73774e-05
7.59331e-05
6.05747e-05
6.85515e-05
7.32997e-05
3.15276e-05
3.40408e-05
3.35234e-05
3.14239e-05
3.72911e-05
4.96284e-06
7.02228e-05
3.31238e-05
2.8056e-05
2.39206e-05
7.15125e-05
6.49829e-10
0
1.35334e-10
0
0
0
0
0
0
0
0
0
0
0
0
0
0
0
0
0
0
0
0
0
0
0
0
0
9.87707e-05
0
8.63067e-05
7.46116e-05
0.00012086
0.000169637
0.000217401
0.000235884
0.000267282
0.000232464
0.000281739
0.000216199
0.000249587
0.000103404
0.000216115
0.000290617
0
0
0
0
0
0
0
0
0
0
0
7.42624e-10
0
0
0
0
0
0
0
0
0
0
8.94738e-08
0
0
0
0
0
0
0
0
2.03948e-05
1.16382e-05
1.50405e-05
1.61745e-06
0
0
0
0
8.5871e-06
1.28069e-05
1.11311e-05
0
0
0
0
3.87623e-10
5.85765e-10
0
0
0
0
0
0
0
0
0
0
0
0
0
0
0
0
0
0
0.000207903
0.000270573
0.000178454
0.000252878
0.00025619
0.000210617
0.00027039
0.000239537
0.00024999
0.00030858
0.000360384
0.000329939
0.000318503
0.000358533
0.000445629
0.000406903
0.000354525
0.000435887
0.000385994
0.000344435
0.000306794
0.000387443
0.000335023
0.000258072
0.000321918
0.000323745
0.000252715
0.00022154
0.00024718
0.00038212
0.000449771
0.000412378
0.000401383
0.000378356
0.000367384
0.000339189
0.000322637
0.000269039
0.000258073
0.000211172
0.000274298
0.000321783
0.00029245
0.000199053
0.00053639
0.000239372
0.000384584
0.000204324
0.000370487
0.000283438
0.000352463
0.000259928
0.000316652
0.000238426
0.000256584
0.000246726
0.000196312
0.0002103
0.00020341
0.000271257
0.000315843
0.000131276
0.000189088
0.000193848
0.00016936
0.000143696
7.1189e-05
7.02864e-05
0.000217571
0.000252299
2.94283e-05
2.81186e-05
1.07432e-05
0
0.000574598
0.00053883
0.000504461
0.000482648
0.000491928
0.000443493
0.000422437
0.000357402
0.00034436
0.000270596
0.000316066
0.00030395
0.000356016
0.000315337
0.000395292
0.00029282
0.000363656
0.000339824
0
0
1.44663e-09
5.12153e-05
2.55324e-05
0.000146848
0.000177727
1.96543e-05
8.2715e-10
0
2.70132e-09
4.54849e-09
0
0
0
0
0
0
0
0
0
4.26367e-07
7.17946e-07
1.00025e-06
1.35779e-05
4.68019e-06
2.22641e-05
5.46117e-06
2.11153e-05
2.85438e-05
7.71369e-05
6.62881e-05
1.09601e-05
0.000108214
3.82457e-05
9.37814e-05
0.000101512
2.16952e-05
5.72274e-05
7.5819e-05
4.76546e-05
3.85653e-05
0.00015446
0.000119829
9.6045e-05
5.44162e-05
0.000108207
0.000158114
0.000136293
0.00020074
0.000224427
0.000303993
0.000280816
0.000229428
0.000328338
0.000357077
0.000361005
0.000310891
0.00020702
0.000362072
0.000367911
0.00053183
0.000531717
0.000518065
0.000532616
0.000493152
0.000515002
0.00045771
0.000428609
0.000386137
0.000235482
0.00033292
0.000234417
0.000244309
0.000402055
0.000282722
0.000544498
0.000489731
0.000665915
0.000700935
0.000711188
0.00072168
0.000662029
0.000714108
0.000627803
0
0
1.26418e-07
0
0
0
0
1.02881e-06
0
0
0
0
0
0
5.42969e-09
0
0
0
0
7.37578e-09
0
0
0
0
0
0
0
0
1.5319e-09
0
2.04153e-09
0
3.66314e-10
0
0
0
0
0
0
0
0
0
4.77979e-09
0
0
0
0
0
0
0
0
2.73584e-07
0
1.17581e-10
0
0
0
0
0
0
0
0
0
0
8.72947e-10
0
0
0
0
3.17852e-09
0
0
0
0
0
0
0
0
0
0
0
0
0
0
0
0
0
0
0
2.32938e-09
0
0
0
0
8.99786e-10
0.000374275
0.000464728
0.000453504
0.000458649
0.000244026
0.000304275
0.00019504
5.3362e-05
0.000169582
0.000142202
7.56165e-05
4.72521e-05
5.62616e-05
4.91513e-05
2.08273e-05
5.38605e-05
2.76181e-05
1.77615e-05
3.00184e-05
1.60269e-05
2.28454e-05
1.22208e-05
4.89129e-05
3.93742e-05
3.91935e-05
0
0
0
0
0
0
0
0
0
0
0
8.17611e-10
0
0
0
0
0
0
0
0
0
0
0
0
0
0
0
6.15086e-05
3.09789e-05
1.37737e-05
1.68935e-05
0.000151413
0.000109949
8.85053e-05
8.89816e-05
9.66416e-05
0.000249383
0.000144507
0.000156756
0.000210125
0.000257404
0.00015064
0.00016079
0
3.16586e-10
0
0
0
0
0
0
0
0
0
0
0
0
0
0
0
7.52857e-10
0
0
0
0
0
0
0
0
0
0
0
0
0
0
0
0
0
1.22936e-08
0
1.73978e-05
6.93358e-06
9.52367e-06
5.56818e-06
9.67928e-06
0
9.60427e-06
0
0
0
0
1.17159e-05
4.26165e-06
0
0
0
0
0
0
0
0
0
0
0
0
0
0
0
0
0
0
0
0
0
0
0
0
0.000256527
0.000161441
0.000188488
0.000129351
0.000183642
0.000161752
0.000471536
0.000161661
0.000304854
0.00033729
0.00028417
0.00026543
0.000245528
0.000232325
0.000151403
0.00023017
0.000349622
0.000295017
0.000328409
0.00032702
0.000286489
0.000328352
0.000300781
0.00024581
0.000286017
0.000328556
0.000274359
0.000211508
0.000186015
0.000306166
0.000100105
0.000413743
0.000469915
0.000183731
0.000216353
0.000355367
0.000496102
0.000348211
0.000344843
0.000337146
0.000387416
0.000324469
0.000311957
0.000305185
0.000283602
0.000239354
0.000219701
8.68683e-05
0.00016552
0.00018643
0.000107486
0.000150374
0.000152428
0.000120671
0.000121213
0.000156855
0.000197926
8.93564e-05
0.000141212
0.000198281
0.000185643
3.97508e-05
3.56767e-05
0
1.24132e-05
0.000583506
0.000668406
0.000635308
0.000534479
0.000579107
0.000537458
0.000502888
0.00048204
0.000454592
0.000371942
0.000413661
0.000330904
0.000372311
0.000425323
0.000366005
0.000351446
0.000346758
0.000320001
0.000279395
0.000562484
0.000553465
0.000520933
0.00030009
0.00028171
0.000296704
3.01485e-09
7.65624e-09
3.60088e-09
0
0
0
0
0
0
0
0
0
0
2.67719e-09
0
1.24032e-09
0
0
0
0
3.21976e-09
0
1.99531e-06
0
1.71434e-05
2.98607e-05
2.17417e-05
2.32511e-05
3.67838e-05
8.25471e-06
1.28736e-05
7.63503e-05
0.000112272
0.000122519
0.000101303
4.47589e-06
0.000127803
0.000189674
0.000203224
0.00019524
0.000131849
0.00017494
0.000101476
0.00013979
0.0001663
0.000129078
0.000101382
0.000156066
0.000260734
0.000220394
0.000303824
0.000356156
0.00030297
0.000293357
0.000344846
0.000345301
0.000448388
0.00028633
0.000381821
0.000687032
0.000671325
0.000524966
0.000539743
0.000551915
0.000489782
0.000389952
0.000469068
0.000345092
0.000228656
0.000207768
0.000242621
0.000211444
0.000425915
0.000527229
0.000614098
0.000761986
0.000799129
0.000827007
0.000798823
0.000749104
0.000787317
0.000711365
0
0
0
0
0
0
0
0
0
0
0
0
0
0
0
0
0
0
0
0
0
0
0
0
0
0
7.18322e-08
0
5.04051e-10
1.00524e-09
0
0
0
0
0
0
0
0
0
0
0
0
2.47499e-07
0
0
0
0
0
0
0
0
3.28751e-07
0
0
0
1.34912e-09
1.35365e-09
0
0
0
0
0
0
0
1.88019e-09
1.3287e-09
0
0
2.20666e-09
2.63604e-09
0
0
0
0
3.41765e-09
0
4.97363e-09
0
0
0
0
0
2.50415e-10
4.53832e-10
0
0
0
0
0
0
0
0
0
0
1.57178e-09
0
0
0
0
0
0
0
0
0.00052718
0.000419267
0.000319638
0.000204312
0.000273975
0.00035039
0.000290344
0.000271906
0.000199539
0.000274553
1.47066e-06
0.00011729
0.000105833
5.30954e-05
1.10581e-05
9.91856e-05
4.30555e-05
5.23636e-05
3.74908e-05
4.24885e-05
2.04819e-05
1.19076e-05
1.74039e-05
3.66946e-05
1.79212e-05
5.73673e-06
1.84876e-05
0
0
0
0
0
0
0
5.59872e-10
3.32758e-05
0
0
0
0
0
0
0
0
0
0
3.86072e-11
0
0
0
0
0
5.86049e-05
5.82294e-05
4.25483e-05
9.51819e-05
8.2328e-05
4.04558e-05
0.000119706
5.35715e-05
4.64865e-05
7.04029e-05
0.000118658
0.000116751
3.21135e-05
5.8363e-05
0.000138648
8.53387e-05
0
0
2.9642e-10
2.39875e-09
0
0
0
1.72818e-10
0
0
0
0
0
0
0
3.61641e-09
0
0
0
0
0
8.29348e-10
0
0
0
0
0
0
0
0
3.99385e-09
0
0
0
0
0
0
0
0
0
0
0
0
0
0
2.8399e-05
1.41868e-05
1.6781e-05
0
0
0
0
0
0
0
0
1.01548e-09
1.4586e-09
0
0
0
0
0
0
0
0
0
0
0
0
0
0
0
8.63892e-10
0
2.21546e-09
0
0
0
0
0
0
0
1.12543e-09
9.87795e-05
0.0001162
0.000140444
0.000260837
0.000268782
0.00045666
0.000569063
0.000144001
0.000333226
0.00028689
0.000166729
0.000343862
0.000398651
0.000357036
0.000266143
0.000244249
0.000256726
0.000223177
0.000218405
0.000213895
0.000232223
0.000241408
0.000265353
0.00020104
0.00028558
0.000247674
0.00026485
0.000253733
0.000268557
0.00017451
0.000249821
0.00029681
0.00018251
0.000212063
0.000241148
0.000297341
0.000178295
0.000284891
0.000244603
0.000202175
0.000312345
0.000343664
0.000268188
0.00017417
0.000337378
0.000325488
0.000318475
0.000317198
0.000284394
0.000215336
0.000147337
0.000224036
0.000105534
5.95354e-05
0.000214439
0.000147503
0.000136709
7.18998e-05
0.000116036
2.41409e-05
8.05801e-05
0.000200364
0.000190532
0.000119796
0.000210578
0.00011733
5.15506e-05
2.91565e-05
1.95675e-05
6.4193e-07
0.000754343
0.000746781
0.000652274
0.000618187
0.000683693
0.000596516
0.00064057
0.000606789
0.000569898
0.000456768
0.000499726
0.000453269
0.000443622
0.000419396
0.000415226
0.00037155
0.000382848
0.000350771
0.000335745
0.000137977
0.000249072
0.000520656
0.000552165
0.000242662
0.000320983
0
0
0
0
0
0
0
0
0
0
0
0
0
0
0
0
3.30912e-09
0
0
0
0
0
6.99869e-06
0
2.37637e-05
3.90451e-05
3.27167e-05
4.30941e-06
5.61395e-05
6.91969e-05
6.91361e-05
7.04519e-05
0.000135583
0.000106495
6.71785e-05
0.000136326
6.6589e-05
6.70355e-05
0.000222787
5.79778e-05
0.000117438
0.000132522
0.000105458
0.000212915
0.000163718
0.000171036
0.00015407
0.000144325
0.000253713
0.00023325
0.000349335
0.000292707
0.000368888
0.000293457
0.00029131
0.000362454
0.000585925
0.00030603
0.000557041
0.000465955
0.000583892
0.000503075
0.000522295
0.000416151
0.000375251
0.000221833
0.000232036
0.000212917
0.000400111
0.000135143
0.000498081
0.000659295
0.000844209
0.000925477
0.000915614
0.000988563
0.000891938
0.000795638
0.000819169
0
0
1.1791e-06
5.41986e-11
0
0
0
0
0
0
0
1.396e-09
0
1.50854e-09
2.1615e-09
4.6321e-09
3.08603e-09
0
7.10419e-09
3.16433e-06
3.64747e-07
0
0
1.10133e-09
0
2.36688e-09
2.55718e-08
0
0
0
0
0
0
0
0
2.3535e-12
0
0
0
0
0
0
1.88253e-07
0
0
0
0
0
0
0
0
0
0
0
0
0
0
0
0
0
0
0
0
0
0
0
0
7.38593e-09
0
0
0
0
0
0
0
0
0
0
0
0
0
0
3.51072e-09
0
0
0
0
0
0
0
0
0
0
0
0
0
0
0
0
0
0
0
0
0
0
0
0
0
0
0
0
0
9.0185e-11
0
0
0
0
0.000273789
0.000275606
0.000353575
0.000185634
0.000270314
0.000294334
0.000436679
0.00026785
0.000422469
0.000389611
0.000335739
0.000162968
0.000228756
0.000615563
0.000402878
0.000160025
2.85753e-05
0.000153349
1.2044e-05
4.42681e-05
5.46181e-05
2.08546e-06
3.35948e-05
2.31309e-05
3.40299e-05
8.77901e-06
6.73007e-06
9.99999e-06
3.75073e-05
0
0
0
0
0
7.24431e-05
0
0
0
0
0
0
0
0
0
0
0
0
0
0
0
0
0
0
3.77578e-05
3.17505e-05
8.4825e-05
3.88567e-05
4.16668e-05
2.28491e-05
8.46334e-05
6.5521e-05
9.99846e-05
3.93635e-05
4.64083e-05
3.55106e-05
9.74757e-05
8.4993e-05
4.43485e-05
3.26088e-05
0
9.54949e-10
0
0
0
0
0
1.11152e-10
0
0
1.03438e-10
0
0
0
0
0
0
0
0
4.38622e-11
0
0
0
0
0
0
0
0
0
0
0
0
0
0
0
0
9.90175e-10
0
3.63682e-09
5.27704e-09
0
0
0
0
0
0
0
0
0
0
0
0
0
0
0
0
0
2.50876e-05
3.17944e-06
0
0
0
0
0
0
0
0
0
0
0
0
0
0
0
0
0
0
0
0
0
0
0
0
0
0
0
0
0
0
0
8.40858e-10
1.92173e-09
0
0
0
0
0
0
0.00012915
0.000317956
0.000200957
0.000505229
0.000177878
0.000619081
3.6489e-05
0.000884121
0.000246732
0.000465383
0.000387573
0.000470316
0.00040591
0.000185974
0.000252207
0.000188054
0.000210888
0.000235517
0.000212486
0.000242229
0.000259239
0.0002014
0.00017952
0.000189757
0.000217175
0.000196436
0.000205993
0.000261854
0.000230669
0.000241945
0.000227243
0.000224854
0.000167009
0.000220256
0.000247508
0.000138591
0.000219576
0.000181303
0.000235974
0.000232531
0.000247023
0.000122859
0.000191452
0.000283996
0.000203677
0.000255393
0.000247443
0.000198031
0.000293316
0.000145561
0.000200326
0.000241906
0.000314691
0.000166488
0.000192856
0.000380587
0.000197236
5.12731e-05
8.84255e-05
0.000227194
0.000133329
0.000101445
0.00018766
0.00014055
0.000207367
4.205e-05
1.57562e-05
3.72173e-05
2.33604e-07
0
0
0
0.000825399
0.000790364
0.000739712
0.000738874
0.000680583
0.000612024
0.000677804
0.000665587
0.00055826
0.000620966
0.000528965
0.000469435
0.00045696
0.000480319
0.000449177
0.000434851
0.000367791
0.000353158
0.000305874
0.000285131
0.000268618
0.00027383
0.000551282
0.000506007
0.000145361
0.000248653
0
0
0
0
0
1.77883e-09
1.80209e-09
0
0
0
0
4.05526e-09
1.72735e-09
0
0
0
0
0
0
0
0
0
0
0
0
2.50589e-05
2.80286e-05
0
2.85554e-05
5.23709e-05
0.000139039
3.28382e-05
0.00034424
0.000207591
0.000177671
0.000204689
0.000187893
0.000160114
0.000220363
0.000259561
0.000255898
0.000190456
0.000110151
9.34623e-05
0.000185208
0.000202562
0.000261334
0.000197514
0.00034089
0.000309213
0.000334565
0.000414994
0.000394583
0.000462513
0.000388189
0.000502423
0.000615634
0.000522513
0.000614956
0.000524027
0.000587592
0.000467256
0.0004333
0.000290128
0.000109288
0.00026303
0.000350689
8.29262e-05
0.000459694
0.000628656
0.000892487
0.000961754
0.000984436
0.00107869
0.00100331
0.000914189
0.000974768
0.000814467
0
0
0
0
0
0
0
0
0
7.51852e-09
0
0
0
6.07284e-09
8.46042e-09
3.36963e-09
3.93963e-09
2.19393e-09
2.08073e-09
0
0
0
0
0
0
0
0
0
0
0
0
0
0
0
0
1.10446e-10
0
0
0
3.52186e-07
0
0
0
0
0
0
0
0
0
0
0
0
0
0
0
0
0
0
6.26886e-08
0
0
0
0
0
8.36999e-10
3.69324e-10
1.32367e-09
0
1.12543e-08
0
0
0
0
0
0
0
0
0
0
0
0
0
0
0
0
0
0
0
0
0
0
0
0
0
0
0
0
0
0
0
0
0
0
0
0
0
0
0
2.33489e-09
0
2.79224e-10
0
0
1.01041e-09
0
2.3497e-09
0.000370699
0.000366652
0.000310175
0.000317018
0.000292037
0.000253239
0.000305761
0.000384621
0.000222817
0.000193319
0.000435371
0.000195067
0.000117951
0.000276078
0.000371215
0.000555144
0.000401112
0.000410873
0.00046145
4.48583e-05
0.000107471
2.38296e-05
3.47644e-05
6.95993e-05
3.4582e-05
5.45473e-05
3.37178e-05
2.65573e-05
2.23205e-05
1.96194e-05
9.9366e-06
6.55254e-06
2.21908e-05
0
0
1.15958e-05
1.07348e-05
0
0
0
6.21967e-09
0
0
0
0
0
0
0
0
0
3.82787e-09
0
0
3.48427e-09
0
0
0
4.1614e-05
4.75408e-05
5.40286e-05
1.09425e-05
6.79628e-05
6.06885e-05
1.85027e-05
8.01047e-05
5.35222e-05
4.92533e-05
3.21267e-05
5.8939e-05
6.88135e-05
0
0
0
0
0
0
2.63117e-09
1.75874e-09
0
0
1.19541e-09
0
0
0
0
0
0
2.85474e-08
0
0
0
0
0
0
0
0
0
0
1.22365e-08
0
0
0
0
0
0
0
0
0
0
0
0
0
0
0
0
1.7294e-08
0
0
0
0
0
6.85432e-09
0
0
0
0
0
0
0
0
0
0
0
0
0
0
0
0
0
0
0
1.99177e-09
0
0
0
0
0
0
0
0
0
0
0
0
0
0
0
0
0
0
0
0
0
0
0
0
0
1.68116e-09
0
0
0
0
0
0
0
0
0.000372692
0.000516044
0.000826451
0.000510406
0.000514596
0.000405442
0.000661949
0.00018485
0.000457189
0.000196259
0.000273157
0.000360221
0.000372834
0.000219787
0.000233416
0.000215136
0.000192751
0.000183236
0.00023572
0.000242964
0.000338138
0.000466291
0.000211983
0.000211745
0.000170537
0.000199473
0.000182214
0.000150772
0.000266918
0.000223712
0.00023515
0.000223575
0.000183526
0.000291764
0.00022686
0.000269563
0.000190452
2.88677e-05
0.00023977
0.000161396
0.000145743
0.000131681
0.000173929
5.76114e-05
0.000175969
0.000220323
0.000216507
3.04187e-05
0.000316966
0.00011966
0.00027243
0.000155121
0.000136214
0.000157684
9.86338e-05
0.000250479
0.00031543
0.000146429
8.11928e-05
4.35906e-05
0.000257054
0.000202911
8.87364e-05
0.000183652
0.000180815
0.000219381
4.43075e-05
1.89451e-05
1.04085e-05
5.40745e-05
6.00426e-06
8.49813e-05
0.000713896
0.000802673
0.000736584
0.000717648
0.00069537
0.000622261
0.000638431
0.000525625
0.000593765
0.000503616
0.000504853
0.000458124
0.000433643
0.0004107
0.000385316
0.000337579
0.000307537
0.00029009
0.000305201
0.000309974
0.000249909
0.000535714
0.000486175
0.000310441
0.0003209
0
0
0
0
0
0
0
0
0
4.5451e-09
0
0
0
0
0
1.20801e-10
1.03879e-10
0
0
0
0
0
0
0
0
2.01117e-05
2.48889e-05
4.27933e-05
0.000132191
6.96994e-05
0.000219885
0.000252009
8.00007e-05
0.000181538
4.23101e-05
0.000256361
0.000153374
0.000188726
0.000301541
0.000254261
0.000257215
0.000286184
0.000266488
0.00028041
0.000343727
0.000306691
0.000287973
0.000380907
0.000424707
0.000417451
0.000520585
0.00046104
0.000468665
0.000446401
0.000586238
0.000486244
0.000621777
0.000614856
0.000562811
0.000605317
0.000403339
0.000473248
0.000295238
7.37368e-05
1.06937e-05
0.000289061
0.000494009
0.000553545
0.000959794
0.00095928
0.00108017
0.00106052
0.00100282
0.0010575
0.000976863
0.000893783
0.000785238
0.000863893
0
0
0
0
0
0
0
0
0
0
0
0
0
0
0
0
0
6.54943e-09
0
0
1.86153e-08
0
0
0
3.73491e-10
0
0
0
0
0
5.35233e-09
0
0
0
0
0
0
0
0
0
0
0
0
0
0
0
1.50816e-09
2.35204e-09
2.27336e-09
0
0
0
0
1.03753e-09
0
0
1.26911e-09
0
0
0
0
2.33641e-09
0
2.22258e-09
0
0
0
0
0
0
0
0
0
0
0
0
0
0
0
0
0
0
0
0
0
0
0
0
0
0
0
0
0
0
0
0
0
0
0
0
0
0
0
0
0
0
0
0
0
0
0
0
0
0
0
0
0
9.39658e-10
0
0
0
2.44024e-09
0
0
0.000288272
0.000325588
0.000328257
0.000310563
0.000304447
0.000252951
0.000307651
0.000288032
0.000178685
0.00054654
0.000234749
0.000138291
0.000328672
0.000319163
0.000387665
5.66653e-05
0.000244255
0.000364975
0.000325788
0.00024342
0.000337602
0.000405296
0.000378173
0.000325657
3.00658e-05
8.13787e-05
5.17556e-05
1.69516e-05
6.56625e-05
5.93916e-05
8.17194e-05
5.90229e-05
1.38184e-05
2.45346e-05
2.22003e-05
2.53311e-05
5.72013e-06
0
0
3.2173e-05
4.69623e-05
0
0
3.53114e-09
0
0
3.54579e-09
0
0
0
4.70863e-10
0
0
0
0
0
3.78009e-09
0
7.03116e-09
0
0
6.22619e-05
1.35652e-05
5.68754e-05
3.26592e-05
4.10115e-05
0.000104026
0.000116826
0.000101179
0.000137674
5.57483e-05
0.000128156
2.15683e-10
0
0
1.02183e-10
0
0
1.62087e-09
1.23474e-09
0
0
0
0
0
0
0
0
1.27657e-08
1.56763e-08
0
0
3.66784e-09
0
6.44553e-09
0
0
0
0
4.6741e-07
0
1.70016e-09
2.63648e-07
0
0
0
0
0
0
0
0
0
0
0
0
0
0
0
0
0
0
5.19101e-09
0
0
0
5.5668e-09
0
0
0
0
0
0
0
0
0
0
0
0
0
0
0
0
0
0
0
0
0
0
2.06786e-09
5.5689e-10
0
0
0
0
0
0
0
0
1.04312e-09
0
0
0
0
0
0
6.95945e-10
0
0
0
0
0
0
0
0
0
0
0
0
0
0
1.44569e-09
0
0
0
0
0
0
0
0
0
0.000233934
0.000722559
0.000254554
0.000323371
0.000226635
0.000196837
0.000244841
0.000321662
0.000222618
0.000364013
0.00029706
0.000326119
0.000336266
0.000334679
0.000281439
0.000192646
0.000173881
0.000161796
0.000187283
0.000178112
0.000216756
0.000240864
0.000321312
0.000320112
0.0002107
0.000179113
0.000202137
0.000225671
0.00017858
0.000284808
0.000310549
0.00017805
0.000310707
0.000247471
0.000363631
0.000323026
0.000232557
4.26112e-05
0.000224399
0.000260274
0.000275894
0.00016137
0.00015686
0.000165324
0.000143518
0.000110215
0.000172154
0.000240599
0.000527187
0.000297757
0.000181989
0.000633846
0.000376887
0.000142126
0.000419423
0.000147361
0.000130051
0.000117804
8.06224e-05
7.35761e-05
0.000344699
0.000179641
9.03324e-05
8.46619e-05
0.000240389
0.000285958
3.20927e-05
5.78788e-05
3.43763e-05
5.10954e-05
0.000191496
2.0199e-05
0.000717459
0.000766005
0.000638965
0.000656715
0.00053175
0.000568782