/*--------------------------------*- C++ -*----------------------------------*\
  =========                 |
  \\      /  F ield         | OpenFOAM: The Open Source CFD Toolbox
   \\    /   O peration     | Website:  https://openfoam.org
    \\  /    A nd           | Version:  8
     \\/     M anipulation  |
\*---------------------------------------------------------------------------*/
FoamFile
{
    version     2.0;
    format      ascii;
    class       volScalarField;
    location    "4740";
    object      alpha;
}
// * * * * * * * * * * * * * * * * * * * * * * * * * * * * * * * * * * * * * //

dimensions      [0 0 -1 0 0 0 0];

internalField   nonuniform List<scalar> 
526318
(
0.000459107
0.00107076
0.000742164
0.000699039
0.000657312
0.000421537
0.00111537
0.00155359
0.000265811
0.0021632
0.00131231
0.00162313
0.00119915
0.000695025
0.00172504
0.00103293
0.00104535
0.0006003
0.000561575
0.000285887
0.000436307
8.22422e-05
0.00138055
0.000572456
0.00200072
0.00174601
0.000956323
0.000794507
0.000454718
0.000507441
0.000242003
0.000480583
0.00021131
2.8227e-05
0.000813366
0.000541263
0.000956386
0.000452234
0.00071518
0.00057124
0.000320132
0.000939621
0.00655463
0.00853447
0.00597595
0.004518
0.00350349
0.00318572
0.00132725
0.00144948
0.00118461
0.000587571
0.00079183
0.0012816
0.124309
0.0177351
0.0191701
0.0673362
0.000514273
0.000463774
0.000245494
0.000451889
0.000571904
6.44895e-05
0.000304814
0.000457283
0.000484066
0.000417526
0.000281183
0.000521113
0.000575044
0.000724385
0.000686434
0.000379087
0.000848426
0.000512074
0.000732001
0.000386159
0.000688007
0.000774871
0.000246361
0.000464897
0.000394661
0.000239982
0.000312766
0.000178631
0.000309549
0.000465871
0.000784027
0.000297222
0.00047776
0.000334849
0.000340357
0.000784437
0.00143686
0.00151561
0.00127265
0.000930953
0.000779867
0.00104681
0
0
0
0
0
0
0.00883924
0.0199398
0.00464724
0.00176323
0.00555965
0.00205655
0.000138069
0.00152291
0.000615679
0.000322973
0.00029002
0.000254753
0.00026
0.00106725
0.000918286
0.000552491
0.00114615
0.000693593
0.000759397
0.000770696
0.00109592
0.0011953
0.000951503
0.00101432
0.00240811
0.0012318
0.00174773
0.00246728
0.00170363
0.0034496
0.00128706
0.0015919
0.00261669
0.00438527
0.00347564
0.00443395
0.00346092
0.00232064
0.00331936
0.00206405
0.00263642
0.00329543
0.00229277
0.00359829
0.00315597
0.00229995
0.0035164
0.00169184
0.00369396
0.00391173
0.00233169
0.000417974
0.00483975
0.00663112
0.00241776
0.00679316
0.000524277
0.00058032
0.000660299
0.000550367
0.000686898
0.000758275
0.000639496
0.000783329
0.000976353
0.000419318
0.000575658
0.000570548
0.000198899
0.000496803
0.00118526
0.000827218
0.000716753
0.00243629
0.00167486
0.00134459
0.000940271
0.00155876
0.00118659
0.00240568
0.0012636
0.00215973
0.00271241
0.00261045
0.00194259
0.00308341
0.00206901
0.00323934
0.00213701
0.000798378
0.00147867
0.00158682
0.00129566
0.00175463
0.000478564
0.0019806
0.00112467
0.00308414
0.0018352
0.0022828
0.00391379
0.00170409
0.000911706
0.00264439
0.000265808
0.00103286
0.000571449
0.000785019
0.00079412
0.000673974
0.000840405
0.00139471
0.000106829
0.0106559
0.00553426
0.0104221
0.0014174
0.000898125
0.000713762
0.00111569
0.000869541
0.000369785
0.0012399
0
0
0.0653973
0.0243461
0
0
0
0
0
0
0.000403441
0.000485656
0.000523716
0.000534336
0.000573528
0.000455393
0.00025322
0.000567805
0.000678288
0.000266391
0.000627949
0.00029428
0.00026543
0.000288949
0.000449403
0.000222159
0.00034102
0.000416136
0.000201827
0.000144832
0.000469058
0.000572868
0
0
0
0
0
0
0
0.058134
0.00322277
0.00538326
0.00454429
0.000872008
0.00307827
0.00148203
0.00116779
0.000831875
0.000750793
0.000795561
0.000749074
0.000654584
0.00050111
0.000792906
0.000927552
0.000450604
0.00255189
0.000728809
0.000581979
0.000756739
0.00275602
0.00457243
0.00412415
0.00390176
0.00996471
0.00473902
0.00198223
0.00255052
0.000725204
0.0023503
0.00119874
0.00273158
0.00228885
0.0055292
0.00254879
0.00160884
0.00441495
0.00486501
0.00371385
0.00460408
0.00291475
0.00238473
0.00590347
0.0198768
0.00352441
0.0156996
0.014553
0.00313691
0.00256675
0.00282532
0.00127808
0.000823851
0.000889679
0.000862521
0.000677801
0.000711504
0.000750193
0.000574793
0.000554983
0.000561131
0.000111478
0.000467432
0.00113361
0.00295004
0.0027942
0.00237589
0.000579905
0.00291299
0.00231788
0.00712955
0.000658203
0.00412745
0.00479916
0.00216137
0.00324486
0.00268653
0.00261661
0.002309
0.00208939
0.00243296
0.00281741
0.000671719
0.00186454
0.000954902
0.000953283
0.00265954
0.0030165
0.00231451
0.00153141
0.00148145
0.000527805
0.0025049
0.00240931
0.00205012
0.00160154
0.00239383
0.00142441
0.00180025
0.000564873
0.00173197
0.00163524
0.00120609
0.00166444
0.000757969
0.00158102
0.00175635
0.00142627
0.00152326
0.00100926
0.000399501
0.000901942
0.00113619
0.000394182
0.00121093
0.00118959
0.000670502
0.00166627
0.00107517
0.00117286
0.00769081
0.0262546
0.0281524
0.007632
0.00585326
0.00370042
0.0044542
0.0024031
0.00131309
0.00104764
0.000680348
0
0
0
0
0.0657546
0
0
0
0
0
0
0
0
0
0
0
0.000613647
0.000626718
0.000750422
0.000768883
0.000577178
0.000465519
0.000542332
0.000271833
0.000303879
0.000781108
0.000549988
0.000323643
0.000294809
0.000218805
0.000329485
0.000313399
0.000376453
0.000370098
0.000269793
0.000379952
0.00054366
0.000120499
0
0.00630445
0.0120299
0
0
0
0
0
0.00153941
0.0081561
0
0
0
0
0.00707132
0
0
0
0
0
0
0
0
0
0.049484
2.94078
0.00402059
0.00238839
0.000817643
0.00208391
0.00113595
0.00158052
0.00110196
0.0011948
0.00107957
0.00110979
0.000941184
0.000931514
0.00115912
0.000471391
0.000920026
0.000680755
0.000965048
0.00164509
0.000720575
0.00187346
0.00430253
0.00428003
0.00317606
0.00343385
0.0114875
0.00616574
0.00330195
0.0048836
0.00526489
0.0122817
0.00620612
0.00845551
0.0161246
0.0171665
0.00946928
0.00810957
0.00399203
0.0115655
0.0033776
0.0346679
0.0198143
0.0465931
0.0603608
0.00237263
0.00237643
0.00274614
0.00246525
0.0014695
0.00172915
0.00213586
0.00208238
0.00340029
0.00196696
0.00198279
0.00218233
0.00308887
0.00675199
0.00139522
0.00302842
0.00176784
0.00100555
0.00152266
0.000953608
0.000472769
0.000404874
0.000609887
0.000534691
0.00139593
0.000508936
0.00185774
0.00402939
0.00213106
0.00594914
0.00921827
0.00413697
0.0179733
0.044967
0.0358861
0.00404232
0.00347148
0.00280118
0.00259205
0.00130445
0.00124198
0.000629225
0.00165999
0.000744181
0.000920053
0.00146326
0.00116435
0.0021265
0.0031183
0.00243721
0.000989006
0.00218832
0.000361647
0.00161848
0.00111288
0.000845005
0.00144412
0.00125507
0.00101997
0.000522604
0.000753587
0.000839983
0.000720944
0.000238763
0.000887152
0.00115963
0.000391046
0.000689698
0.000579784
0.00132106
0.00141252
0.00135982
0.00132969
0.00130822
0.000901812
0.000369493
0.000849176
0.0011008
0.00105946
0.000421627
0.00298683
0.000870931
0.0062141
0.00292467
0.00179624
0.00166833
0.0296103
0.0385402
0.00860038
0.00818163
0.00323161
0.00177109
0.00395013
0.00674579
0.00525288
0.0091958
0
0
0
0
0
0.0214308
0
0
0
0
0
0
0
0
0
0
0
0
0
0
0
0
0
0
0
0
0.00060291
0
0
0.000855665
0.000210609
0.000355441
0
0
0
0
0
0
0
0
0
0
0
0
0
0
0.00063734
0.00064093
0.000709611
0.000766127
0.000474459
0.000361704
0.000213594
0.000640557
0.000421747
0.000870719
0.000425782
0.000337398
0.000316988
0.000113532
0.000150335
0.000189051
0.000228587
0.000290752
0.000329966
0.000165641
0.000859028
0.000717078
0
0
0
0
0
0
0
0
0
0
0
0
0
0
0
0
0
0
0
0
0
0
0
0
0
0
0.0289032
0
0
0
0.993712
0
0.0489722
0.075576
0.00564946
0.00418775
0.00151693
0.00176536
0.0011695
0.00119443
0.000969427
0.00111391
0.00110358
0.00100868
0.000975167
0.000911495
0.00077304
0.000733665
0
0
0
0
0
0
0
0
0
0
0
0
0
0
0
0
0
0.000719195
0.00112123
0.000425719
0.000582661
0.00262781
0.00081128
0.00174855
0.00847209
0.0104735
0.0125621
0.0144178
0.0141678
0.0208747
0.0307782
0.0386991
0.0145575
0.00726035
0.00784172
0.0215664
0.0134688
0.184862
0
2.63638
0.0822995
0.013292
0.0210932
0.0470212
0.080427
0
0
0
0
0.00106301
0.00122491
0.00142791
0.00114524
0.00175984
0.00153552
0.00114896
0.00104511
0.00102504
0.000986448
0.00346639
0.00292739
0.00162892
0.00186117
0.00041946
0.00299276
0.00368854
0.00364549
0.0172459
0.0132272
0.00661631
0.00694898
0.0019233
0.00257885
0.000924761
0.00119941
0.000728127
0.000516786
0.000545747
0.000852745
0.00378966
0.00345274
0.00517241
0.00829876
0.0277135
0.0105609
0.0486976
0.077547
0.0659452
0.0163839
0.0643098
0.0119848
0.00210141
0.00266884
0.00225533
0.00150447
0.00185471
0.00132655
0.00190431
0.00122969
0.000984934
0.00237081
0.0025452
0.00169034
0.000442784
0.00180545
0.000627319
0.000601978
0.001213
0.00129799
0.00125965
0.00163109
0.000250265
0.00147192
0.000167435
0.00127034
0.000323114
0.000484659
0.00105664
0.00014838
0.000467175
0.000721663
0.00116918
0.00108709
0.000968821
0.00124086
0.00121732
0.00127109
0.00104323
0.00136081
0.00123661
0.000865904
0.000701032
0.000627059
0.000773189
0.000554505
0.000533168
0.000781721
0.000551594
0.000562137
0.000464046
0.000403268
0.000353944
0.00033274
0.000293902
0.000275875
0.000199803
0.00010916
0.000243506
0.000304643
0.000210751
0.000135481
0.000283668
0.000216912
0.000288597
0.000195663
0.000315916
0.000227152
0.0003087
0.000196884
0.000341453
0.000271946
0.000229294
0.000269548
0.000188955
0.000275701
0.000208536
0.000171202
0.000155564
0.0001224
0.000221226
0.0029446
0.00310765
0.000893324
0.000792614
0.000409664
0.00172492
0.00346192
0.0229998
0.00139415
0
0.888685
0.00358585
0.0236871
0
0.111009
0.0898661
0.00614618
0.00794324
0.0046667
0.0628089
0.101446
0.0718158
0.00638879
0
0.014935
0
0
0
0
0
0
0
0
0
0.0116796
0
0
0
0
0
0
0
0
0.0154881
0
0
0
0
0
0
0
0
0
0
0
0
0
0
0
0.022109
0
0
0
0
0
0.0200217
0
0
0
0.0269661
0
0.0198289
0
0.0215433
0.0213355
0
0
0.0128983
0
0
0
0
0
0
0
0
0
0
0
0
0
0
0.012075
0
0
0.00052126
0.000474743
0.000574425
0.000520011
0.000178531
0.000443238
0.000725439
0.00037696
0.000614726
0.000471932
0.000400017
0.000147868
0.000242536
7.6682e-05
0.000858293
0.000955829
0.000970983
0.000378014
0.000193064
0.000242788
0.000152438
0.000453876
0
0
0.0434289
0.23811
0
0
0
0
0.242008
0
0
0
0
0
0
0
0
0
0
0
0
0
0.0161087
0.0119384
0
0
0
0.0743439
0.0113519
0.0256814
0.00293673
0.00198388
0.00172999
0.000751899
0.00106872
0.000478618
0.000828132
0.000409624
0.000567647
0.00077537
0.000584926
0.000424754
0.000410369
0.000364584
0.0027012
0
0
0
0
9.37852e-05
0
0
0.000344244
0
0
0
0
0
0
0
0
0
0
0
0
0
0
0
0.530325
3.28729
0.00169454
0.00146066
0.00300082
0.00138199
0.0110281
0.00825652
0.0134592
0.0130335
0.0103452
0.00221428
0.0724034
0.0115213
0
0
0
0.0787888
0.0169474
0.0161505
0.0146378
0.00599671
0
0
0
0
0
0
0
0
0
0
0.0024727
0
0.000817595
0.00081903
0.00131591
0.00169584
0.00182572
0.00148935
0.000984741
0.00118369
0.000438206
0.000412493
0.000546482
0.000573039
0.000385042
0.000132825
6.19562e-05
0.000259389
0.000262521
0.000114058
0.000236313
0.000132713
0.000139801
0.000284267
0.000134157
0.000221739
8.03941e-05
9.51386e-05
0.000148327
0.000213006
0.000186033
0.000152477
0.0021268
0.00378076
0.00198297
0.00167029
0.00458143
0.00607025
0.00318482
0.000946759
0.0188289
0.00813656
0
0.00311572
0.045063
0.000905702
0.0013363
0.0010179
0.00248467
0.00152694
0.00199747
0.00891502
0.0772686
0.402889
0.0734313
0.0512112
0
0
0
0
0.0496423
0.054187
0
0.00458216
0.000894557
0.00390528
0.00362637
0.00443032
0.00427307
0.000735211
0.00127367
0.00352454
0.00185447
0.00089896
0.000500142
0.00187239
0.000924677
0.000585451
0.00162222
0.00162362
0.00155981
0.000662932
0.000721127
0.000563402
0.000641732
0.00117561
0.00136009
0.00100098
0.00108032
0.000922747
0.00078073
0.00116234
0.00164252
0.00143243
0.00155397
0.000808863
0.00172495
0.00125395
0.0013912
0.00129402
0.00111796
0.00133319
0.0007417
0.000780701
0.000601732
0.000483887
0.000654044
0.000539988
0.000358617
0.000278764
0.000322909
0.000244708
0.000270919
0.00022424
0.000346618
0.000219145
0.000338799
0.000198863
0.000265632
0.000143702
0.000178747
0.000230024
0.000161193
0.000171013
0.000111023
0.000127326
3.13274e-05
1.05316e-05
8.78013e-05
3.50194e-05
3.68876e-05
6.14552e-05
8.79996e-05
7.06849e-05
1.63052e-05
0.0292033
0.0102887
0.0111252
0.00588491
0.00810127
0.00267555
0.00265912
0.011926
0.010256
0.0603337
1.89951
0
0
0.0175282
0.0162243
0
0
0.105637
0
0.150944
0.197705
0.0414959
0.140435
0.0471649
0.00617511
0
0
0
0
0.0084772
0.0091419
0
0
0
0.015679
0
0
0
0
0
0
0
0.0187476
0
0
0
0
0
0
0
0
0.000350919
0
0
0
0.0062212
0
0
0
0
0
0
0
0
0
0
0
0
0
0
0
0
0.0132462
0
0.00714503
0
0
0
0
0
0
0
0
0
0
0.000355082
0.000215581
0.00024191
0.000217747
0.00022253
0.000374067
0.000580925
0.0003361
0.00052851
0.000187776
0.000229316
0.000476689
0.000505182
0.000325117
0.00196128
0.00147384
0.00223384
0.00148509
0.000714086
0.00100471
0.000169348
0.000396082
0.0435374
0
0.00197558
0
0
0
0
0
0
0
0
0
0
0
0
0
0
0
0
0
0
0
0
0
0
0
0
0.03943
0.00468301
0.0570897
0.00331877
0.000883814
0.00214403
0.000670392
0.00049185
0.000905677
0.000194477
0.000619355
0.000372437
0.000305793
0.00023237
0.000239692
0.000199234
0.000382628
0
0
0
0
0
0
0
0
0
0
0
0
0.0579989
0
0
0
0
0
0
0.0381103
0
0.273557
0.39405
0
0
0
0
0
0
0
0
0.00135352
0.00627726
0.00716841
0.00652767
0.0112744
0.00711657
0.0306095
0.00914455
0.00481494
0.00799362
0.00672822
0
0
0
0
0.0360385
0.0281927
0
0.163442
0.00714792
0.0444456
0.00879642
0.0360997
0
0
0
0
0
0.00706723
0
0
0
0
0
0
9.93647e-05
0.000117181
5.61191e-06
6.9972e-05
7.66095e-05
6.82304e-05
3.80799e-05
0.000177624
7.71392e-05
0.000108159
0.000171622
0.000166185
5.8569e-05
4.35646e-05
5.15603e-05
3.23445e-05
3.64152e-05
3.07662e-05
7.51178e-05
7.53063e-05
6.37002e-05
2.06672e-05
8.98152e-05
5.42208e-05
8.56986e-05
3.27847e-05
6.98563e-05
0.000127005
8.12377e-05
5.04942e-05
8.38689e-05
4.9751e-05
4.32834e-06
3.43868e-05
2.52158e-05
0.000798933
0.000836072
0.000955507
0.00135154
0.0014632
0.00153826
0.000938157
0.000996477
0.000208512
0.000456776
0.00056061
0.00046872
0.000121338
0.000288914
0.000160615
0.000188868
0.000107856
0.000233007
0.000132536
0.000269639
0.000209753
0.000323898
0.000274765
0.000257204
0.000120046
0.000109937
0.000271641
0.000251249
0.00233633
0.00227672
0.00425814
0.00629326
0.00240032
0.00145173
0.00184678
0.00268404
0.00351358
0.0153747
0.0373126
2.52396e-05
4.83527e-05
2.43642e-05
9.00899e-05
6.24498e-05
6.98775e-05
5.38426e-05
8.4147e-05
5.74998e-05
6.97847e-05
8.04569e-05
6.82207e-05
0.000112329
6.06937e-05
9.93484e-05
1.06767e-05
5.88884e-05
9.9067e-05
0.0860471
0
0.0384721
0.00159895
0.0034862
0.0016374
0.001672
0.0122308
0.052138
0.257822
0.111908
0.443482
0
0
0
0
0
0
0.0263396
0
0
0.00593502
0.00675185
0.0230493
0.00170989
0.0124207
0.000275589
0.00190819
0.000959611
0.00114068
0.000646077
0.00106075
0.00145298
0.000433931
0.00182842
0.00139633
0.00135998
0.00187255
0.00117279
0.000973989
0.000907098
0.000953126
0.000396741
0.000925922
0.000654173
0.000584442
0.000718477
0.000355358
0.000407382
0.000704392
0.00114734
0.00162094
0.00117454
0.00103849
0.00133654
0.00104008
0.00105644
0.00126655
0.000609823
0.000784841
0.000585231
0.000688878
0.000731517
0.000602089
0.00043304
0.000376058
0.000316939
0.000296958
0.000303066
0.000269445
0.000242621
0.000302519
0.00029857
0.000172166
7.88589e-05
0.000293161
0.0002099
0.000214322
0.000128905
0.000281803
0.000130626
0.000123282
7.64597e-05
2.36157e-05
4.37975e-05
0.0201065
0.0290589
0.0111098
0
0.105791
0.0600701
0
0.0242258
0.140814
0
0
0
0
0
0.0304891
0
0
0
0
0.165593
0
0
0
0
0
0
0
0
0.00445333
0.0310185
0.0126767
0
0.00171643
0
0
0
0
0
0
0
0
0
0.014606
0
0
0
0
0
0
0
0
0.196466
0
0
0
0
0
0
0
0
0
0
0
0
0.00414337
0
0
0
0
0
0
0
0
0
0
0
0
0
0
0
0
0
0
0
0
0
0
0
0
0.0137597
0
0
0
0
0.0184927
0.00023365
0.000136244
0.000125694
7.21271e-05
0.000182654
9.27014e-05
0.000116535
0.000113589
6.12548e-05
9.19182e-05
0.00039926
0.000110368
0.000285661
0.000520993
0.000778446
0.000539046
0.000405798
0.000601291
0.000368879
0.00104585
0.00256012
0.00389342
0.00130758
0.00116164
0.000718514
0
0
0
0
0
0
0
0
0
0
0
0
0
0
0.0564289
0.0541235
0
0
0
0
0
0
0
0
0
0
0
0.00284777
0.00102331
0.00133054
0.00131967
0.000376143
0.000107827
0.000223369
0.00153956
0.000786963
0.000566825
0.000492728
0.000645889
9.19629e-05
0.000387558
0.000447333
0.000264429
0
0.00247912
0
0
0
0
0
0
0
0
0
0
0
0
0
0
0
0.00167737
0
0
0
0
0
0
0.0262073
0
0
0
0.0297959
0
0
0
0
0.0451028
0
0.0231568
0.0124225
0.00318898
0.00427924
0.00341407
0.0082824
0.00834976
0.00870243
0.000132709
0
0.370379
0
0
0.00143201
0.00339273
0
0
0
0
0
0
0
0
0.115059
0
0.0724052
0.0851031
0
0
0
0
0
0
0
0
0
0
0
0
0.000102161
0.00018185
0.000134342
6.99502e-05
7.13905e-05
5.80965e-05
0.000265759
0.00015497
7.69011e-06
9.95446e-05
8.26272e-05
6.67454e-05
7.02742e-05
0.000144345
0.000101655
9.75876e-05
0.000100283
9.60979e-05
6.93596e-05
4.11362e-05
3.2179e-05
5.70908e-05
0.000739771
0.0010324
0.00091047
0.00086196
0.00173197
0.00164161
0.000845573
0.000895628
0.00019072
0.000324646
0.00043688
0.000697708
0.000223774
0.000119424
0.000219753
0.000227626
0.000141212
4.75435e-05
0.000210234
0.000117464
0.000249419
0.000225186
0.000387239
0.000387002
0.000339245
0.000297107
0.000351939
0.000171931
0.000222075
0.000206584
0.000173304
0.00357603
0.00184892
0.00232177
0.00112066
0.00567827
0.00243882
0.00165537
0.00181718
0.00603465
0.00516609
0.00644714
0.00469412
6.22355e-05
0.000158686
9.74185e-05
6.2273e-05
8.03032e-05
8.82096e-05
9.96517e-05
6.89541e-05
0.000100165
0.000125241
7.32533e-05
5.96088e-05
9.47238e-05
0.000104122
0.00010314
5.33333e-05
0.00014321
0.000136338
5.89244e-05
4.9023e-05
0.000100943
6.62737e-05
8.19711e-05
0.000104395
0.000133522
3.02132
0.0701992
0.0787243
6.69963
0.189413
0.0592532
0
0
0
0
0
0
0
0.009574
0
0.00439659
0
0
0
0
0.00384221
0.167302
0.0254699
0.984598
0.0040418
0.00414804
0.0219893
0.00759365
0.00298001
0.00197286
0.0021462
0.00140324
0.00125695
0.00105718
0.000937296
0.00152231
0.00200733
0.001103
0.000857088
0.00116488
0.000264367
0.000673925
0.000825922
0.0010288
0.000923722
0.000638558
0.000360729
0.00109672
0.00133443
0.000951316
0.0011153
0.0010939
0.00148894
0.000991809
0.00104848
0.00115744
0.001018
0.000582095
0.000412417
0.00081697
0.000869883
0.000500489
0.00050306
0.000315534
0.000333294
0.000292491
0.000338204
0.000279693
0.000258774
0.000217352
0.000254124
0.000226906
0.000124998
0.000230551
0.000121787
0.000162902
0.000221243
0.000358383
0.000153152
0.000268321
6.90523e-05
2.40441e-05
0
0
0
0
0
0
0
0
0
0
0
0
0
0
0
0
0
0
0
0
0
0
0
0
0
0
0
0
0.0135194
0.0359638
0
0
0
0
0
0
0
0
0
0
0
0
0.196638
0
0
0
0
0
0
0
0
0.426444
0
0
0
0.00463157
0.00513803
0
0
0
0
0
0
0
0.00149739
0.00387407
0
0
0.0298982
0.00268804
0
0
0
0
0.0106486
0
0.0164697
0
0
0
0
0.0142854
0.00486013
0.00294273
0
0
0
0
0
0
0
0
0
0
0.0061166
0
0
0
0
0
0
0
0
0.000255377
0.000232646
0.000175311
0.00012686
0.000135754
6.44276e-05
0.000172907
0.000103871
0.000175665
0.000158703
0.000121739
0.000183853
0.000157764
0.000316765
0.000434204
0.000206507
0.00036735
0.000662855
0.000294141
0.000871958
0.000836303
0.000126172
0.00155194
0.000493256
0.00289728
0.000946922
0.00229293
0
0
0
0
0
0
0
0.0867253
0.00515974
0.142062
0
0
0
0
0
0
0
0
0
0.000356572
0
0
0
0
0
0.000134171
0.000236885
0.000450491
0.000891096
0.00102019
0.0010756
0.00158626
0.000243265
0.000667518
0.000768799
0.000666885
0.000563018
0.000575722
0.000676958
4.55002e-05
0.000326009
0
0
0.00231501
0.0124821
0
0
0.0327485
0.0345334
0
0
0
0.00948816
0
0
0
0.00583365
0.00415631
0.00195272
0
0
0
0.00504106
0
0
0
0.00415803
0
0
0
0
0
0
0
0
0
0
0
0
0
0
0
0
0
0
0
0.00275645
0.00457643
0.00297934
0.0281072
0.00571677
0.0412444
0.0349301
0
0
0
0
0.0044453
0.00138811
0
0
0
0
0
0
0
0
0
0
0.279197
0
0.0843418
0
0
0
0
0.00898699
0
0
0
0
0
0
0
0.00675012
0.000158846
0.000176268
0.000146032
0.000177919
0.000182898
0.000250292
9.7334e-05
0.000389795
0.00026094
9.6411e-05
0.000314948
0.0001499
2.13799e-05
0.000123038
5.53853e-05
3.57852e-05
0.000139704
7.10139e-05
0.000150485
0.00010054
0.00017731
9.89803e-05
0.000111667
0.000139241
4.94873e-05
9.31518e-05
0.000100591
3.89013e-05
0.000689936
0.00107701
0.000890151
0.00101484
0.00141919
0.00136789
0.000787095
0.000998494
0.000427337
0.000114791
0.000388903
0.000784343
9.88066e-05
4.40149e-05
0.000101643
0.000184364
0.00016674
4.07587e-05
0.000242951
0.000123643
0.00024089
0.000340125
0.000406524
0.000374923
0.000381365
0.000545131
9.67065e-05
0.000227665
0.000233929
0.000368427
0.00346958
0.0037656
0.00182883
0.00165695
0.00242028
0.00229432
0.00137803
0.00190045
0.00279245
0.00403151
0.00153241
0.00489762
0.000395279
0.00011127
7.79792e-05
0.000142497
8.84172e-05
0.000109696
4.65109e-05
9.5002e-05
8.52844e-05
7.87842e-05
8.9435e-05
0.000130531
9.77016e-05
0.00010285
9.26327e-05
0.000102398
0.000106596
9.10932e-05
7.84723e-05
0.000123066
1.86059e-05
4.54314e-05
9.3638e-05
0.000130513
9.7235e-05
0
0
0
0
0
0
0
0
0
0
0
0
0
0
0
0
0.00566034
0
0
0
0
0
0.0392991
0
0.0054244
0.00390209
0.00701449
0.010945
0.00489597
0.00302946
0.00221699
0.00107171
0.00224744
0.00119282
0.000166717
0.00248331
0.000809951
0.00114566
0.00177615
0.000203427
0.00191701
0.00132591
0.000581265
0.000532611
0.00103587
0.00120309
0.000797556
0.00078988
0.00129466
0.000967439
0.00113425
0.000936725
0.00105958
0.000779078
0.000698772
0.0011978
0.000939363
0.000473418
0.000732244
0.000441874
0.000449465
0.000332733
0.000367695
0.000330394
0.000287623
0.000232862
0.000244627
0.000217578
0.000155951
0.000204039
0.000184474
0.000104535
0.0002014
9.19562e-05
6.44064e-05
0.000235452
0.000272573
0.000107163
0.000199221
0
0
0.120878
0.000368467
0
0
0
0
0
0
0.0345298
0.00469185
0
0.0102754
0.0188004
0.00886667
0.00629099
0
0.0156736
0.319439
0
0
0
0.00159993
0
0.00257254
0.00497686
0
0
0
0
0
0
0
0.0243849
0.000111509
0
0
0
0
0
0
0.599222
0
0
0
0
0
0
0
0
0
0
0
0
0
0
0
0
0
0
0
0
0
0
0
0
0
0
0
0
0
0
0
0
0
0
0
0
0
0
0
0.0208822
0
0
0
0
0
0
0
0
0
0
0
0
0
0
0
0
0
0
0
0
0
0
0
0
0
0
0
0
0
1.943
0
0
0
0
0.000125997
2.4318e-05
0.000167757
0.000112585
0.000151405
6.62773e-05
4.1269e-05
0.000244866
0.000147659
8.42565e-05
8.39907e-05
0.000173126
0.000120271
0.000183596
0.000269396
0.000178489
0.000332025
0.000280057
0.00051796
0.000390088
0.000810372
0.000138319
0.00191809
0.000436224
0.00239111
0.00158213
0.00218025
0.00173449
0.00271178
0
0
0
0.00730437
1.10396
0.00364815
0.160921
0
0
0
0
0.0203206
0
0
0
0
0
0
0.000604087
0
0.00105605
0
0
0
0.000530442
0.000428807
0.000213758
0.000172044
0.000717797
0.00220636
0.00240149
0.00129187
0.00188497
0.000961052
0.000443273
0.000861776
0.000869816
0.000765763
0.000662104
0.000437287
0
0.0038068
0
0
0
0
0
0.0248869
0
0
0.03651
0
0
0
0
0
0
0
0
0.000170582
0
0
0
0
0
0
0
0
0
0
0
0
0
0
0
0
0
0
0.00424672
0
0
0
0
0
0
0
0
0
0
0
0
0
0
0
0
0
0
0.00623437
0.00433551
0.0190369
0.135338
0.310554
0
0
0
0
0
0
0
0
0
0
0
0
0
0
0
0
0
0.0408736
0
0
0
0
0
0
0
0
0
0
0.00825109
0.00579988
0
0
0
0
0
0
0.000395599
0.000246756
0.000126641
0.000611161
0.000280826
0.000488361
0.000245736
0.00082277
0.000501097
8.83505e-05
0.000341464
0.000255523
0.000205565
2.67523e-05
8.52719e-05
0.000112406
6.62237e-05
0.000186929
0.000117124
8.76984e-05
0.000137274
0.000155598
0.000142487
6.57228e-05
9.73609e-06
6.40419e-05
5.77669e-05
0.000758963
0.000908234
0.000932557
0.000867158
0.000813177
0.000710261
0.000847821
0.000863942
0.000493415
0.000160211
0.000698532
0.000455521
4.79278e-05
7.89685e-05
0.000236936
6.70184e-05
1.79914e-05
0.000192967
0.000242021
7.66723e-05
0.000232023
0.000396831
0.000243656
0.000212747
8.69758e-05
0.000356269
0.000145552
0.000113917
9.48556e-05
0.000297144
0.0037788
0.00313276
0.00183135
0.00160546
0.000623592
0.00220934
0.00147633
0.00120051
0.00690739
0.00297883
0.00596766
0.0153962
0
0
0.0232689
0.00031497
0.00016576
0.000106174
3.85895e-05
0.000131269
6.8848e-05
1.54879e-05
0.000100496
2.54536e-05
9.20413e-05
0.000145642
6.73105e-05
8.48091e-05
0.000103953
9.14331e-05
0.000104845
8.07394e-05
0.000128889
8.5475e-05
7.66432e-05
7.49382e-05
0.000131931
9.48803e-05
5.93482e-05
5.34768e-05
7.45315e-05
0
0
0
0
0
0.0064252
0.0126224
0
0
0
0
0.00530724
0.00622161
0
0
0
0
0
0
0
0
0
0.0305091
0.00864183
0.0948682
0.0209628
0.00397262
0.0159532
0.00238489
0.00382245
0.0026512
0.0031731
0.00228836
0.00218835
0.00113325
0.000806781
2.67054e-05
0.00107712
0.0005778
0.00128032
0.00126079
0.000815988
0.000223704
0.00061986
0.00103039
0.000903917
0.00099369
0.000613046
0.000900164
0.000731988
0.000792339
0.00113521
0.000709705
0.000812874
0.000476799
0.000907312
0.00077358
0.000542416
0.000571545
0.000316161
0.000374751
0.000257344
0.000312625
0.00024374
0.000203307
0.000240582
0.000157196
0.000189755
0.000163052
0.000105688
0.0001634
2.27483e-05
9.00075e-05
0.000115397
0.000313455
6.93388e-05
0.000187632
0.000106218
0
0
0.0159469
0
0
0
0
0
0
0.00601808
0
0
0
0.0120991
0.00500699
0.0184567
0.0182082
0.00634711
0.012549
0
0
0
0
0
0
0
0
0
0
0
0
0
0
0
0
0.00250365
0
0
0
0.190773
0
0
0
0
0
0
0
0
0
0
0
0
0
0
0
0
0
0
0.447871
0
0
0
0
0
0.00311508
0.000859889
0.0046066
0
0
0
0
0
0
0
0
0
0
0
0
0
0
0
0
0
0
0
0
0
0
0
0
0
0
0
0
0
0
0
0
0
0
0
0
0
0
0
0
0
0.0106432
0
0.00107292
0
0
0.000557259
0.0163694
0
0.000153447
0.000129742
7.3835e-05
7.52852e-05
8.53147e-05
9.9668e-05
0.000155392
0.000310136
7.6103e-05
0.000111371
0.000169777
0.000171945
8.08022e-05
0.000162963
6.31346e-05
0.000188864
0.00011371
0.000193569
0.000252821
0.00046097
0.000145438
0.000329222
0.00110162
0.000715338
0.000746277
0.000463159
0.000565943
0.00079045
0.00163382
0.00118608
0.00130426
0.00315792
0.00462311
0
0
0.0238094
0.0129761
1.35967
0
0
0
0
0
0
0
0.0260893
0
0
0
0
0.0186733
0
0
0
0
0
0
0.000527739
0.000796653
0.000150315
0.00102201
0.00178977
0.00291966
0.000759612
0.000272006
0.000132624
0.000553353
0.000683559
0.000182686
0.000276772
0
0
0
0
0
0
0.00611278
0.00797128
0
0
0.00611405
0
0
0
0
0
0
0.907644
0
0
0
0
0
0
0
0
0
0
0.0469258
0
0
0
0
0
0
0
0
0
0
0
0
0
0
0
0
0
0
0
0
0
0
0.0111499
0
0
0
0
0
0
0
0
0
0
0
0.0108886
1.03137
0.479761
0
0
0
0
0
0.0335505
0
0
0
0
0
0
0
0
0
0
0
0
0
0
0
0
0
0
0
0
0
0
0
0
0
0.00457141
0
0
0
0
0
0
0
0
0.000360177
0.000496612
0.000868867
0.000662897
0.000429144
0.000286884
0.000343257
0.000203117
0.000137491
0.000116463
8.57042e-05
5.85601e-05
8.76977e-05
0.000157734
0.000109507
0.000114698
8.56241e-05
0.000162492
0.000119696
0.000141959
0.000172328
0.000318906
0.000165933
5.52554e-05
2.76737e-05
0.000127396
3.99585e-05
0.000146751
0.000634977
0.000725891
0.000724622
0.000795065
0.000733821
0.000986194
0.000802235
0.000782201
0.000267728
0.000489418
0.000388209
0.000587639
5.78763e-05
9.24137e-05
0.000134775
0.000282072
0.000113989
0.000273604
0.00016788
7.91066e-05
0.000534149
0.000355934
0.000567592
0.000725199
0.000516483
0.000284532
0.000179477
9.62303e-05
0.000201092
0.000372727
0.00347377
0.00505459
0.00132932
0.000715239
0.000504019
0.00146484
0.00167945
0.00140049
0.000833877
0.00731347
0.00338102
0.0014293
0.00792815
0.00155687
0.000156003
0.000102165
0.000142888
7.94451e-05
5.82516e-05
0.000103061
7.2707e-05
2.02635e-05
8.88053e-05
0.000109995
6.39749e-05
9.8049e-05
3.40434e-05
9.02811e-05
9.86619e-05
4.60323e-05
0.000119092
7.76562e-05
6.81511e-05
3.56074e-05
9.04936e-05
0.000101804
1.13894e-05
0.000120971
4.35279e-05
0
0
0
0
0
0
0
0
0
0.00602666
0
0
0
0
0
0.00214951
0.00376647
0
0
0
0
2.82925
0.0356266
0.0197977
0
0.0142856
0.00358494
0.00250249
0.00190794
0.00609958
0.00414799
0.00604186
0.00114471
0.00225438
0.00155455
0.000401008
0.00227731
0.000657751
0.000951699
0.000471446
0.00157929
0.000914251
0.000342855
0.000210559
0.000626591
0.000936739
0.000930887
0.000460512
0.000740101
0.000531531
0.000692825
0.000563675
0.000720522
0.000557311
0.000507747
0.000409209
0.000327486
0.00052772
0.000205887
0.000371421
0.000204079
0.000288062
0.000236276
0.000149872
0.00015887
0.000125429
0.000140684
7.17691e-05
4.65075e-05
0.00015068
0.000121352
8.42172e-05
6.82388e-05
0.000162651
0.000108636
9.20188e-05
6.89853e-05
0.00014293
0
0
0
0
0
0
0
0
0
0
0
0
0
0
0
0
0
0.00551237
0
0
0.002936
0
0
0
0.00671644
0
0
0
0
0
0.00031674
0
0
0
0
0
0
0
0
0
0
0
0
0
0
0
0.00907763
0.0135809
0.0126971
0
0
0
0
0.00458222
0
0
0.00573397
0
0
0
0
0.00681045
0
0.00163584
0
0
0
0
0
0
0
0
0
0
0
0
0
0
0
0
0
0
0
0
0
0
0
0
0
0
0
0
0
0
0
0
0
0
0
0
0
0
0
0
0
0
0
0
0
0
0
0
0
0
0
0
0
0.00353762
0
0
0
0.0151061
0
0
9.96548e-05
9.2153e-05
8.79766e-05
9.81342e-05
8.24474e-05
0.000168212
9.0546e-05
3.63899e-05
9.84823e-05
0.000101167
0.000166318
0.000171216
0.00015002
7.6014e-05
6.28817e-05
9.90921e-05
0.000101574
0.000257458
8.09299e-05
6.63497e-05
0.000236894
0.000150252
9.14436e-05
6.7308e-05
0.00210972
0.000574412
0.00135172
0.00111045
0.000647155
0.0016474
0.00204574
0.000905516
0.000741945
0.00111146
0.000959204
0.00680961
0.0036121
0.015715
0.0797252
0.0133335
0.000794936
0
0
0.0137328
0
0
0
0
0
0
0.000801339
0
0.00186921
0
0
0
0.00345967
0
0.0320177
0
0
0.00114023
0.00119034
0.00105512
0.0011689
0.00112356
0.00184424
0.000793174
0.000811853
0.000724882
0.000331784
0.000505717
0.000693026
0
0
0.00030882
0
0
0.00318307
0.00324297
0
0
0
0
0
0
0
0
0.0677071
0.224254
0
0
0.0367732
0
0.0103237
0
0
0
0
0.425363
0
0.00587146
0.0728838
0
0
0
0
0
0
0
0
0
0
0
0
0
0
0
0
0
0
0.0253561
0
0
0
0.0235119
0
0
0
0
0
0
0
0
0
0
0
0
0
0
0
0
0
0
0
0
0
0
0.0202437
0.0283526
0
0
0
0
0
0
0
0
0.0022227
0
0
0
0
0
0
0.00144958
0
0
0
0
0
0
0
0
0
0
0.0193021
0.689482
0
0
0.00622717
0
0.000311978
0
0
0
0
0
0
0
0.000213345
0.000502497
0.000170083
0.000158173
0.000151925
0.000174752
0.000112784
0.00018909
0.000123559
5.06042e-05
1.28034e-05
4.68366e-05
7.87036e-05
6.48331e-05
6.7301e-05
4.15496e-05
0.000111111
0.000122066
0.00012498
0.00019808
0.000134927
0.000140519
0.00016928
0.000193803
0.000150842
0.000164295
0.0001051
0.000152208
6.4125e-05
0.000663246
0.000631569
0.000740969
0.000929278
0.000861195
0.000934435
0.000861578
0.000923765
0.000448121
0.000242958
0.000514101
0.00058826
7.79681e-05
6.40345e-05
0.000209475
0.000115065
0.00019468
3.48417e-05
0.000340512
0.000487451
0.000415453
0.000323025
0.000760741
0.000426993
0.000144248
0.000153632
0.000167842
0.000137611
0.000213052
0.000641081
0.0036758
0.000998498
0.000887036
0.000650892
0.000911277
0.00132265
0.0021098
0.00705963
0.00320376