/*--------------------------------*- C++ -*----------------------------------*\
  =========                 |
  \\      /  F ield         | OpenFOAM: The Open Source CFD Toolbox
   \\    /   O peration     | Website:  https://openfoam.org
    \\  /    A nd           | Version:  8
     \\/     M anipulation  |
\*---------------------------------------------------------------------------*/
FoamFile
{
    version     2.0;
    format      ascii;
    class       volScalarField;
    location    "4740";
    object      H;
}
// * * * * * * * * * * * * * * * * * * * * * * * * * * * * * * * * * * * * * //

dimensions      [0 1 0 0 0 0 0];

internalField   nonuniform List<scalar> 
526318
(
0.791497
0.749257
0.823826
0.736028
0.809374
0.76402
0.781965
0.700367
0.755307
0.646741
0.61419
0.733062
0.6809
0.721877
0.678575
0.706248
0.679315
0.883457
0.790286
0.835976
0.830696
0.789527
0.552666
0.792644
0.668665
0.530818
0.80762
0.803261
0.806557
0.817827
0.851126
0.898384
0.878883
0.764996
0.761302
0.730862
0.741861
0.832241
0.752391
0.707575
0.765346
0.731083
0.405092
0.447231
0.350094
0.411385
0.37896
0.511658
0.682677
0.583324
0.659909
0.669628
0.618247
0.577943
0.0802958
0.317117
0.30501
0.103241
0.839751
0.853359
0.873266
0.822425
0.772437
0.899816
0.894446
0.852891
0.837562
0.837734
0.739825
0.732105
0.846577
0.624561
0.681028
0.571746
0.529965
0.519911
0.620968
0.61046
0.527651
0.571037
0.64514
0.650897
0.60595
0.553882
0.581161
0.654696
0.652919
0.632672
0.580611
0.653956
0.555978
0.508184
0.504027
0.432249
0.432995
0.432502
0.43247
0.4291
0.429625
0.426729
7.97638e-05
2.15653e-06
0.00100063
2.22975e-08
0.000969483
0.00015436
0.340724
0.145664
0.467349
0.426657
0.472296
0.587922
0.810101
0.700075
0.807349
0.825099
0.890211
0.857983
0.906092
0.423918
0.421921
0.424843
0.429689
0.383334
0.423739
0.335893
0.376581
0.287512
0.338464
0.285827
0.286332
0.276314
0.251358
0.243377
0.272083
0.210105
0.266719
0.214281
0.238251
0.1845
0.189159
0.205989
0.237927
0.22073
0.179625
0.18014
0.192658
0.182552
0.179321
0.184246
0.195754
0.18538
0.191382
0.194132
0.189537
0.156061
0.19061
0.192378
0.153769
0.108675
0.187338
0.139926
0.197459
0.690529
0.786128
0.728396
0.716114
0.516532
0.58909
0.519454
0.522666
0.515832
0.523194
0.543521
0.513509
0.450728
0.426413
0.389353
0.330998
0.390833
0.430091
0.434617
0.430074
0.319797
0.372582
0.258248
0.267712
0.275644
0.268278
0.270758
0.274958
0.262094
0.263883
0.261592
0.245856
0.231921
0.255184
0.248388
0.221278
0.199712
0.228205
0.210286
0.203173
0.2204
0.210981
0.21149
0.178397
0.200858
0.226482
0.224378
0.683763
0.6878
0.721276
0.699146
0.67689
0.67815
0.674845
0.550354
0.597846
0.352607
0.317352
0.316105
0.442721
0.571136
0.452087
0.485431
0.480294
0.43191
0.40964
0.00071957
7.17631e-14
0.0417906
0.284602
0.00027704
9.76159e-09
0.000995694
0.000255125
0.000396609
0.000963311
0.892608
0.871205
0.921375
0.913973
0.879766
0.870105
0.778923
0.86324
0.709255
0.653322
0.655445
0.653256
0.653475
0.653545
0.64285
0.637713
0.560754
0.619785
0.441427
0.495779
0.424423
0.438426
0.00100536
4.55059e-11
0.000154997
0.00100202
0.000103589
0.000987509
2.17358e-06
0.0558654
0.434539
0.25071
0.482222
0.49097
0.600191
0.697303
0.820602
0.825222
0.862764
0.835138
0.90434
0.936045
0.401919
0.40604
0.368632
0.335974
0.235275
0.272442
0.192743
0.204381
0.198128
0.188115
0.181663
0.185342
0.110624
0.134087
0.170341
0.206633
0.265334
0.224913
0.199244
0.186873
0.121962
0.115004
0.166594
0.21768
0.142847
0.175495
0.177676
0.147322
0.148096
0.112294
0.113643
0.0744786
0.0719089
0.0760628
0.0623855
0.189676
0.229438
0.186734
0.227909
0.58905
0.549742
0.443571
0.532734
0.456607
0.511765
0.522171
0.507033
0.519509
0.516961
0.429989
0.343713
0.273309
0.255072
0.331114
0.27263
0.258601
0.373155
0.261247
0.309859
0.248423
0.250386
0.259192
0.247819
0.26178
0.259613
0.257638
0.262183
0.258572
0.258025
0.266447
0.265576
0.276324
0.276251
0.271453
0.252459
0.262746
0.248165
0.22186
0.223105
0.250542
0.280535
0.276188
0.250827
0.23133
0.260903
0.300499
0.295509
0.308816
0.271603
0.303326
0.317858
0.36021
0.313625
0.31711
0.335386
0.367235
0.49878
0.575036
0.502723
0.539227
0.595715
0.657611
0.577309
0.43601
0.556768
0.453824
0.479663
0.216441
0.139016
0.183035
0.174924
0.283909
0.404921
0.338556
0.407218
0.405286
0.430326
0.414402
4.00221e-08
0.000983026
0.00082249
0.000245177
0.0546546
0.000988535
0.000599399
0.00100998
0.000160582
0.00100962
0.000664765
0.00100889
0.000730728
0.000955715
0.000582482
0.000952703
0.914287
0.905021
0.941147
0.931614
0.905552
0.878484
0.80347
0.719809
0.65535
0.665893
0.643085
0.644785
0.623672
0.6191
0.59634
0.603625
0.55155
0.591923
0.517948
0.460282
0.40818
0.363177
0.000983963
0.00111721
0.00111726
0.000663073
0.000391534
0.000731205
0.000574811
0.000592461
0.00111739
0.00111713
0.000791465
0.00100984
0.00071322
0.00100942
0.00128136
0.00017911
0.000295086
0.000487392
0.000977135
0.00096135
7.48786e-08
0.000978536
0.00099519
2.01038e-05
0.131525
0.00119773
0.350358
0.504752
0.524847
0.611637
0.834175
0.7287
0.847726
0.849501
0.862379
0.892006
0.924325
0.942172
0.327004
0.322609
0.277938
0.306421
0.239066
0.206191
0.19319
0.200161
0.188896
0.200417
0.151983
0.14614
0.0884649
0.103088
0.166333
0.128531
0.0990127
0.154407
0.145899
0.162957
0.0732891
0.0623948
0.0876783
0.0967411
0.0997064
0.0549346
0.0602342
0.0520084
0.0598364
0.0445583
0.0409304
0.341798
0.315307
0.314446
0.318853
0.336048
0.44611
0.403195
0.380315
0.266906
0.31185
0.298049
0.299498
0.203148
0.128434
0.312913
0.420347
0.322676
0.322268
0.30368
0.3857
0.359245
0.43517
0.463743
0.395273
0.368684
0.410477
0.286428
0.255006
0.255411
0.260761
0.174142
0.223279
0.148186
0.102465
0.0854923
0.204618
0.200732
0.251549
0.252293
0.248818
0.252829
0.249137
0.257538
0.252534
0.262072
0.255505
0.272834
0.266945
0.271349
0.274369
0.302337
0.285833
0.312244
0.314965
0.262988
0.248007
0.313707
0.292895
0.282562
0.297664
0.282284
0.270213
0.319776
0.296026
0.400718
0.409291
0.361325
0.404696
0.4202
0.381954
0.470822
0.446276
0.507619
0.529227
0.556179
0.470235
0.482009
0.47471
0.445002
0.409825
0.380862
0.470211
0.317732
0.305949
0.355928
0.380064
0.0553123
0.0935789
0.195635
0.301529
0.335993
0.37529
0.276216
0.246468
0.199783
0.16316
0.000965631
0.000310861
1.12041e-05
1.84795e-07
0.000979209
0.0516708
0.000993891
0.000234006
0.00100979
0.000545241
0.00024476
0.000470015
0.000926911
0.000208943
0.000809949
0.000986846
0.000766556
0.000551352
0.000138864
0.000388285
0.00097475
0.00101
0.000133943
0.00100053
0.000979733
0.000380342
0.00118773
0.000965584
0.000992344
0.0011877
0.00118771
0.00118773
0.000889234
0.000999494
0.0009727
0.000201819
9.59135e-05
0.000989075
0.000892979
0.0009482
0.00100959
0.000881287
0.0010078
0.00100281
2.68833e-05
0.000944269
0.908689
0.917015
0.939651
0.930593
0.905743
0.83303
0.656307
0.740326
0.626165
0.627203
0.601755
0.60662
0.596405
0.58853
0.588603
0.584
0.52963
0.503292
0.405301
0.445092
0.303783
0.341537
0.000851104
0.000624444
0.000948563
0.000967574
0.000969466
0.000982262
0.000986514
0.000879074
0.000998153
0.000676458
0.000677989
0.000965569
0.000971308
0.000759356
0.000380116
0.000991326
0.000690401
0.00100737
0.000803925
0.000839513
0.000369052
0.000975289
0.000889611
0.000439439
0.000917861
0.000743592
0.00104559
0.000537833
9.78638e-06
6.82991e-05
0.00753301
0.000997382
0.0312626
0.0231092
0.322451
0.15776
0.532931
0.488956
0.554331
0.663373
0.767966
0.849633
0.861148
0.8497
0.892921
0.920565
0.907458
0.905421
0.00101
0.000734461
0.000886173
0.000267396
0.000906926
0.000922867
0.00081396
0.000931813
0.000890554
0.000725685
0.000975785
0.00092383
0.000794854
5.64147e-07
0.000794959
0.00101
0.000170373
0.303903
0.302434
0.30485
0.269031
0.186794
0.221843
0.148643
0.1433
0.104524
0.100108
0.0567961
0.0561754
0.0859863
0.0836663
0.0428294
0.0758223
0.0730376
0.116389
0.10937
0.10099
0.0206302
0.000737598
0.00109731
0.0326785
0.0450093
0.0447613
0.0243395
0.0265866
1.28941e-05
0.00086231
0.00092102
0.000473501
0.540093
0.510054
0.552663
0.557905
0.507062
0.464063
0.635464
0.654555
0.71827
0.72743
0.271344
0.319334
0.366681
0.451658
0.272346
0.233362
0.258087
0.257945
0.0917481
0.133589
0.202671
0.0828157
0.294571
0.301433
0.295872
0.299747
0.315127
0.30233
0.316163
0.321541
0.207825
0.202434
0.0996747
0.184282
0.178551
0.137693
0.0905099
0.10359
0.0467645
0.0670119
0.0505224
0.133399
0.19646
0.12968
0.197526
0.253079
0.25143
0.249812
0.251083
0.254464
0.273661
0.266041
0.281097
0.278059
0.302575
0.29799
0.321789
0.317547
0.323514
0.315253
0.32757
0.318397
0.360974
0.332002
0.300529
0.298187
0.369345
0.331884
0.338835
0.377769
0.423713
0.42381
0.422341
0.421979
0.450856
0.501168
0.566878
0.58467
0.594567
0.571856
0.713249
0.651235
0.784114
0.825073
0.814922
0.855134
0.910331
0.772212
0.860969
0.885355
0.955204
1.00596
1.0301
1.05185
1.08173
1.02338
1.08082
1.03775
1.11773
1.12129
1.16892
1.13738
1.19665
1.22796
1.21664
1.16624
1.23116
1.25183
1.22232
1.2152
1.28298
1.26194
1.29153
1.23181
1.23133
1.29525
1.25705
1.2169
1.21666
1.25009
1.28302
0.274896
0.236779
0.410608
0.403905
0.378999
0.367767
0.367693
0.138519
0.257991
0.000873566
0.00290994
0.0937962
0.082544
0.00092528
0.0408345
0.033928
0.212832
0.115307
0.110468
0.0158735
0.0133506
0.0262884
0.0454277
0.000348662
0.00103425
1.36718e-06
5.8384e-05
3.77117e-05
1.89669e-05
0.00101
0.000966006
0.000995857
0.000663615
1.99879e-05
0.00139195
0.000842141
0.000928041
0.000844807
0.000746373
0.000247823
0.00069126
0.000943677
0.000831092
0.00119843
0.000663055
0.00012748
0.000146108
0.000949
0.000255762
1.12819e-05
1.61879e-05
0.000990101
0.000818938
0.00100231
0.000950992
0.000911134
0.000410555
0.000795989
0.000933577
0.00119196
0.000951786
0.000964591
0.000991176
0.00095407
0.000978398
0.00114201
0.000804009
0.000961381
0.00091499
0.00105674
0.000958049
0.00102449
0.000927329
0.0011076
0.00110735
0.00042144
0.000725528
0.00101768
0.000807217
0.000911503
0.000377029
0.000991017
0.000960908
0.00100983
0.00100977
0.000136678
0.000904239
0.000950381
0.000921886
0.000915695
0.000919934
0.00081131
0.00123183
0.000794871
0.000968314
0.894451
0.885017
0.85847
0.85593
0.773552
0.844572
0.670164
0.609028
0.5968
0.598935
0.596271
0.593958
0.532981
0.53622
0.382068
0.342751
0.299157
0.476718
0.473065
0.425402
0.423726
0.422489
0.000647301
0.00046182
0.00111124
0.0011071
0.000962471
0.000414864
0.000696353
0.000410365
0.00102596
0.000980171
0.000161511
0.00100893
0.000972717
0.000941946
0.000297472
0.000985833
0.000726155
0.00091818
0.00021426
0.00071546
0.000572249
0.000951565
0.00120797
0.00120824
3.841e-05
7.50682e-06
0.000823451
0.0230738
0.161277
0.03045
0.317162
0.497185
0.517868
0.555287
0.628556
0.748364
0.813103
0.78926
0.832111
0.770161
0.820242
0.857654
0.813025
0.810853
0.00123838
0.000890857
0.00101
0.000849207
0.00099473
0.0012018
0.000756742
0.000798201
0.00120179
0.000998047
0.000965687
0.000979754
0.000356414
1.14836e-05
0.000855232
0.000538305
6.26443e-05
0.000656439
0.00098774
0.000236686
0.000248866
0.000674501
0.00096459
0.000795867
0.00208475
0.00100998
0.277196
0.275712
0.195729
0.211622
0.0922711
0.112768
0.0500802
0.0508976
0.0495667
0.051354
0.0253267
0.0258784
0.000769673
0.000964509
0.000515134
0.0145277
0.0888713
0.0569046
0.0898626
0.0970034
0.00050366
0.000395782
0.000375295
0.0008342
0.000471178
0.000881141
0.00071935
0.000602104
0.000980152
0.000764758
0.00124735
0.000746779
0.763137
0.763386
0.595348
0.509219
0.490369
0.48223
0.757563
0.674306
0.91891
0.996761
0.89348
0.814153
1.0064
0.987834
1.05762
1.10138
1.13335
1.13687
1.16246
1.13535
1.19204
1.21724
1.21332
1.2127
1.23009
1.2157
1.21668
1.26099
1.2083
1.20118
0.326954
0.25079
0.401373
0.469971
0.255111
0.199902
0.254489
0.254917
0.0844664
0.141267
0.000722094
0.131083
0.0276292
0.297509
0.241088
0.296627
0.289444
0.295637
0.196297
0.0989909
0.0174112
0.00353809
0.0181687
0.0516774
1.2025e-24
3.97198e-10
4.83694e-06
0.00100028
0.0625623
0.0555508
7.99386e-06
0.0762367
0.146188
0.0882199
0.199359
0.142817
0.189754
0.241566
0.277069
0.253184
0.290283
0.288394
0.302412
0.290832
0.32708
0.333465
0.329328
0.348612
0.353191
0.351102
0.38467
0.393637
0.387413
0.381705
0.384288
0.3777
0.395791
0.40907
0.462099
0.452784
0.420652
0.451178
0.451576
0.485405
0.510613
0.571451
0.603055
0.605074
0.617613
0.68311
0.77304
0.843095
0.857692
0.98004
0.857327
0.907222
1.05696
1.07927
1.08319
1.11864
1.1687
1.21754
1.22805
1.2298
1.25653
1.28436
1.31104
1.30622
1.31764
1.31301
1.30792
1.28782
1.23087
1.29454
1.26403
1.21821
1.21602
1.24752
1.27866
1.28854
1.21855
1.27876
1.23774
0.0672916
0.0545217
0.121764
0.20341
0.0895212
0.153423
0.300562
0.240909
0.253443
0.0864973
0.00194444
5.92866e-06
0.000810136
0.0649831
0.0574361
9.65836e-06
2.36156e-37
0.0108466
0.000925879
0.0154079
0.0126261
0.0224486
0.0135482
0.0281623
0.0466967
0.000871197
0.000837817
0.000904459
0.000722298
0.00126261
0.00126248
0.00086849
0.000172666
0.000739258
0.00139157
0.000981197
0.00085932
0.000478021
0.000315336
0.00056079
0.00101
0.000713062
0.00119793
0.000934557
0.000984534
0.000835657
0.000660221
0.000998234
0.000701989
0.00100779
0.000868975
0.00105282
0.000952074
0.000929336
0.000744326
0.00111181
8.55127e-05
0.00099613
0.000976554
0.000242579
0.000668421
0.000544652
0.000936558
0.000816347
0.000955143
0.000877969
0.000993967
0.000978339
0.000943996
0.000974885
0.00092222
0.000245982
0.00135707
0.000934618
0.0010444
0.000829051
0.00100962
0.000641972
0.000367709
0.000916152
0.000960434
0.000957989
0.000892128
0.000693693
0.000479733
0.805006
0.804723
0.788184
0.792771
0.724765
0.785913
0.599334
0.660203
0.556254
0.556455
0.499019
0.479949
0.427437
0.424896
0.336705
0.238308
0.214015
0.380907
0.424861
0.427603
0.427615
0.425402
0.0011201
0.000948652
0.00112059
0.000316585
0.000973634
0.000955807
0.000963408
0.000978793
0.000987834
0.00082453
0.000135327
0.000443538
0.00093376
0.000994811
0.00060297
0.00100999
0.00098232
3.53596e-05
0.000985985
0.000873381
0.000276721
0.000664477
0.000655599
0.00101
0.000321117
3.36636e-05
0.000935662
0.0251411
0.227262
0.0517446
0.360762
0.498093
0.467311
0.582255
0.7463
0.645913
0.724937
0.723205
0.718363
0.741579
0.801047
0.796006
0.800091
0.774251
0.000769413
0.000922585
0.000573493
0.000958878
0.000712787
0.000933944
0.000627141
0.000309821
0.000814162
0.000879841
0.000957505
0.000937623
0.00106312
0.000371223
0.000845001
0.000873917
0.00096514
0.000987798
0.000875718
0.00131675
0.000685785
0.00130256
0.00146303
0.000901385
0.00101
0.000860782
0.000668131
0.000489708
0.000136748
0.000354861
0.00098545
0.147861
0.149455
0.12061
0.0975267
0.0496795
0.0741724
0.0380795
0.038377
0.197743
0.136719
0.118598
5.52643e-05
0.000977409
0.000408908
0.00098981
0.00140406
0.00139621
0.000669195
0.00705184
0.0682062
0.0206885
0.0582925
0.0384127
0.000830286
0.000589721
0.000349619
0.000339954
0.000593766
0.00101478
1.30661e-05
0.00052455
0.000737284
0.000689738
0.000594218
0.000809643
1.33986
1.34473
1.37507
1.35534
1.39218
1.38241
1.40401
1.39549
1.45514
1.44136
1.40121
1.45487
1.42342
1.47929
1.30407
1.25754
1.27573
1.32352
1.30807
1.2789
1.27903
1.32984
1.33891
1.31202
1.29466
1.34611
1.33218
1.3335
1.36181
1.21787
1.21769
1.21479
1.21429
1.23875
1.25751
0.806951
0.75365
0.650172
0.553568
0.469923
0.536796
0.741888
0.725157
0.965017
0.989843
0.875161
0.958681
0.996411
1.04244
1.09372
1.13198
1.13487
1.13233
1.13249
1.16111
1.17386
1.2014
1.18789
1.19089
1.19124
1.20447
1.18013
1.18521
0.379791
0.303753
0.249287
0.237268
0.291866
0.46968
0.450991
0.179201
0.232809
0.104079
0.0387881
1.32087
1.33962
1.35723
1.36471
1.36863
1.37914
1.38545
1.41237
1.39753
1.41872
1.41737
1.46487
1.48727
1.51031
1.51068
1.51501
1.52938
1.55263
0.0160198
0.000931757
0.00145916
0.219175
0.116203
0.289093
0.182959
0.100294
0.00402812
0.00432785
0.00356725
0.00328944
0.000150505
0.000191741
0.000464872
0.000634227
1.56935e-49
6.10001e-120
0.069219
0.000811756
0.000572668
0.0888116
0.0941837
0.0957153
0.140669
0.108661
0.22882
0.178628
0.264236
0.230874
0.264934
0.289113
0.3151
0.337267
0.35674
0.356982
0.364892
0.361017
0.41716
0.405698
0.400452
0.397446
0.451618
0.425212
0.495247
0.460018
0.440987
0.479308
0.524882
0.512892
0.53743
0.573859
0.575682
0.517593
0.626568
0.659418
0.63067
0.615284
0.703036
0.782372
0.858875
0.919315
0.869662
0.889749
1.01762
1.07275
1.11963
1.09936
1.16635
1.19532
1.23641
1.2529
1.24497
1.26438
1.31888
1.30159
1.32159
1.32344
1.30862
1.29303
1.32317
1.31635
1.30509
1.30764
1.3081
0.052371
0.0392392
0.0633257
0.000842882
0.00459286
0.0233903
0.000935572
0.106227
0.00507122
0.000857093
0.000979425
0.000992538
0.000460841
0.000519878
0.00145842
8.9205e-06
0.000427145
1.06928e-05
4.4153e-05
0.0115726
0.000980524
5.68308e-06
0.00094672
0.000232603
0.000745921
0.000149534
0.000798093
0.000981572
0.00117001
0.00117094
0.00126229
0.000806407
0.00108137
0.000985437
0.000776109
0.00096702
0.000896738
0.000998449
0.00026155
0.000888291
0.00100984
0.000894905
0.0011717
0.000504514
0.000398457
0.000668916
0.00100238
0.000270015
0.000740386
8.5917e-09
4.58071e-06
0.00240796
0.000350275
0.00100904
0.000694792
0.000545923
0.000997667
0.000411381
0.00100993
0.000972649
0.000977525
0.000963111
0.000999516
0.000694893
0.00107586
0.000907398
0.000769478
0.000955265
0.000812331
0.000995379
0.00089779
0.000955844
0.000631827
0.000258775
0.000786986
0.000964465
0.000941166
0.000838222
0.00101
0.000334973
0.000769708
0.000685233
0.000978177
0.000925692
0.000935309
0.00092186
0.00091709
0.000695524
0.000567275
0.00177646
0.000245123
0.000674617
0.000835469
0.000981114
0.0017741
1.50017
1.47556
1.45455
1.54734
1.58169
1.57578
0.787875
0.78484
0.775118
0.7726
0.698838
0.760606
0.590951
0.515335
0.439917
0.458251
0.423139
0.426721
0.427671
0.426688
0.301476
0.225264
0.308503
0.39362
0.391197
0.00093523
0.000813452
0.000875173
0.000890082
0.000958745
0.000961426
0.000979301
0.000493094
0.000931051
0.000554111
0.00100943
0.000985847
0.000932915
0.000779838
0.0243148
0.0455996
0.00100998
0.000498781
0.000128694
0.000927014
4.59314e-06
0.000272916
0.000921556
0.000785239
0.00052174
0.000783296
0.000983377
0.199479
0.331641
0.443305
0.450507
0.766656
0.687078
0.702555
0.488362
0.573332
0.663817
0.713347
0.712381
0.715858
0.734568
0.760574
0.755664
0.000744263
0.00111992
0.000623403
0.000982796
0.000785438
0.000782034
0.00100904
0.000845157
0.000737242
0.000835941
0.000817811
0.000932446
0.000763197
0.000978397
0.00100996
0.000956597
0.000950246
0.00102225
0.000990257
0.00094381
0.000918064
0.000824304
0.000770427
0.00097473
0.00102362
0.000994849
0.000370263
0.000965446
0.00114061
0.000987196
0.00101
0.000984843
0.000871643
0.00101404
0.000838215
0.00103932
0.00103909
0.151039
0.188399
0.173371
0.116683
0.117644
0.0859351
0.103682
0.000687146
0.0051037
0.000278868
0.000922999
0.119027
0.106994
0.000406768
0.000917128
0.000612942
0.000972493
0.000491002
0.000432878
0.000794425
0.000139209
0.0159452
0.000860386
0.0168154
0.0257809
5.79952e-05
0.000680105
0.000702988
0.000420221
0.000653842
0.000551523
0.000693939
9.93495e-05
0.000358069
0.000994303
8.71897e-06
0.000979051
1.33741
1.35196
1.37403
1.4004
1.41338
1.40527
1.44676
1.41356
1.26831
1.27021
1.25373
1.27579
1.30496
1.26981
1.31717
1.28861
1.20585
1.19154
1.18966
1.22074
1.24903
1.22406
0.813449
0.734217
0.630663
0.718203
0.563701
0.481287
0.729658
0.733799
0.972703
0.976665
0.991055
0.886143
0.9655
1.07635
1.02454
0.967834
1.0131
1.10976
1.1262
1.11198
1.12219
1.12875
1.15194
1.18099
1.16842
1.18088
1.17425
1.18167
1.1754
1.17815
1.17997
0.22439
0.222369
0.365124
0.445468
0.219341
0.305874
0.460975
0.481696
0.211494
0.161073
0.0632387
0.141018
1.34829
1.31929
1.3265
1.37479
1.37293
1.37663
1.38676
1.41107
1.42919
1.44179
1.44357
1.4487
1.4713
1.51198
1.49215
1.50631
1.52975
1.57164
1.5496
1.38102
1.39636
1.40991
1.57663
1.57814
1.57537
0.00145251
0.00146144
0.00147278
0.00100404
0.0309605
0.0454618
0.000237605
0.000942032
0.000982432
0.000659527
0.000757232
0.000881632
0.000665438
0.00126451
0.000611919
0.00126447
0.000969713
4.88393e-06
1.96215e-05
2.63909e-09
0.00176839
0.020274
0.094023
0.0121775
0.1674
0.193813
0.126632
0.165848
0.230096
0.199384
0.320309
0.264108
0.33695
0.347662
0.357291
0.349885
0.396063
0.433741
0.472603
0.473716
0.477026
0.463741
0.491807
0.474316
0.520252
0.524499
0.549903
0.545209
0.522631
0.524813
0.646689
0.693916
0.586918
0.655367
0.703522
0.664239
0.765237
0.811777
0.910063
0.951198
0.922349
1.01987
1.06986
1.17301
1.15728
1.21703
1.19236
1.28615
1.29091
1.28269
1.3134
1.34184
1.34091
1.39555
1.36193
1.38756
1.33717
1.3743
1.39147
1.29023
1.3456
1.31875
0.000335814
0.000386627
0.000813812
0.000606129
0.000952488
0.00100845
0.00057408
0.000439948
0.00101
0.000199154
0.000363028
0.000512431
0.000144751
0.000632165
0.000515047
0.000350468
0.000901921
6.27485e-05
0.000302915
2.88516e-05
0.000126718
5.06774e-05
5.50518e-07
0.000281762
0.000978557
0.000764227
0.000999883
8.0398e-05
0.00117495
0.00117036
0.000973042
0.000995782
0.000992745
3.82214e-05
0.00101
0.000912008
0.0010004
0.000112849
0.00044385
0.000919656
0.000213928
0.000297927
0.00184302
4.4444e-05
0.000984734
7.32211e-05
0.0009581
0.000364482
0.000966634
2.5498e-05
0.00098552
0.00219881
0.000984605
0.000134455
0.000997831
0.00125489
0.00114961
0.000454598
0.00100983
0.000979813
0.000465046
0.000983408
0.000969573
0.000835887
0.00107577
0.00107593
0.000935521
0.00098364
0.00107597
0.00107591
0.000955402
0.000707184
0.000711032
0.000919589
0.00132718
0.000110831
0.0013269
0.000914692
0.00098702
0.000966821
0.000994872
0.00101772
0.00104534
0.00104478
0.000850221
0.000805878
0.000827454
1.23268e-05
9.12481e-06
0
0.000977685
0.000799517
0.000430028
0.000887062
0.00114952
0.000923733
0.00100958
0.00100998
0.000992596
0.000998553
0.000946811
0.000914726
0.00101
1.44498
1.47852
1.47984
1.47973
1.5106
1.61728
1.59445
1.596
1.6205
1.56559
0.695296
0.686424
0.620851
0.620999
0.579981
0.609583
0.520032
0.472646
0.460448
0.423325
0.401408
0.400348
0.312661
0.324742
0.192984
0.236556
0.227447
0.000529692
0.000965684
0.000913493
0.00101
0.000950555
0.000917688
0.000673927
0.0234936
0.169584
0.0239353
0.000919443
0.000220381
0.000977926
0.000961382
0.000138406
0.000368616
0.00101
0.000971396
0.000936326
0.00102246
0.000849804
0.000991573
0.000944045
0.000847483
0.00025022
0.563726
0.562083
0.609857
0.30595
0.441162
0.452171
0.472559
0.604919
0.677888
0.632979
0.547525
0.626099
0.651509
0.657411
0.575464
0.605273
0.000957717
0.000988741
0.00112
0.00104612
0.00053834
0.000877776
0.00103703
0.00120704
0.000973827
0.000989197
0.000160682
0.00195408
0.000975524
0.000936631
0.000510229
0.002951
0.00295503
0.00295461
0.000423633
0.000959523
0.000891686
0.00102335
0.00085772
0.000991758
0.000977489
0.00103454
0
0
0
0.000959356
0.000920205
0.000959732
0.00100136
0.000947605
0.000434535
0.000776398
0.000948442
0.000990064
0.00098892
0.000341416
0.000950085
0.000925142
0.000981376
0.000686934
0.000954458
0.168206
0.171661
0.188705
0.0575507
0.0834319
0.0392999
0.035446
0.000764382
0.000949395
0.000882422
0.000479969
0.00110122
0.00210121
0.00044652
4.96758e-05
0.000406739
0.000505287
0.000242686
0.000584634
0.000389242
0.000815447
0.000270985
0.000575667
0.00957199
0.000977291
0.0398662
0.000990695
0.000105983
0.000997696
0.000653565
0.0012012
0.000312228
0.000747328
0.000724426
0.000346646
0.00101
0.000942721
0.000675224
0.00131084
1.3419
1.29888
1.36816
1.33321
1.34376
1.38208
1.38911
1.42454
1.43779
1.46063
1.45122
1.39022
1.45548
1.41356
1.23624
1.23937
1.22753
1.2403
1.25501
1.26782
1.26846
1.26745
1.17739
1.17771
1.20276
1.1876
1.21945
1.22132
0.815344
0.733389
0.658804
0.731168
0.528393
0.62188
0.730956
0.740171
0.964335
0.966264
0.966206
0.890515
1.05267
1.10488
1.01527
0.964438
1.11115
1.10521
1.12458
1.10522
1.14049
1.16843
1.17618
1.17495
1.17931
1.17156
1.17587
1.18301
1.18185
1.16868
0.219337
0.215504
0.379451
0.461362
0.361383
0.272656
0.516041
0.459685
0.186251
0.212854
0.187129
0.101619
1.37716
1.38521
1.35874
1.4025
1.41755
1.40264
1.43584
1.45308
1.43129
1.44173
1.43633
1.44447
1.44843
1.47271
1.49482
1.51295
1.51137
1.56091
1.53961
1.58756
1.59464
1.46626
1.48086
1.5892
1.59954
0.000415286
0.00011851
0.000696944
0.000570614
0.000525579
9.81664e-05
0.000260243
0.000218119
0.00101
1.00585e-05
0.000927799
0.000258474
0.000612552
0.000657476
5.07035e-06
0.000780461
0.00176815
0.000558023
0.000872027
0.000687083
0.000555373
3.67416e-06
0.0912833
0.000488861
0.187073
0.190157
0.15143
0.101935
0.22166
0.263551
0.320579
0.3127
0.331795
0.324442
0.444205
0.382755
0.50036
0.480428
0.506976
0.515554
0.485851
0.541378
0.586525
0.56078
0.543995
0.573065
0.622279
0.608152
0.58583
0.63176
0.720601
0.71649
0.714292
0.730521
0.861999
0.777809
0.947771
0.970542
0.973848
1.0384
1.11839
1.19204
1.20123
1.21356
1.25883
1.3057
1.34573
1.34203
1.3793
1.35608
1.40884
1.42318
1.42618
1.42242
1.42531
1.43246
1.36231
1.4194
1.40629
0.000848483
9.48454e-05
0.00620906
0.00102571
0.000692368
7.79617e-05
0.000686777
0.000538285
0.00079675
0.000570153
0.00104303
0.0012708
0.00043563
0.00127149
0.00127032
0.001271
0.00127272
0.000995622
0.00127271
0.00597932
0.00100716
0.000638589
0.000184916
0.00211257
0.000387964
0.00211254
0.00211254
0.000439483
0.000342411
0.00100217
0.000993637
0.000687571
0.000873751
0.000698129
0.00103864
0.00104721
0.000779255
0.000959982
0.00100986
0.000887496
0.000962023
0.000982858
0.0017095
0.000982776
0.000146754
1.36216e-05
0.000607696
0.00096357
0.000988249
0.000479144
0.000826696
0.000946928
0.00100941
0.00031059
5.60274e-05
0.000987756
0.00100992
0.000817418
0.000560979
0.000854681
0.00101
0.000799183
0.000973247
0.000279366
0.000904827
0.00095865
0.000973181
0.00100223
0.000954241
0.000908728
0.000886752
0.00100949
0.00097168
0.000773375
0.000984106
0.000952799
0.000823386
0.00098992
0.000934564
0.000964099
0.000974876
0.000974485
0.00118414
0.000980137
0.000905098
0.000578572
0
0
0
0
0
0
0
0
0
0
0
0
0
0
0
0
0
0
0
0.00099334
0.000901473
0.000937661
0.000812305
0.00100112
0.000436148
0.000946714
0.00110056
0.000325168
0.000811332
0.000317982
0.000878445
1.64571
1.62979
1.65203
1.63944
1.65336
1.6517
1.49538
1.49824
1.56172
1.5274
1.61945
1.64518
1.61203
1.50248
1.43665
0.558893
0.558552
0.562549
0.543729
0.562925
0.488076
0.535841
0.324584
0.377664
0.240146
0.245299
0.186865
0.192681
0.193183
4.53839e-05
0.000897198
0.000509292
0.00125062
0.00141573
0.190862
0.022512
0.000962393
0.00097611
0.000747046
0.000686377
0.00104862
0.000994417
0.000989095
0.00097202
0.000717645
0.000335301
0.000991941
0.00101533
0.000210343
0.00101517
0.000932938
0.0004632
0.000658393
0.566345
0.559248
0.561306
0.559662
0.56899
0.280402
0.376915
0.339313
0.445991
0.518147
0.535409
0.467741
0.551166
0.499548
0.505353
0.486027
0.000954778
0.0011434
0.000676321
0.000970576
0.000973219
0.000935143
0.000902236
0.0010167
0.000124713
0.000831722
0.00101517
0.000596233
6.92933e-05
0.000527482
0.0006204
0.000616055
0.000763669
0.000919235
0.000935718
0.00101585
0.000697675
0.000919567
0.000740767
0.000726241
0.000621516
0.00100951
0.000739043
0.000940933
0.000354107
2.15212e-05
0
0
0
0
0
0.000978181
0.000985119
0.000968882
0.00117005
0.00101
0.000551563
0.000835369
0.000707191
0.000982293
0.00100983
0.000977372
0.000845929
0.000998527
0.000985703
0.000787048
0.000895131
0
0
0
0
0
0
0.16557
0.101658
0.0864763
0.013829
0.00556636
0.000864277
0.000863913
0.000987033
0.000791447
0.000311719
0.00100956
0.000843167
0.000375808
0.000550644
0.00033854
0.000760208
0.000752664
0.000795758
0.000905726
0.000971356
0.000990599
8.41e-05
0.0340973
0.000665956
0.000486704
0.000723412
0.000634249
0.000404769
0.000958393
0.00027789
0.000661857
1.31742e-05
0.000467482
0.00183487
0.00184272
0.000704004
0.000959699
0.000281529
0.000798649
0.00100972
0.000818552
1.32344
1.28555
1.32648
1.3266
1.31198
1.35985
1.33174
1.35408
1.37596
1.39376
1.46644
1.42625
1.37799
1.22813
1.22427
1.25483
1.23691
1.26789
1.26346
1.29216
1.27241
1.17581
1.18653
1.20815
1.18963
1.20705
1.21583
0.854977
0.771931
0.697557
0.736971
0.687112
0.585406
0.774141
0.734778
0.966935
0.968347
0.926153
0.973759
1.06046
1.11263
0.971654
1.01895
1.11035
1.11112
1.13305
1.11363
1.15307
1.17516
1.16236
1.17033
1.17301
1.16639
1.1779
1.17426
1.17035
1.17411
0.215352
0.271047
0.461121
0.437306
0.353608
0.444181
0.460145
0.537424
0.207417
0.200978
0.194166
0.117183
6.19881e-05
0.000369859
0.074759
1.44069
1.41983
1.46123
1.43556
1.47422
1.48333
1.48077
1.4808
1.51777
1.50395
1.51355
1.47614
1.50909
1.51984
1.54023
1.56004
1.57019
1.5681
1.62258
1.6206
1.64269
1.62065
1.54172
1.54469
1.66112
1.65471
0.00016622
0.000334169
0.00101
8.53214e-06
0.000729054
0.00122846
0.00122836
0.000949178
0.000305007
0.000147628
0.000170087
0.00189866
0.00126111
0.000452886
0.000822227
0.000857915
0.00100232
0.000626775
0.000357978
0.000824137
8.63116e-05
0.000996461
0.0280374
0.0474852
0.0287488
0.129879
0.207468
0.0840227
0.307516
0.241059
0.310613
0.315805
0.409863
0.346519
0.467825
0.502665
0.501787
0.503734
0.626209
0.591829
0.559687
0.613813
0.6369
0.629856
0.625928
0.616347
0.630411
0.632222
0.714049
0.756069
0.794427
0.752856
0.794741
0.821962
0.959047
0.893481
0.986228
0.971214
1.05469
1.12949
1.21373
1.21267
1.24797
1.28168
1.35699
1.35019
1.36944
1.37894
1.40643
1.41487
1.43737
1.42833
1.43632
1.43158
1.42767
1.43711
1.42465
1.42048
0.000976263
0.000877673
0.00101784
0.000683365
0.000956966
0.000657298
0.000566723
0.000893196
0.000642839
0.00126981
0.000338433
0.000777264
0.000295436
0.00127095
0.00127234
0.00127141
0.00127112
0.00127159
0.00126995
0.000319234
0.000371652
0.00100989
0.000695569
0.000938422
0.000788581
0.00100179
0.000967193
0.000997704
0.000180038
0.000954666
0.000624923
0.00101
0.000209386
0.000654936
0.00100863
0.00104708
0.000659056
0.000881619
0.000973039
0.00379449
7.37597e-05
0.000210438
0.00024578
0.00100996
0.000884179
6.53128e-09
0.000997847
0.00100983
0.00027086
0.000848872
0.00100647
0.000131712
0.00100976
0.000959372
0.000185175
0.000986414
0.000975827
0.000991197
0.00340424
0.000980885
0.000770334
0.00098777
0.000852511
0.000761692
0.00113988
0.00113977