/*--------------------------------*- C++ -*----------------------------------*\
  =========                 |
  \\      /  F ield         | OpenFOAM: The Open Source CFD Toolbox
   \\    /   O peration     | Website:  https://openfoam.org
    \\  /    A nd           | Version:  8
     \\/     M anipulation  |
\*---------------------------------------------------------------------------*/
FoamFile
{
    version     2.0;
    format      ascii;
    class       volScalarField;
    location    "12060";
    object      alpha;
}
// * * * * * * * * * * * * * * * * * * * * * * * * * * * * * * * * * * * * * //

dimensions      [0 0 -1 0 0 0 0];

internalField   nonuniform List<scalar> 
526318
(
0.000114452
0.000562317
0.000384976
0.000577376
0.000356665
0.000482395
0.000889127
0.000925774
0.000189396
0.000696581
0.000356986
0.000709726
0.000528373
0.000499105
0.00024466
0.000429226
0.000428392
0.00018849
0.000160797
0.000284499
0.000382435
0.000312969
0.00218909
0.000734875
0.000629596
0.000805396
0.000495715
0.000906433
0.00059629
0.000551761
0.000444195
0.000438052
0.000306077
0.000561267
0.000384286
0.000365454
0.000214116
0.000101563
0.000255415
0.000222849
0.000476922
0.00036296
0.00158735
0.00167841
0.00491957
0.00389209
0.00232678
0.000445553
0.000805558
0.00125763
0.000875782
0.000402324
0.000115986
0.00101059
0
0.00557561
0.00182791
0.0331244
7.73538e-05
0.000382228
0.000453722
0.000411846
0.000969802
0.000190403
0.000210587
0.000403048
0.000204288
0.000590392
0.000678568
0.000170942
0.000595373
0.000584664
0.00114306
0.00120006
0.000745856
0.000782262
0.00135758
0.00170663
0.00190643
0.00187212
0.000979576
0.00107255
0.00105099
0.00233052
0.00105473
0.000208926
0.000567419
0.000270845
0.000184259
0.000618673
0.000342226
0.000764826
0.000528992
0.00123816
0.000356371
0.000967602
0.000379011
0.000623682
0.000660319
0.000546496
0
0
0
0
0
0
0.00724287
0.0111809
0.00440781
0.00157064
0.000871622
0.00201239
0.00080767
0.000385489
0.000102104
0.000584236
0.000386051
2.68689e-05
0.000315826
0.000528887
0.000964701
0.000775981
0.000808913
0.0020279
0.00119386
0.00296735
0.000892644
0.002412
0.00179167
0.00388844
0.00461528
0.00319502
0.00338234
0.00342417
0.00424412
0.00812859
0.00534081
0.0057103
0.00344896
0.00941092
0.00369502
0.00217411
0.00359313
0.00665341
0.00844715
0.012178
0.0128671
0.0129117
0.0152617
0.0190471
0.0108159
0.00501427
0.00857942
0.00330525
0.010512
0.0395395
0.0102918
0.010085
0.0254246
0.273701
0.00575246
0.041323
0.00935853
0.000544172
0.000438647
0.000176127
0.000245936
0.000694749
0.000520139
0.000238662
0.00083151
0.0015555
0.00232312
0.00127606
0.00244196
0.00153343
0.000694783
0.00104864
0.000463938
0.0010754
0.00129714
0.00103233
0.00107894
0.00291108
0.00115687
0.00582864
0.00221737
0.00540932
0.00447207
0.00306143
0.00704419
0.00374337
0.00436203
0.00589224
0.00634185
0.000721113
0.00861911
0.0020679
0.0101092
0.00522993
0.00920435
0.0136819
0.00354968
0.00968675
0.00225867
0.00944918
0.0154733
0.0121468
0.00105779
0.0123432
0.000771424
0.000327002
0.000583071
0.000507301
8.37833e-05
0.000550368
0.000374351
0.000252697
0.000939933
0.00278167
0.00441716
0.00524368
0.00175733
0.000656674
0.00129603
0.00190213
0.00142997
0.00158783
0.00257342
0
0
0
0.00666398
0
0
0
0
0
0
0.00038103
0.000262036
0.000385692
0.000231198
0.00049848
0.000520499
0.000816035
0.000587289
0.00120682
0.00136148
0.000747449
0.000799713
0.000510109
0.000717493
0.000125381
6.14226e-05
0.000565422
0.000590979
0.000246595
0.000374765
0.000225546
0.000853764
0
0
0
0
0
0
0
0
0.00193941
0.0146631
0.00264416
0.00218343
0.000623487
0.00103731
0.000486983
0.000511351
0.000419253
0.000514267
0.000336111
0.000209055
0.00114723
0.000681905
0.00023372
0.00267234
0.00469678
0.00305178
0.00744035
0.00779906
0.00151879
0.00626359
0.00645151
0.00721431
0.610345
0.0212607
0.0185681
0.0196973
0.0120164
0.0116702
0.0301118
0.00836222
0.0578405
0.461425
0.00644438
0.0112876
0.019495
0.0112896
0.00475384
0.0159137
0.0390528
0
0.114591
0
0
0
0
0.0104586
0.0117784
0.000309076
0.00279131
0.000979211
0.000780165
0.000742514
0.000676719
0.00165709
0.00167416
0.00116867
0.000969158
0.00221485
0.00169344
0.00348939
0.004535
0.00298152
0.00215232
0.0021534
0.00307129
0.00274434
0.000643598
0.00392198
0.00220402
0.006383
0.00109667
0.00497408
0.00653614
0.00326956
0.00523237
0.00197821
0.00231945
0.00434166
0.00327172
0.00286154
0.0046171
0.00247892
0.00572454
0.00396386
0.00739126
0.00262279
0.00438769
0.00669258
0.0120432
0.00199251
0.0025271
0.00939416
0.0123021
0.00971294
0.000787654
0.00284414
0.00645054
0.000369065
0.00288983
0.00583547
0.00254772
0.000220574
0.00285239
0.0046302
0.00422841
0.00261855
0.000393001
0.0002455
0.000711845
0.00104229
0.000927633
0.000321017
0.00121088
0.00134308
0.00150495
0.00123659
0.00119073
0.00918587
0.0113537
0.0130887
0.0396183
0.00816593
0.00051683
0.00584708
0.00307992
0.0035466
0.000873991
0.00186995
0
0
0
0
0
0
0
0
0
0
0
0
0
0
0
0
0.000341634
0.000299259
7.77685e-05
0.000241907
0.000420796
0.00050995
0.000619136
0.000747423
0.000804227
0.000198604
0.000193816
0.000411041
0.000467714
0.000110902
0.000434036
7.30583e-05
0.000291342
0.000230115
0.000319286
0.000408704
0.000682987
0.00133942
0
0.0029335
0.000877302
0
0
0
0
0.00107043
0.00300682
0.00282802
0
0
0
0
0
0
0
0
0
0
0
0
0
0
0.175217
0
0.00691199
0.00204889
0.00147543
0.00105108
0.000450366
0.000703991
0.000564404
0.00041635
0.000568265
0.000138084
0.000361504
0.000266805
0.000682683
0.00215163
0.00201504
0.00265958
0.00193068
0.00946226
0.00720185
0.00486049
0.0104765
0.00247366
0.0302963
0.0329665
0
0
0.023913
0.0391916
0
0.0405726
0.0293445
0.0115973
0
0
0
0
0
0
0
0
0
0
0
0.000164473
0.00440133
0.00299595
0.00402336
0.00207678
0.00105284
0.00209724
0.00218177
0.00306934
0.00421477
0.00379884
0.00343901
0.00939055
0.0562635
0.00228471
0.00208479
0.00169932
0.00357139
0.0040916
0.00268626
0.00313131
0.00321608
0.00210831
0.00346171
0.00420355
0.00470609
0.00341665
0.00555885
0.00780021
0.00486042
0.0111722
0.00587069
0.0477936
0
0
0.00593578
0.00107502
0.00621875
0.0100943
0.00452892
0.00525394
0.00358973
0.00188272
0.00538808
0.00409968
0.00452746
0.00231536
0.00375783
0.00424503
0.00523318
0.0056354
0.00251844
0.00172158
0.00325221
0.00805066
0.00741209
0.00487824
0.0024513
0.00420963
0.00382932
0.00308397
0.00621276
0.00318238
0.00178051
0.00168655
0.00095776
0.00304438
0.00165965
0.000938864
0.00128826
0.00139972
0.0011504
0.00109028
0.000590147
0.000483144
0.00136406
0.00298126
0.000926981
0.00176446
0.00171735
0.000648379
0.00107666
0.0019986
0.00708527
0.00163635
0.00326869
0
0
0.0469825
0.0143236
0.0154337
0.00551964
0.0123023
0.0240219
0.0109586
0.105216
0
0
0
0
0
0
0
0
0
0
0
0
0
0
0
0
0
0
0
0
0
0
0
0
0
0
0.0079678
0
0.00136772
0
0.00332028
0.00862363
0
0
0
0
0
0
0
0
0
0
0
0
0
0
0.000142344
0.000190259
0.000117518
0.000320444
0.000269846
0.000381062
0.000747927
0.000142822
0.000107886
0.000655381
0.00041851
0.000185372
0.000103518
0.000194551
0.000187821
0.00020487
0.000413453
0.000157721
0.00073511
0.000721168
0.00129381
0.000451088
0
0
0
0
0
0
0
0
0.0241649
0
0
0
0
0
0
0
0
0
0
0
0
0
0
0
0
0
0
0
0
0
0
0
0
0
0.00488727
0.068534
0.000532948
0.0027781
0.00111541
0.000417483
0.000801619
0.000231997
0.000275638
0.000551618
0.000738002
0.000211387
0.000459805
0.00042398
0.00303472
0
0
0
0
0
0
0
0
0
0
0
0
0
0
0
0
0.0012616
0.00169845
0.00298775
0.00153143
0.0177038
0.00153714
0.00771229
0.0283897
0
0
0
0
0
0
0
0
0
0.137846
0
0
0
0
0
0
0
0
0
0
0
0
0
0
0.000901434
0.000191758
0.000952813
0.000978101
0.00039059
0.00134448
0.000976354
0.000843039
0.000578874
0.0011639
0.00393274
0.00409488
0.000162568
0.00131138
0.00345195
0.0120785
0.0080123
0.00379693
0
0.061341
0.0194483
0
0.000844065
0.00761844
0.00459571
0.0072851
0.00809675
0.00561212
0.00819365
0.00180526
0.0400574
0.031666
0
0.0388406
0.00657452
0.0678313
0
0
0
0
0
0.0560108
0.00861774
0.0319875
0.00455172
0.00268422
0.00315604
0.0043289
0.00781844
0.00633762
0.0045626
0.00405217
0.0026586
0.00479488
0.00123822
0.00351566
0.00156442
0.00258755
0.00126093
0.00314978
0.00278031
0.00331035
0.00249722
0.00245603
0.00316318
0.00552392
0.0029032
0.0027666
0.00279615
0.00261846
0.00102625
0.00228059
0.00108662
0.00272332
0.00142441
0.00175791
0.000927349
0.00119839
0.00107797
0.00130811
0.0008166
0.000984595
0.000528922
0.000622338
0.000783427
0.000751745
0.000758977
0.00104786
0.000647856
0.000625269
0.000523059
0.000496201
0.000450877
0.000486115
0.000461988
0.000499955
0.000405693
0.000459545
0.000363485
0.000414788
0.000376748
0.000440691
0.000293399
0.000444626
0.000292957
0.000553074
0.000332128
0.000493919
0.000428913
0.0005759
0.000415012
0.000477505
0.000466529
0.000534511
0.000574026
0.000466092
0.00053319
0.00057196
0.000630924
0.000558374
0.00051366
0.00567827
0.00209305
0.00327706
0.001992
0.00233405
0.00234939
0.0041358
0.108342
0.00345251
0
0
0
0
0
0
0
0.0457952
0
1.48029
0
0
0
0
0
0
0
0
0
0
0
0
0
0
0
0.00679507
0
0
0
0
0
0
0
0
0.00847577
0
0
0
0
0
0
0
0
0
0
0
0
0
0
0
0
0
0
0
0
0
0
0
0
0.00428338
0.0174709
0
0.00380054
0
0
0
0
0
0
0
0
0
0
0
0
0
0
0
0
0
0
0
0
0
0
0
0.00013613
0.000287291
0.000539297
0.000125487
0.00023983
0.000136481
0.000715056
0.000163074
0.000608958
0.000180334
0.000335483
1.79786e-05
0.000425027
0.000117858
0.000886007
0.00156847
0.00199672
0.000475931
0.000332107
0.000919982
0.00100371
0.000739785
0
0
0.04179
0.0251126
0
0
0
0
0.0144617
0
0
0
0
0
0
0
0
0
0
0
0
0
0.00964687
0.0080008
0
0
0
0
0.0224532
0
0.00177575
0.0015611
0.00158751
0.00139764
0.00123924
0.000813877
0.000371525
0.000921764
0.000634858
0.0010051
0.000864743
0.000400359
0.000466725
0.000651355
0.0887801
0
0
0
0
0.000119541
0
0
4.4646e-05
0
0
0
0
0
0
0
0
0
0
0
0
0
0
0
0.520486
3.27392
0.00341245
0.00306858
0.00695595
0.00761034
0
0.29007
0
0
0
0.00466013
0
0
0
0
0
0
0
0
0.0842602
0.189709
0
0
0
0
0
0
0
0
0
0
0.00131145
0
0.000696824
0.000934584
0.000562025
0.00111411
0.000612203
0.00103967
0.000580067
0.000759896
0.000756518
0.000526955
0.000759683
0.000842386
0.000509735
0.00057638
0.000535769
0.000378818
0.000457399
0.00054039
0.000548258
0.000610992
0.000554873
0.000552009
0.000620926
0.000538258
0.000566469
0.000676398
0.000613071
0.000557709
0.000600003
0.000729257
0.00101588
0.00223535
0.000644184
0.00104604
0.00783926
0.0101392
0.00337898
0.006562
0
0.109793
0
0.131977
0
0.00179305
0.0181566
0.0114485
0.00883835
0.00609515
0.0103438
0
0
0
0
0
0
0
0
0
0
0
0
0
0.00886189
0
0.00439775
0.0551004
0.00136075
0.00970492
0.00410711
0.00798931
0.00454109
0.000284937
0.00264374
0.000819934
0.00210832
0.00228556
0.00260002
0.00248848
0.00299477
0.0037133
0.00267058
0.0018974
0.00234832
0.00229623
0.00176592
0.00350071
0.00276535
0.00146209
0.000990654
0.00220782
0.00221107
0.0018979
0.000843103
0.00166295
0.000781547
0.00162939
0.0013187
0.00124805
0.00113732
0.000776846
0.000765965
0.000538064
0.000675228
0.000427677
0.00051138
0.000635901
0.000483212
0.000381543
0.000441313
0.000420003
0.00037986
0.000423191
0.000332177
0.000443748
0.000375334
0.000436793
0.000403505
0.000402508
0.000457964
0.000438896
0.000455747
0.00046528
0.000564227
0.00046151
0.000472705
0.000497361
0.0005392
0.000477998
0.000455787
0.000468941
0.000498903
0.000465054
0.000524675
0
0
0.104135
0.0294836
0
0.0688137
0.0107121
0.0142559
0.0119045
0
0
0
0
0.356092
0
0
0
0
0
0.015157
0.0112833
0
0
0
0
0
0
0
0
0.0010718
0.0152963
0
0
0
0.00818041
0
0
0
0
0
0
0
0.00924808
0
0
0
0
0
0
0
0
0.000117008
0
0
0
0
0
0
0
0
0
0
0
0
0
0
0
0
0
0
0
0
0
0
0
0
0
0
0
0
0
0
0
0
0
9.66378e-05
0.000404689
0.000532699
0.000186492
0.000186933
0.00037565
0.000172259
0.000549611
0.000320318
0.000657077
0.000243346
0.000871828
0.000342843
0.00149975
0.000615233
0.00292734
0.00549941
0.000935869
0.000246861
0.000756922
0.00151089
0.000926785
0.23526
0
0.0272784
0
0
0
0
0
0
0
0
0
0
0
0
0
0
0
0
0
0
0
0
0
0
0
0
0
0.00962365
0
0.00284214
0.000559579
0.0011149
0.00107275
0.000508733
0.000665455
0.00100573
0.000552052
0.000978707
0.000603632
0.00037127
0.000597809
0.000365416
0.000771563
0
0
0
0
0
0
0
0
0
0
0
0
0
0
0
0
0
0
0
0
0
0
0.471916
0
0
0
0
0
0
0
0
0.0210223
0.0108211
0.0865489
0
0
0
0
0
0.00823973
0.0426178
0.135448
0
0
0
0
0.00128547
0.00206011
0
0
0
0
0
0
0
0
0
0
0
0
0
0
0
0
0
0
0.000257238
0.000293194
0.000220921
0.000254319
0.000332095
0.000273325
0.000302949
0.000288301
0.000290311
0.000297347
0.000218621
0.000322633
0.000272576
0.000247402
0.000387504
0.000506326
0.000447538
0.000423567
0.000296307
0.000444849
0.000398275
0.000356269
0.000214532
0.00034586
0.000320652
0.000282091
0.00023671
0.000301078
0.000270773
0.000612951
0.000596557
0.000534335
0.00048724
0.000480344
0.000481874
0.000603889
0.000508399
0.000954832
0.00130359
0.000590843
0.000586586
0.000793503
0.000865107
0.00059858
0.000569316
0.000644584
0.000616434
0.000568922
0.000485585
0.000597243
0.000447394
0.000556934
0.000565741
0.000582663
0.000606077
0.000588782
0.000560806
0.000611726
0.000569975
0.000789458
0.00063828
0.000669054
0.000610538
0.000783251
0.00285871
0.00548541
0.00791258
0.00166432
0.00169318
0.000419972
0.0159736
0.00919288
0
0
0.000369852
0.000349954
0.000317066
0.000256619
0.000305099
0.000251024
0.000224045
0.000227789
0.000229184
0.000295197
0.000274497
0.000255936
0.000251704
0.000259794
0.000206457
0.000267718
0.000244746
0.000165521
0
0
0.00260579
0.0210832
0.622085
0.00603155
0.0172088
0
0.0022728
0
0.00606707
0.00914008
0
0
0
0
0
0
0
0
0
0
0.00703083
0
0.0351227
0
0.000707303
0.0116886
0.00549939
0.00215085
0.00257405
0.00387482
0.00265443
0.00291725
0.00173428
0.0026063
0.00175469
0.00362201
0.00205301
0.00205609
0.00307899
0.00253358
0.00177973
0.00233226
0.00106938
0.00205655
0.00192541
0.00189294
0.0012578
0.00141691
0.000446797
0.00115569
0.000794141
0.000932101
0.00100455
0.00101869
0.00129871
0.000890572
0.000931519
0.000669225
0.000728692
0.000485567
0.000570129
0.000835886
0.00061783
0.000390143
0.000387977
0.00038491
0.000377315
0.000406349
0.00042672
0.000342346
0.000371965
0.000405086
0.000369127
0.000351595
0.00035603
0.000338196
0.000356102
0.000396635
0.00038805
0.000347778
0.00038031
0.00034041
0.000359561
0
0
0.714925
0
0
0
0
0
0
0
0
0
0
0
0.00749364
0
0
0
0
0.0234026
0
0
0
0
0
0
0
0
0.00322338
0.00365185
0.0312542
0
0.000665688
0
0
0
0
0
0
0
0
0
0.0119574
0
0
0
0
0
0
0
0
0.203533
0
0
0
0
0
0
0
0
0
0
0
0
0.00245904
0
0
0
0
0.00449398
0
0
0
0
0
0
0
0
0
0
0
0
0
0
0
0
0
0
0
0.00255132
0
0
0
0
0.0029056
0.00027366
0.000275362
0.00024857
0.000233133
0.000283157
0.000194987
0.000313427
0.000225106
0.000232957
0.000318778
0.000208483
0.000288336
0.000604832
0.000118063
0.000924591
0.000355801
0.0011362
0.000276087
0.00187803
0.00109049
0.00214748
0.00513495
0.000850252
0.00139581
0.000366033
0
0
0
0
0
0
0
0
0
0
0
0
0
0
0
0
0
0
0
0
0
0
0
0
0
0
0
0.00738824
0.00287264
0.00064241
0.000781837
0.000178918
8.46386e-05
7.67033e-05
0.000529028
0.00106598
0.000384354
0.000393668
0.000314252
0.000740786
0.000723427
0.00015814
0.000466638
0
0.0010505
0
0
0
0
0
0
0
0
0
0
0
0
0
0
0
0
0
0
0
0
0
0
0
0
0
0
0
0
0
0
0
0
0
0
0
0.00603049
0.00531959
0.0147829
0.0967192
0.125948
0
0
0
0
0
0
0.0563942
0
0
0
0
0
0
0
0
0
0
0
0
0
0
0
0
0
0
0
0
0
0
0
0
0
0.000247585
0.000223471
0.00023374
0.00024224
0.000301725
0.000330508
0.000386414
0.000470666
0.000497126
0.00051873
0.000517151
0.000486094
0.000433087
0.000437654
0.00030794
0.000287928
0.000629126
0.00066911
0.000518672
0.000532278
0.00049532
0.000493626
0.000515842
0.000663699
0.00119432
0.000993034
0.000649914
0.000953887
0.00104597
0.000813614
0.000649834
0.000582466
0.000529682
0.000685646
0.000535674
0.000540265
0.000695856
0.000583108
0.000751754
0.000580694
0.000586868
0.000617824
0.00063872
0.000573126
0.000662554
0.000605708
0.00051227
0.000475374
0.000554512
0.000630199
0.000791396
0.000600808
0.000536882
0.0108684
0.00435662
0.00220457
0.000981338
0.0141939
0.00223069
0.00124011
0.00229628
0.00709431
0.0261563
0
0.119679
0.000242907
0.000289811
0.000281285
0.000212041
0.000232921
0.000205168
0.000217388
0.000199982
0.000222881
0.000308323
0.000243376
0.000298179
0.000285859
0.000186313
0.000284622
0.000218169
0.000209595
0.000105105
0.000226129
0.000171866
0.000173408
0.000239079
0.000171146
0.000215206
0.000168316
0.00393261
0.00955096
0.00536105
0
0
0
0
0
0
0
0
0
0
0
0
0
0
0
0
0
0.0039062
0
0
0
0.0307514
0.0221115
0.332406
0.0671082
0.0025004
0.00734596
0.00449864
0.00388085
0.00218428
0.00194946
0.000308559
0.00426352
0.00360436
0.00147755
0.00237967
0.00161623
0.00207089
0.0023955
0.00214255
0.00210239
0.00187778
0.00140177
0.00169163
0.00166064
0.00145578
0.00159176
0.000979937
0.000689332
0.0014223
0.000844028
0.00115902
0.000814972
0.0012273
0.000687254
0.000772861
0.000873649
0.00063415
0.000763918
0.000442212
0.000430014
0.000367684
0.000351125
0.000368826
0.000321572
0.000383658
0.000409425
0.000312418
0.000299863
0.000312488
0.00021391
0.000255791
0.000189157
0.0002744
0.000292724
0.000197643
0.000284003
0.000232783
0.000276136
0
0
0
0
0
0
0
0
0
0
0
0
0
0
0
0
0
0
0
0
0
0
0
0
0
0.000875414
0
0
0.00843786
0.00221862
0
0
0
0
0
0
0
0
0
0
0
0
0.278612
0
0
0
0
0
0
0
0
0.107181
0
0
0
0
0.00393007
0
0
0
0
0
0
0
0.00155973
0.00251393
0
0
0.0043085
0.000587791
0
0
0
0
0.00705335
0
0.00963234
0
0
0
0
0
0
0
0
0
0
0
0
0
0
0
0
0
0.00442028
0
0
0
0
0
0
0
0
0.000181426
0.000110358
0.000232403
0.000290718
0.000161295
4.54137e-05
7.23108e-05
0.000187501
0.00016264
0.000201499
0.000155953
0.000358245
0.000267031
0.000167026
0.000421114
0.000341153
0.000510131
0.000613724
0.000705479
0.000767156
0.000507518
0.00142371
0.00169192
0.00108831
0.00584514
0.00502662
0.00252614
0
0
0
0
0
0
0
0.00180376
0.00859162
0
0
0
0
0
0
0
0
0
0
9.939e-05
0
0
0
0
0
0.000421653
0.000414358
0.000107559
0.00299571
0.000866289
0.00206762
0.000843807
0.000378875
0.000341494
0.000264337
0.000811309
0.000800276
0.000435123
0.000547419
0.000664535
0.00082779
0
0
0.000989731
0
0
0
0
0.000158614
0
0
0
0
0
0
0
0.011381
0
0.00466661
0.00833259
0
0
0
0
0
0
0
0
0
0
0
0.00814398
0
0
0
0
0
0
0
0
0
0
0
0
0
0.00430531
0.022015
0.00825172
0.009787
0
0
0
0
0
0
0.000491698
0
0
0.00204696
0
0
0
0
0
0
0
0.0032384
0
0
0
0
0
0
0
0.00290984
0
0.00464526
0
0
0
0
0
0
0
0.0038557
8.32879e-05
0.000215161
0.000311224
0.000129177
0.000285388
0.000341681
0.000316275
0.000157174
0.000220501
0.00024029
0.000152625
0.000210702
0.00025195
4.74375e-05
0.000543467
0.000529868
0.000546493
0.000573363
0.000471429
0.000482532
0.000300435
0.000226756
0.000658232
0.000708523
0.000547475
0.000556709
0.000534968
0.000553948
0.000494882
0.0010738
0.000743198
0.000679046
0.000454898
9.73791e-05
0.00104381
0.000880897
0.000575123
0.000695749
0.000405316
0.000886512
0.000654257
0.000626064
0.000790151
0.000669389
0.000689425
0.000624778
0.000668637
0.000639738
0.000556905
0.000567456
0.000354995
0.000592592
0.000518971
0.000429983
0.000731959
0.00067364
0.000349594
0.000573647
0.00663075
0.0119223
0.00172678
0.000651698
0.002319
0.00858873
0.00187576
0.00134487
0.0280909
0.0145075
0.0176938
0
0.000177729
0.000200298
0.000161252
0.00014337
0.000164847
0.000159083
0.000131207
0.00012847
0.000185116
0.000259292
0.000215668
0.000250735
0.000243281
0.000260114
0.000226265
0.000266784
0.000160369
0.000101495
0.000215648
0.00014547
0.000182418
0.000204137
0.000171614
0.00014938
6.0059e-05
0
0
0
0
0
0
0
0
0
0
0
0
0
0
0
0
0.00392399
0
0
0
0
0
0
0
0.0141743
0.0230241
0.0429338
0
0.00636233
0.00389676
0.003226
0.0045364
0.00260076
0.00157437
0.00178153
0.00231407
0.00173159
0.00157499
0.00208352
0.00158598
0.00207355
0.00192434
0.00140318
0.00118604
0.00179465
0.0016893
0.00150875
0.00140068
0.00191137
0.00104772
0.00106138
0.0010395
0.00108324
0.00121469
0.000825797
0.00124372
0.000929531
0.000787751
0.000947468
0.000665427
0.000614187
0.000494124
0.000473476
0.000446874
0.000408649
0.000386435
0.000307973
0.000348297
0.000286544
0.000249957
0.000142902
0.000176898
8.53938e-05
0.000169431
5.76109e-05
0.000177604
0.000276582
0.000122403
0.000125922
0
0
0.0347031
0.000199677
0
0
0
0
0
0
0
0.0102408
0.00294581
0.0123554
0.019432
0.00753493
0.0103186
0
0.0126878
0.0107399
0
0
0
0.0060191
0
0.00619839
0.00954692
0
0
0
0
0
0
0
0
0.000201586
0
0
0
0
0
0
0.280726
0
0
0
0
0
0
0
0
0
0
0
0
0
0
0
0
0
0
0
0
0
0
0
0
0
0
0
0
0
0
0
0
0
0
0
0
0
0
0
0
0
0
0
0
0
0
0
0
0
0
0
0
0
0
0
0
0
0
0
0
0
0
0
0
0
0
0
0
0
0.000138114
0
0
0
0
5.28414e-05
0.000184986
0.000117405
0.000198449
2.11905e-05
4.1182e-05
0.000371603
0.000134372
0.000264515
0.000117755
0.000179818
7.95753e-05
0.000244324
0.000154095
0.000143941
0.000496326
0.000378725
0.000153217
0.00039707
0.000289621
0.00125205
0.000156151
0.00291078
0.000602538
0.00529539
0.005435
0.0036312
0.00644521
0.00927237
0
0
0
0
0
0.0164743
0
0
0
0.0396797
0
0
0
0
0
0
0
0.0132118
0.00364005
0
0.00323817
0
0
0
0.000142185
0.000398733
0.000755601
0.000672073
0.000471707
0.00663509
0.000463965
0.00202172
0.000560255
0.000948967
0.000786467
0.000757664
0.000948563
0.000425532
0.000942128
0.000756298
0
0.00350298
0
0
0
0
0
0.00015167
0
0
0.00017159
0
0
0
0.00109763
0
0
0
0
0
0
0
0
0
0
0
0
0
0
0
0
0
0
0
0
0
0.0130669
0
0.0195246
0
0
0
0
0
0
0
0
0
0
0
0
0
0
0
0
0
0
0.0231705
0
0
0
0
0
0
0
0
0
0
0
0
0
0
0
0
0
0
0
0
0
0
0
0
0
0
0
0
0
0
0
0
0.0111136
0.0103933
0
0
0
0
0
0
0.000174562
0.00026466
0.000298945
0.000242286
0.000747398
0.000282714
0.000721331
0.000203919
0.000213033
0.000370433
0.000191875
0.000166014
0.000220143
0.000555038
0.00049667
0.000519674
0.000527291
0.000423283
0.000460877
0.000625074
0.000380135
0.000741967
0.000656754
0.000573648
0.000577329
0.0005483
0.000501856
0.000569499
0.0011983
0.000646424
0.000448286
0.000199004
0.00162632
0.000773864
0.000726861
0.000730775
0.000620994
0.00112157
0.000488373
0.000593942
0.000626479
0.000621453
0.000665501
0.000561663
0.000544635
0.00054674
0.000534146
0.000401861
0.000513031
0.000394197
0.000181646
0.000381853
0.000467431
0.000542965
0.000660451
0.000280023
0.000442462
0.00989797
0.004467
0.00131456
0.00228903
0.00243442
0.000781039
0.00147794
0.0012083
0.00511858
0.0093457
0.0191339
0.303311
0
0
0
0.000240885
6.8336e-05
0.000111729
7.8984e-05
7.87242e-05
0.000141799
8.9536e-05
9.92617e-05
0.000171423
0.000169597
0.000196845
0.00025619
0.000207862
0.000251334
0.000158007
0.000178995
0.000209016
0.000171521
0.000151462
0.000101398
0.000182644
0.000158603
0.000193078
0.000179137
0.000126644
0.000105882
0
0
0
0
0
0.0046694
0.00593791
0
0
0
0
0.0040668
0.00571002
0
0
0
0
0
0
0
0
0
0
0
0
0.0562213
0.00501168
0
0.00331871
0.0130163
0.00135934
0.00482473
0.00292197
0.000774872
0.00189174
0.00193494
0.00223137
0.00207518
0.00159468
0.00199504
0.00197107
0.00187714
0.00133541
0.00121096
0.00125288
0.00206915
0.00184993
0.00133072
0.00125993
0.00118408
0.00141035
0.00131615
0.00157596
0.00114857
0.00106589
0.00104808
0.00092762
0.00103314
0.000779354
0.000741873
0.000550456
0.000621216
0.000526488
0.000483402
0.000380965
0.000400361
0.00026215
0.000265988
9.30083e-05
0.000139137
7.10822e-05
0.00011731
7.63108e-05
0.000129137
0.000115785
9.5827e-05
0.000130223
0.000108609
0
0
0
0
0
0
0
0
0
0.00120922
0
0
0
0.0247364
0.0123868
0.0242678
0.00821812
0.0103536
0.0112012
0
0
0
0
0
0
0
0
0
0
0
0
0
0
0
0
2.62188e-06
0
0
0
0.0114086
0
0
0
0
0
0
0
0
0
0
0
0
0
0
0
0
0
0
0.00853953
0
0
0
0
0
0.00257435
0.00196059
0.00462933
0
0
0
0
0
0
0
0
0
0
0
0
0
0
0
0
0
0
0
0
0
0
0
0
0
0
0
0
0
0
0
0
0
0
0
0
0
0
0
0
0
0.00708692
0
0.00277186
0
0
0.00205998
0
0
5.60862e-05
9.55895e-05
0.000183233
4.99024e-05
3.50759e-05
0.000198058
0.000115382
0.000558275
4.55978e-05
5.17006e-05
0.000468736
0.000502464
0.000134339
0.000133505
0.000407026
0.000131065
1.85956e-05
7.08756e-05
0.000225711
0.000878876
0.000179374
0.000928164
0.000953461
0.000645389
0.00149247
0.000792041
0.000160332
0.00198656
0.00618356
0.0139884
0.00632529
0.00274677
0.00906866
0
0
0
0.0134216
0
0
0
0
0
0
0
0
0
0
0
0
0
0
0
0
0.0103325
0
0
0
0.000495148
0.000311618
0.000413821
0.00107202
0.00206514
0.00607303
0.00299017
0.00178794
0.000702077
0.00147363
0.000792992
0.00122745
0.000501466
0
0
0
0
0
0
0.000368104
0.00304724
0
0
0
0
0
0
0
0
0
0.253763
0
0
0
0
0
0
0
0.0112795
0
0
0.0279933
0
0
0
0
0
0
0
0
0
0
0
0
0
0
0
0
0
0
0
0
0
0
0.00245922
0
0
0
0
0
0
0
0
0
0
0
0
0
0
0
0.0122617
0
0
0
0.025285
0
0
0
0
0
0
0
0
0
0
0
0
0
0
0
0
0
0
0
0
0
0
0
0
0
0.00410921
0
0
0
0
0
0
0
0
0.00098553
0.000309428
0.000238668
7.87886e-05
0.00115903
0.000353375
0.000122678
8.43656e-05
0.000148574
0.000159296
0.000100476
3.26837e-05
6.19506e-05
6.8932e-05
0.000485416
0.000521812
0.000503102
0.000451576
0.000471162
0.000400023
0.000247269
0.000386777
0.000637998
0.000563103
0.000575049
0.000696599
0.000496975
0.000502978
0.000769023
0.000907226
0.000516727
0.000535948
0.000537939
0.000791877
0.000346026
0.00089474
0.000588435
0.000914866
0.00067254
0.000945424
0.000377362
0.000457538
0.000456725
0.000488491
0.000328789
0.000455591
0.000317901
9.89556e-05
0.000463377
0.000156183
0.000557679
0.000349903
0.000371838
0.000185247
0.000218468
0.000459813
0.000148632
0.00033426
0.00450805
0.0134958
0.0011378
0.00207176
0.0003122
0.0011196
0.00108972
0.00146356
0.00852978
0.014511
0.0200636
0.055671
0
0.00864042
0.000141557
0.000119627
7.70227e-05
0.000145774
0.000197745
0.000154635
0.000147169
0.000168063
0.000182478
0.000198745
0.000172683
0.000199299
0.000208487
0.000178547
0.000185265
0.000157126
0.000137791
0.000155303
0.000138209
0.000191578
0.00010837
0.000213344
0.000208717
0.00010799
0.000125964
0
0
0
0
0
0
0
0
0
0.00447828
0
0
0
0
0
0.000166214
0.000134942
0
0
0
0
0
0
0
0
0.154684
0.108429
0.00749657
0.00748742
0.0058792
0.000495832
0.0027044
0.00260252
0.00407235
0.00308408
0.00290288
0.00295546
0.00206041
0.00166133
0.00156448
0.00215552
0.00180136
0.00128269
0.00150366
0.00115956
0.00144776
0.00182996
0.00140112
0.0011498
0.00140913
0.00111357
0.00117158
0.00140983
0.00134644
0.000746119
0.00114519
0.000930458
0.000869427
0.000687403
0.000611817
0.000569132
0.000540059
0.000449746
0.000421058
0.000315154
0.0002754
0.000132741
0.000113715
0.000101162
8.94711e-05
0.000102683
0.000104817
0.000101739
7.82737e-05
5.877e-05
9.42213e-05
0.000147308
8.16406e-05
0
0
0
0
0
0
0
0
0
0.000475679
0
0
0
0
0
0
0
0.0107997
0
0
0.012789
0
0
0
0.000696897
0
0
0
0
0
0.00132163
0
0
0
0
0
0
0
0
0
0
0
0
0
0
0
0.00458028
0.0047216
0.00583145
0
0
0
0
0.00359299
0
0
0.00426343
0
0
0
0
0.00684024
0
0.00259124
0
0
0
0
0
0
0
0
0
0
0
0
0
0
0
0
0
0
0
0
0
0
0
0
0
0
0
0
0
0
0
0
0
0
0
0
0
0
0
0
0
0
0
0
0
0
0
0
0
0
0
0
0
0.00308267
0
0
0
0.0126953
0
0
0.000127751
7.2975e-05
4.70212e-05
0.000118648
0.000114747
9.55936e-05
5.46153e-05
0.000143633
0.000110309
0.000238623
0.000220324
0.000280082
0.00026289
2.49029e-05
0.000114446
0.000147518
0.000270709
0.000266821
0.000112552
4.60791e-05
8.3944e-05
0.000186261
0.000133605
0.000131405
0.0019202
0.00115959
0.00151726
0.00093058
0.000653493
0.00483392
0.00478393
0.00482945
0.00454385
0.00222666
0.0052017
0.0416334
0.0743125
0
6.0445
0.0518304
0.00642846
0
0
0.0132694
0
0
0
0
0
0
0
0.0538302
0
0
0
0
0.0296866
0
0
0
0
0.000937607
0.000793317
0.000564113
0.00302397
0.00221842
0.00314836
0.00105436
0.00161501
0.000610462
0.00125769
0.000675086
0.000764795
0
0
0.000530639
0
0
0.00293399
0.00172032
0
0
0
0
0
0
0
0
0.233659
0.102769
0
0
0.026237
0
0.00233126
0
0
0
0
0.0341716
0
0.0077034
0.120962
0
0
0
0
0
0
0
0
0
0
0
0
0
0
0
0
0
0
0.0191766
0
0
0
0
0
0
0
0
0
0
0
0
0
0
0
0
0
0
0
0
0
0
0
0
0
0
0.00202127
0.00473246
0
0
0
0
0
0
0
0
0.00178267
0
0
0
0
0
0
0.0012126
0
0
0
0
0
0
0
0
0
0
0
0
0
0
0
0
0
0
0
0
0
0
0
0
0.000598615
0.000267845
0.000500531
9.15771e-05
0.000260384
3.8594e-05
4.70538e-05
0.000129748
0.000114307
4.27028e-05
4.61632e-05
1.37242e-05
5.29948e-05
0.000126007
0.000117063
0.000480481
0.000431797
0.000416099
0.000432662
0.000385327
0.000471826
0.000477085
0.000404111
0.000375914
0.000413739
0.000303961
0.000416684
0.000577869
0.00039925
0.000474952
0.000750391
0.000501577
0.0008777
0.000803318
0.00088396
0.000857496
0.000662067
0.000754706
0.000356255
0.00043094
0.00058828
0.000196556
8.21065e-05
0.000233097
0.000117858
0.000184482
0.000154491
4.0472e-05
0.000440928
0.000257537
0.000459191
0.000629508
0.00047256
0.000300198
0.000480239
0.000305282
0.000303171
0.000251071
0.00294218
0.013312
0.00263171
0.00185491
0.00339953
0.00199967
0.00117558
0.00217196
0.0116089
0.00827213
0.036677
0.0159366
0.015976
0.00893635
0.000177294
4.1378e-05
0.000132414
0.000144448
0.000194394
0.000194264
0.000185167
0.00018797
0.000207071
0.00018253
0.000172934
0.000156769
0.000148367
0.000168832
0.000146272
0.000129417
0.000119111
0.000185733
3.78339e-05
0.000115335
0.000199631
0.000161994
5.81127e-05
8.98844e-05
0.00692597
0.0103914
0.0145517
0
0
0
0
0
0
0
0
0
0
0
0
0
0
0
0
0
0
0
0
0
0.361528
0.0200929
0.0278484
0.00666293
0.00773887
0.0032934
0.00566397
0.00462331
0.00354921
0.0028378
0.00311664
0.00382386
0.00321011
0.00209417
0.00233371
0.00216201
0.00206238
0.00211888
0.00184019
0.00176916
0.00132782
0.00117368
0.00166691
0.00121123
0.00144168
0.00151458
0.00090346
0.00109271
0.00110835
0.00116631
0.000875007
0.00111176
0.00079375
0.000779176
0.000629276
0.000607527
0.000546766
0.000482101
0.000393706
0.000308834
0.000188916
0.000133732
8.83942e-05
9.11289e-05
0.000100715
8.25737e-05
8.22183e-05
0.000115422
0.000123737
0.000107819
9.75401e-05
0.000166197
0.000145248
7.19407e-05
0.0171289
0.0063958
0
0
0
0
0
0
0
0
0
0.00250974
0
0.00336028
0
0.000912551
0.00723329
0
0
0
0
0
0
0
0
0
0
0
0
0.00186049
0
0
0
0
0
0
0
0
0.00831137
0.00524937
0
0
0.00352696
0
0
0
0.00510472
0
0
0
0
0
0
0
0.00996463
0
0
0
0
0
0
0
0
0
0
0.0129693
0
0
0
0
0
0
0
0
0
0.00012379
0
0
0
0
0.00062527
0
0
0
0
0
0
0
0
0
0
0
0
0
0
0
0
0
0
0
0
0
0
0
0
0
0
0
0
0
0
0
0
0
0
0
0
0
0
0
0
0
0
0
0
0
7.82053e-05
6.17447e-05
6.83343e-05
0.000124763
5.4003e-05
0.000135453
5.55542e-05
9.77668e-05
0.000115526
5.30518e-05
5.74752e-05
0.000176458
0.000122964
0.000210474
0.000139952
7.21545e-05
6.0738e-05
0.000179762
0.000193193
0.000125502
0.000152948
0.00019031
0.000192484
0.000170683
0.000158835
0.000149955
0.000113582
0.00344237
0.00487397
0.00300097
0.0042635
0.00774094
0.00757473
0.00158785
0.00867108
0.0723045
0.0347402
0
0
0
0.0116063
0.0179845
0.392191
0
0