/*--------------------------------*- C++ -*----------------------------------*\
  =========                 |
  \\      /  F ield         | OpenFOAM: The Open Source CFD Toolbox
   \\    /   O peration     | Website:  https://openfoam.org
    \\  /    A nd           | Version:  8
     \\/     M anipulation  |
\*---------------------------------------------------------------------------*/
FoamFile
{
    version     2.0;
    format      ascii;
    class       volScalarField;
    location    "12060";
    object      H;
}
// * * * * * * * * * * * * * * * * * * * * * * * * * * * * * * * * * * * * * //

dimensions      [0 1 0 0 0 0 0];

internalField   nonuniform List<scalar> 
526318
(
0.686922
0.646574
0.715924
0.625807
0.692694
0.662943
0.667735
0.586324
0.650267
0.52764
0.513332
0.623845
0.570788
0.610831
0.576292
0.605535
0.568723
0.768792
0.673852
0.728883
0.719777
0.67372
0.436336
0.681569
0.559107
0.423474
0.69917
0.697122
0.696062
0.709235
0.744479
0.789502
0.768101
0.647622
0.650851
0.627263
0.628915
0.717553
0.645609
0.588174
0.638071
0.628076
0.288037
0.341933
0.242046
0.297514
0.272933
0.388672
0.568932
0.473354
0.550946
0.566723
0.511424
0.472474
0.000800556
0.217616
0.211565
0.00996874
0.729108
0.740037
0.76728
0.711639
0.656624
0.790389
0.780987
0.746571
0.728212
0.729634
0.628594
0.616166
0.737535
0.516257
0.567451
0.465135
0.420661
0.409484
0.509512
0.504957
0.418595
0.456725
0.537683
0.536365
0.491668
0.450172
0.481671
0.543156
0.549945
0.518085
0.471864
0.544013
0.452442
0.396147
0.396421
0.324658
0.319719
0.32358
0.326057
0.32028
0.315952
0.319439
7.97638e-05
2.15653e-06
0.000398826
2.73673e-10
0.000907423
0.000148343
0.223865
0.042911
0.353592
0.320658
0.356509
0.480448
0.705757
0.584565
0.693898
0.721477
0.778106
0.747072
0.797276
0.31357
0.314991
0.314448
0.318425
0.27856
0.311483
0.222472
0.27011
0.178269
0.225233
0.175841
0.180699
0.169758
0.14166
0.135068
0.160121
0.109212
0.154952
0.110213
0.129667
0.0762531
0.0788235
0.0983768
0.125015
0.114297
0.0712171
0.0725353
0.0862887
0.0759487
0.0708539
0.0775409
0.0918738
0.0790756
0.0836324
0.0831582
0.0797697
0.0483824
0.0800293
0.0862032
0.0503526
0.00590306
0.0829863
0.0312801
0.0921912
0.590353
0.675422
0.622975
0.611194
0.407072
0.478023
0.410363
0.408112
0.407514
0.407495
0.430461
0.411162
0.345972
0.316688
0.285475
0.223316
0.282898
0.323998
0.324396
0.321862
0.209306
0.263791
0.150135
0.159487
0.16626
0.159122
0.163525
0.162024
0.15799
0.154447
0.154331
0.142631
0.121183
0.141676
0.136589
0.105834
0.087864
0.118122
0.0976088
0.0929207
0.111211
0.103274
0.104262
0.0711985
0.0854969
0.11773
0.119572
0.57012
0.580065
0.620366
0.573021
0.568967
0.570029
0.564305
0.440607
0.49181
0.231935
0.206191
0.206943
0.329486
0.46368
0.342027
0.377676
0.381109
0.32281
0.307608
0.000909044
1.36704e-16
0.000176376
0.156529
0.00027704
9.76159e-09
0.000995694
0.000255125
0.000396609
0.000963311
0.785559
0.760399
0.808563
0.799218
0.772523
0.763461
0.672521
0.756418
0.598639
0.546326
0.539868
0.546521
0.544341
0.547678
0.532056
0.52947
0.450533
0.513639
0.331303
0.385238
0.3147
0.325465
0.00100536
4.55059e-11
0.000154997
0.00100202
0.000103589
0.000987509
1.68945e-10
0.00073805
0.328777
0.143339
0.376397
0.376088
0.486426
0.59283
0.703985
0.718894
0.753462
0.723394
0.790591
0.828457
0.297742
0.289517
0.25396
0.222981
0.121137
0.1626
0.0861516
0.0963281
0.0885785
0.0828718
0.0700458
0.0790201
0.0041043
0.0253698
0.0631008
0.0989513
0.153715
0.122493
0.0845468
0.0804491
0.0132339
0.00521451
0.0556876
0.113051
0.0331574
0.0696731
0.0714759
0.0413829
0.0385562
4.24207e-06
0.00210734
0.000585384
0.000994356
0.000470586
0.000516965
0.0786331
0.120659
0.0762545
0.119606
0.481673
0.435187
0.336568
0.428917
0.345419
0.401356
0.408116
0.398879
0.408677
0.410857
0.324722
0.233175
0.164462
0.148691
0.22276
0.16375
0.147049
0.263504
0.149828
0.200319
0.139371
0.138618
0.149189
0.139875
0.152181
0.14834
0.151606
0.151821
0.148616
0.153398
0.159524
0.157532
0.17049
0.169462
0.168381
0.153369
0.156607
0.150214
0.118909
0.123667
0.144331
0.170809
0.169314
0.138408
0.125673
0.153638
0.192737
0.191329
0.196386
0.159226
0.19128
0.209859
0.247185
0.202882
0.210576
0.22315
0.266155
0.383311
0.457001
0.382905
0.424383
0.487124
0.557667
0.470528
0.33844
0.447729
0.34286
0.362584
0.0983407
0.0452163
0.0741484
0.0607286
0.176191
0.298989
0.232746
0.30545
0.306603
0.32709
0.300733
2.95166e-09
0.000699573
8.20678e-06
5.39295e-06
0.000504118
0.000467209
0.000599399
0.00100998
0.000476803
0.00100962
0.000664765
0.00100889
0.000730728
0.000955715
0.000582482
0.000952703
0.807538
0.796611
0.8334
0.81766
0.798732
0.767441
0.69984
0.612757
0.547645
0.551722
0.533348
0.532987
0.510894
0.513627
0.494566
0.493597
0.443428
0.48606
0.408036
0.351929
0.294039
0.256503
0.000933083
0.00107467
0.00107465
0.000663073
0.000605454
0.000731205
0.000596932
0.00107464
0.00107483
0.00107474
0.00100999
0.00100984
0.000550093
0.00100942
0.000924102
0.000172183
0.000288255
0.000487392
0.000977135
0.00096135
7.31626e-08
0.000978536
0.000793614
1.85613e-05
0.0294608
3.77476e-09
0.238749
0.397717
0.413094
0.503956
0.725745
0.618722
0.734639
0.737523
0.749328
0.784082
0.815173
0.831418
0.213557
0.21557
0.166196
0.192802
0.131052
0.100775
0.0903508
0.0862127
0.0812278
0.0890063
0.0401488
0.0336303
0.000477934
0.000526517
0.052895
0.02114
0.000895094
0.0435459
0.0357592
0.0606448
0.000563312
0.000877153
0.000798003
0.000865557
0.000904524
0.000855117
0.000849612
0.000873914
0.00089927
0.000387281
0.000872478
0.236605
0.205043
0.205415
0.213063
0.230172
0.344546
0.290505
0.274617
0.167259
0.199367
0.182802
0.192912
0.0840113
0.0279032
0.205635
0.321004
0.20005
0.209112
0.191187
0.277538
0.253192
0.32426
0.35738
0.282346
0.262416
0.297784
0.18114
0.141446
0.151138
0.149354
0.0629708
0.116396
0.0424987
0.000816258
0.000587719
0.08981
0.0907458
0.139578
0.138565
0.142428
0.141623
0.143278
0.148792
0.142453
0.15543
0.14442
0.161944
0.157671
0.169746
0.160825
0.186506
0.180185
0.199433
0.204808
0.158908
0.134574
0.200988
0.180012
0.172034
0.191863
0.171753
0.160142
0.205212
0.187646
0.293275
0.294764
0.256142
0.29342
0.306644
0.275489
0.366389
0.333327
0.400743
0.427578
0.44325
0.361043
0.368413
0.361416
0.325044
0.303974
0.281022
0.362853
0.222464
0.188132
0.248603
0.264148
1.57543e-09
0.000654797
0.0733322
0.186597
0.229967
0.261334
0.172475
0.132742
0.0919948
0.0430121
0.000965631
0.000310861
1.42674e-06
1.84795e-07
0.000778321
0.00100068
0.000993891
0.000234006
0.00100979
0.000545241
0.00024476
0.000470015
0.000926911
0.000208943
0.000889372
0.000986846
0.000766556
0.000551352
0.000138864
0.000388285
0.00097475
0.00101
0.000136267
0.000999779
0.000916017
0.000354496
0.00117388
0.000900988
0.0010787
0.000988971
0.00117364
0.00117366
0.000901103
0.000999494
0.0009727
0.000201819
9.59135e-05
0.000989075
0.000892979
0.0009482
0.00100959
0.000881287
0.00100965
0.000996543
2.65749e-05
0.000931251
0.798416
0.811342
0.834498
0.818113
0.796727
0.718939
0.55138
0.631444
0.510932
0.515533
0.492796
0.491157
0.483855
0.488427
0.479239
0.481508
0.423594
0.396759
0.296253
0.338223
0.191847
0.236463
0.000960584
0.000624444
0.000948563
0.000967574
0.000969466
0.000982262
0.000983356
0.000870723
0.00101746
0.000777147
0.000677989
0.000965569
0.000971308
0.000759356
0.000380116
0.000991326
0.000690401
0.00100737
0.000803925
0.000839513
0.000369052
0.000975289
0.000889611
0.000439439
0.000917861
0.00068906
0.00101
0.000641909
7.74865e-06
6.82991e-05
0.000555011
0.000719123
0.00044422
0.000673059
0.216882
0.04288
0.421192
0.381839
0.449987
0.554183
0.65809
0.738098
0.751136
0.736352
0.779727
0.811756
0.79589
0.797417
0.00116663
0.000881573
0.000886173
0.000265477
0.000809944
0.000922867
0.00081396
0.000936858
0.000890554
0.000725685
0.000975785
0.00092383
0.000794854
2.99799e-07
0.000880516
0.00101
0.000170373
0.193293
0.194464
0.192463
0.15858
0.079365
0.115321
0.038666
0.0317395
0.00061649
0.000568624
0.000872996
0.000475995
0.000715547
0.00040806
0.000460004
0.000821702
0.000887373
0.0119478
0.00036189
0.000959571
0.000712611
0.000921773
0.000703425
0.000545433
0.000771027
0.000818397
0.000964289
0.000555971
0.000325844
0.000996791
0.000920408
0.000390313
0.427892
0.401526
0.440252
0.454436
0.403036
0.355079
0.521378
0.548451
0.613963
0.620832
0.168391
0.205966
0.259196
0.337835
0.175356
0.10231
0.147145
0.149671
0.000605743
0.0394811
0.0860063
0.000509784
0.190373
0.188145
0.194451
0.19308
0.211701
0.1874
0.200702
0.220577
0.0999116
0.0894687
0.000903572
0.0700327
0.0704601
0.0325861
0.00100489
0.000997177
4.13285e-75
0.000820232
0.000936519
0.026233
0.0891001
0.0199158
0.0898197
0.140573
0.144358
0.139032
0.145509
0.149145
0.170463
0.158493
0.173876
0.17694
0.190579
0.182308
0.206886
0.202855
0.209459
0.207551
0.21977
0.209648
0.254814
0.225334
0.187849
0.183171
0.255528
0.224672
0.232801
0.273097
0.313209
0.318025
0.315117
0.32095
0.340155
0.395611
0.455817
0.480554
0.484087
0.470609
0.608837
0.54582
0.672054
0.710886
0.703913
0.740591
0.801988
0.666873
0.748227
0.773263
0.850261
0.897721
0.924859
0.944126
0.97525
0.920622
0.973669
0.933187
1.01209
1.01058
1.05818
1.02774
1.08826
1.11455
1.10675
1.05221
1.11995
1.14128
1.11086
1.10354
1.17279
1.14991
1.18084
1.12348
1.11936
1.18618
1.15479
1.10657
1.10454
1.13994
1.17248
0.162566
0.132087
0.301097
0.297447
0.269699
0.263125
0.252205
0.0192655
0.166929
0.000107098
0.000634332
0.000632779
0.000402998
0.000125851
0.000217719
0.000911682
0.0902368
0.000753527
0.00229627
0.000399574
0.000454744
0.000449145
0.00051585
0.000348275
0.00101
5.27544e-07
5.8384e-05
9.70941e-06
5.35186e-05
0.00101
0.000966006
0.000995857
0.000577632
1.36941e-05
0.00163964
0.000842141
0.000928041
0.000844807
0.000691483
0.000388519
0.00069126
0.000943677
0.000831092
0.00129733
0.000411079
0.00012748
0.000146108
0.000949
0.000431299
6.93167e-06
1.61879e-05
0.000990101
0.00093513
0.00100829
0.000808629
0.000911134
0.000410555
0.00100928
0.00100997
0.000810376
0.000937233
0.00075839
0.000978582
0.000974989
0.000926586
0.00101
0.00057983
0.00093695
0.00102622
0.00106172
0.000959027
0.00102683
0.000936717
0.00101
0.00101
0.000467339
0.000585417
0.000993933
0.000773625
0.000877713
0.00099375
0.000922247
0.000776475
0.0010078
0.000994205
0.000136415
0.000956593
0.000950381
0.000921886
0.000915695
0.000919934
0.000615941
0.00101
0.000623175
0.000968314
0.78661
0.776798
0.750771
0.746776
0.663808
0.732381
0.558495
0.495188
0.487591
0.485209
0.480748
0.488181
0.424411
0.431532
0.273
0.235172
0.192734
0.368372
0.365254
0.313742
0.316767
0.317176
0.000789139
0.000412569
0.00104836
0.001043
0.000962471
0.000414864
0.000889842
0.000410365
0.00104326
0.000943131
0.000161511
0.00100893
0.000972717
0.000941946
0.000297472
0.000985833
0.000726155
0.00091818
0.00021426
0.00071546
0.000439604
0.000951565
0.00136316
0.0013633
3.81621e-05
6.02273e-06
0.000169957
0.000987693
0.0443246
2.92667e-06
0.214945
0.381489
0.412726
0.436501
0.520279
0.633936
0.705056
0.678046
0.724295
0.654383
0.706189
0.748992
0.701979
0.702473
0.00113626
0.000991728
0.00100999
0.000849207
0.000955045
0.00119481
0.000759012
0.000800789
0.00119481
0.000964874
0.000981161
0.000996251
0.000214235
1.14836e-05
0.000981687
0.000373012
1.02433e-07
0.00072123
0.00101
0.000253336
0.000277025
0.000765241
0.00096459
0.000879022
0.00197347
0.00101056
0.164816
0.168193
0.088131
0.104584
0.000911948
0.00528638
0.000677277
0.00077955
0.000607105
0.00136771
0.000275067
0.000751573
0.000686785
0.000630537
0.000177773
0.00034845
0.000193047
0.000926802
0.00126698
0.00124759
0.000574496
0.0002975
0.000442264
0.0008342
0.00030944
0.000950196
0.000717662
0.000602104
0.000980152
0.000764758
0.00121767
0.000705014
0.654242
0.659571
0.485249
0.393815
0.392988
0.368903
0.653903
0.562108
0.818024
0.885335
0.777633
0.714201
0.900786
0.887209
0.951923
0.999742
1.02636
1.02777
1.05376
1.02635
1.07959
1.1071
1.10085
1.10211
1.1236
1.10578
1.10563
1.15396
1.09504
1.08934
0.217518
0.142168
0.288244
0.355938
0.144264
0.0920939
0.147588
0.143596
0.000820406
0.0265586
9.08536e-05
0.0288306
0.000714331
0.195272
0.130993
0.186985
0.182285
0.190537
0.0856309
0.000726406
0.000291069
2.41371e-14
2.71255e-06
0.000463587
1.67982e-322
7.53771e-29
1.81001e-06
0.000998818
0.000713049
0.000810978
3.63154e-05
0.000418581
0.0361488
0.000858756
0.0891776
0.0365241
0.0765104
0.135504
0.165318
0.149837
0.186136
0.179917
0.196027
0.182097
0.213604
0.230477
0.228649
0.238597
0.246106
0.252484
0.28192
0.294105
0.284932
0.276233
0.279687
0.271947
0.291491
0.303848
0.353341
0.350529
0.31182
0.344694
0.337159
0.371301
0.403735
0.469611
0.497122
0.496595
0.510329
0.575246
0.659521
0.733571
0.747475
0.876821
0.748546
0.802098
0.953582
0.973462
0.973455
1.00764
1.0565
1.10299
1.11634
1.11745
1.14766
1.17704
1.20092
1.20392
1.20333
1.20142
1.20306
1.18602
1.12243
1.18713
1.15528
1.10968
1.10787
1.1405
1.17433
1.18211
1.10827
1.16981
1.12786
4.09968e-08
0.00100559
0.0215402
0.0933372
0.00101419
0.0474856
0.180305
0.115991
0.14281
0.000446488
0.000582492
1.93585e-06
0.000718235
0.00324896
2.65383e-07
0.000180485
1.03342e-06
5.25202e-06
0.000978156
0.00127051
0.00127026
0.000284872
0.000472327
0.000269009
0.00100999
0.000871197
0.000795729
0.000978231
0.000517629
0.00142544
0.00142356
0.00086849
0.000172666
0.000472574
0.00163948
0.000981197
0.000721935
0.000478021
0.000315336
0.000481495
0.00101
0.000993304
0.00129716
0.000928609
0.00101
0.000468388
0.000660221
0.000998234
0.000701989
0.000938544
0.000874495
0.00105212
0.000945698
0.000791252
0.000751098
0.000990039
7.57449e-05
0.00099613
0.000976554
0.000151024
0.000650036
0.000544652
0.000936558
0.000835023
0.000952869
0.000927448
0.000995118
0.000978339
0.000943996
0.000974885
0.00092222
0.000207016
0.000979907
0.000919067
0.00101
0.000732523
0.00100962
0.000641972
0.000367709
0.000916152
0.000960434
0.000962827
0.000892128
0.000599565
0.000479733
0.699245
0.700842
0.680129
0.683348
0.615156
0.677056
0.483858
0.551434
0.443802
0.44689
0.391975
0.370384
0.318011
0.317556
0.230418
0.125288
0.10219
0.271882
0.314592
0.317382
0.314571
0.316987
0.00104484
0.000995301
0.00105108
0.000580237
0.000973634
0.000973647
0.00094649
0.000972052
0.00100548
0.000830393
0.000135327
0.000443538
0.00093376
0.000997208
0.00060297
0.00100999
0.00098232
3.53596e-05
0.000985985
0.000873381
0.000276721
0.000476037
0.000655599
0.00101
0.000321117
3.32274e-05
0.00016739
0.000935205
0.107175
1.95174e-22
0.252641
0.383662
0.357564
0.466795
0.632196
0.535163
0.611377
0.619905
0.604912
0.633526
0.692341
0.686117
0.694612
0.66293
0.000769413
0.000922585
0.000568744
0.000958878
0.000712787
0.000933944
0.000627141
0.000452485
0.000818888
0.000879841
0.000957505
0.000856862
0.000968979
7.84186e-11
0.000922039
0.000873917
0.00096514
0.000987798
0.000743529
0.00100999
0.000468733
9.72819e-06
0.00179164
0.000901385
0.00101
0.000860782
0.000668131
0.000489708
0.000136748
2.00435e-09
0.00098545
0.0453496
0.045635
0.00648723
0.000959952
0.000273559
0.000330483
0.000956993
0.000403223
0.0909319
0.0282547
0.00628087
0.000187059
0.0009323
0.000408908
0.00100989
0.00127116
0.00127116
0.000245588
0.000583215
0.00031494
0.000807948
0.000361506
0.000801456
0.000830286
0.000590487
0.000349619
0.000325271
0.000587295
0.00100971
1.30661e-05
0.00052455
0.000737284
0.000689738
0.000594218
0.000809643
1.23134
1.23623
1.264
1.24651
1.28365
1.27099
1.29492
1.28805
1.34088
1.33145
1.29491
1.34671
1.30849
1.36452
1.19689
1.14717
1.16856
1.21772
1.20385
1.16901
1.1749
1.22633
1.23539
1.20732
1.18979
1.24116
1.22772
1.23501
1.25748
1.10813
1.10663
1.10777
1.10894
1.12615
1.14619
0.699027
0.650769
0.542343
0.442625
0.359534
0.44182
0.636424
0.616055
0.864314
0.878463
0.769819
0.84509
0.890763
0.938625
0.989378
1.02945
1.02935
1.02843
1.02643
1.05208
1.06932
1.09072
1.07889
1.08086
1.08113
1.09275
1.06874
1.07098
0.26474
0.197683
0.131431
0.131152
0.186982
0.355856
0.342778
0.0680385
0.128717
0.000831026
1.98729e-05
1.21604
1.23617
1.25419
1.26157
1.26394
1.27545
1.28154
1.30613
1.29132
1.30535
1.30688
1.35288
1.37598
1.39967
1.40215
1.40714
1.41697
1.43859
0.000368041
0.00068467
0.00145458
0.112596
0.00327261
0.171518
0.0806845
0.000572228
0.00131173
4.62347e-23
0.00131178
0.00131172
0.000150505
0.000199517
0.000879062
0.000634227
1.56935e-49
6.10001e-120
0.000377734
0.000793005
0.000395231
0.000587302
0.00123241
7.09522e-06
0.0391706
0.000993788
0.127612
0.0717076
0.151943
0.119703
0.156986
0.177144
0.208689
0.231124
0.251348
0.251433
0.260355
0.255138
0.307155
0.296355
0.29035
0.288252
0.33851
0.315757
0.385009
0.346342
0.328101
0.367892
0.414976
0.403305
0.425341
0.463502
0.462652
0.408528
0.509811
0.544619
0.518014
0.499565
0.592934
0.67203
0.749711
0.818676
0.765261
0.783096
0.913732
0.968933
1.01292
0.989334
1.05543
1.08322
1.12401
1.14161
1.13658
1.15463
1.21312
1.19259
1.20383
1.21226
1.2041
1.20149
1.20284
1.2037
1.20461
1.20629
1.20637
0.000987566
9.77834e-06
0.00228736
3.78316e-05
0.000308718
6.25157e-05
0.00039374
7.66017e-05
0.000352178
0.000541021
0.000555531
0.000992538
8.58466e-05
0.00036309
0.00145453
0.000985435
0.000894993
0.000186679
4.28478e-05
0.00126998
0.000347018
0.00038011
0.000811015
0.000714013
0.000735431
0.000980699
0.00100999
0.000909114
0.00111751
0.00111749
0.0014233
0.000847223
0.00101446
0.000978158
0.000776109
0.00096702
0.000896738
0.000998449
0.00026155
0.000888291
0.00100984
0.000894905
0.00111741
0.000268508
0.000398457
0.000668916
0.00101
0.000330569
0.000740386
1.0379e-14
9.08122e-10
0.00238561
0.000379096
0.000850418
0.000694792
0.000545923
0.000997667
0.0003892
0.00100993
0.000972649
0.000977525
0.000963111
0.000999516
0.000735368
0.00105073
0.000931368
0.000718807
0.000997009
0.000769608
0.00105085
0.00089779
0.000955844
0.000631827
0.000258775
0.000748828
0.000964465
0.000941166
0.000838222
0.00101
0.000334973
0.000769708
0.000685233
0.000978177
0.000925692
0.000935309
0.000896508
0.00091709
0.000695524
0.000567275
0.00204739
0.000191004
0.000674617
0.000835469
0.000946669
0.00204734
1.40583
1.36028
1.33124
1.4355
1.46568
1.46296
0.677869
0.682296
0.663864
0.658581
0.586186
0.652467
0.482236
0.40437
0.332043
0.345887
0.317221
0.317687
0.315123
0.317579
0.192082
0.110752
0.202919
0.283367
0.278653
0.00093523
0.000810966
0.000875173
0.000890082
0.000922295
0.0009764
0.000965395
0.000493094
0.000931051
0.000554111
0.00100943
0.000959595
0.000969088
0.000968182
0.000178719
0.000355071
0.00100998
0.000498781
0.000128694
0.000927014
4.59314e-06
0.000276092
0.000921556
0.000785239
0.00052174
0.000783296
0.000978157
0.0862246
0.21993
0.337344
0.338429
0.660788
0.580812
0.591058
0.373605
0.465954
0.552533
0.60575
0.608931
0.605196
0.628702
0.652332
0.646851
0.000710927
0.00115173
0.000624512
0.000982796
0.000704864
0.000720222
0.00100904
0.000845157
0.000731263
0.000865554
0.000823186
0.000932446
0.000763197
0.000831138
0.000896425
0.000606451
0.000627663
0.00100504
0.000978863
0.000935387
0.000938185
0.000682923
0.000770427
0.000937995
0.000997599
0.000978674
0.000347723
0.000953032
0.000978459
0.000973622
0.00101
0.000984843
0.000871643
0.000978065
0.000827832
0.000822736
0.000811322
0.0434717
0.0777488
0.0635275
0.00690322
0.0061763
0.000837763
0.000771377
0.00018178
0.000426667
0.000337646
0.000919076
0.0112527
0.000930492
0.000406768
0.000986977
0.000612942
0.000962556
0.000490688
0.000432878
0.000753925
0.000136085
7.42918e-05
0.00065721
0.000224512
0.000780968
5.79952e-05
0.000680105
0.000702988
0.00041847
0.000653842
0.000551523
0.000693939
9.93495e-05
0.000358069
0.000994303
5.98814e-05
0.000979051
1.23368
1.24537
1.26968
1.2819
1.28832
1.29466
1.3411
1.31729
1.16187
1.15708
1.14199
1.16562
1.19937
1.16067
1.20447
1.18374
1.09384
1.08095
1.0844
1.11358
1.14277
1.11629
0.707217
0.629089
0.515928
0.609826
0.464162
0.371109
0.619793
0.622507
0.866008
0.865328
0.881744
0.778782
0.857864
0.971626
0.917287
0.859563
0.899104
1.00573
1.01672
1.01073
1.01377
1.02527
1.04451
1.07081
1.06544
1.07142
1.07558
1.06743
1.06603
1.0686
1.07229
0.114626
0.119055
0.261878
0.337684
0.114514
0.193809
0.358439
0.363398
0.107049
0.0467931
0.000800445
0.0243118
1.24951
1.20657
1.22407
1.27353
1.26919
1.27042
1.28229
1.30071
1.32436
1.33167
1.33216
1.33814
1.3631
1.40311
1.38424
1.39971
1.41763
1.46912
1.44232
1.27731
1.28712
1.3024
1.46715
1.47016
1.46845
0.00145439
0.00145434
0.00145442
0.000525534
2.60489e-05
0.000749562
1.09862e-07
0.000928091
0.000406673
0.000659527
0.000757232
0.000881632
0.000578176
0.00101
0.000702905
0.00100987
0.000969713
4.09727e-06
0.000753117
2.27978e-09
0.00185846
0.000815407
5.98181e-92
0.000626889
0.0604128
0.087907
0.0195977
0.0615483
0.121501
0.0858204
0.210817
0.158373
0.227717
0.237633
0.243434
0.240638
0.288841
0.323289
0.362726
0.367689
0.368297
0.355351
0.381502
0.361393
0.413502
0.413857
0.435353
0.439158
0.415339
0.41864
0.539294
0.579294
0.486122
0.544953
0.598317
0.552157
0.664855
0.703538
0.806159
0.844575
0.821153
0.91389
0.966233
1.06639
1.04848
1.10688
1.08452
1.17776
1.18109
1.17408
1.20417
1.23121
1.23044
1.28559
1.24958
1.27931
1.23929
1.23997
1.27821
1.20837
1.24622
1.20982
0.000278737
3.49605e-06
0.000809039
0.000599838
0.000769361
0.000964183
0.00057408
5.96862e-07
0.00101
0.000199154
0.000130371
0.000512431
0.000259502
0.000632165
0.000562411
0.000346238
0.000384028
0.000114537
0.000508679
2.86198e-05
0.000124015
4.98173e-05
5.50518e-07
0.000224314
0.000786355
0.00103065
0.000962808
0.000115831
0.00111748
0.00111748
0.000975627
0.000995782
0.000992745
3.82214e-05
0.00101
0.000912008
0.0010004
0.000112849
0.00044385
0.000919656
4.90657e-10
0.000297927
0.00217066
1.2869e-09
0.000984734
6.11429e-05
0.0009581
0.000364482
0.00101
0.000172236
0.000998688
0.00222528
0.000971889
0.000134455
0.00096781
0.00100982
0.00127098
0.000395865
0.00100983
0.000979813
0.000465046
0.000983408
0.00101
0.000808151
0.00105064
0.00105078
0.000896998
0.000935242
0.00105076
0.00105083
0.000955402
0.000862865
0.000711032
0.000919589
0.00154791
8.1379e-05
0.00154776
0.000811374
0.00098702
0.000966821
0.00099923
0.00100984
0.00101
0.00100994
0.000799141
0.000805878
0.000827454
1.20946e-05
9.12481e-06
0
0.00090453
0.000799517
0.000430028
0.000854736
0.00127092
0.000898711
0.00100958
0.00100997
0.000846446
0.000998553
0.000946811
0.000914726
0.00101
1.36791
1.36063
1.35848
1.36937
1.39903
1.50885
1.48938
1.48602
1.51418
1.45104
0.580088
0.577292
0.514947
0.506337
0.473545
0.496322
0.409571
0.367921
0.347765
0.319435
0.29162
0.289282
0.20206
0.210794
0.0789788
0.127174
0.12389
0.000529692
0.000965684
0.000913493
0.00101
0.000949844
0.000924031
0.000585991
0.00103567
0.0530109
0.00022448
0.000919443
0.000220381
0.000959565
0.000979614
1.45787e-06
0.000368616
0.00101
0.000973661
0.000823219
0.00102176
0.000849804
0.000994621
0.000944045
0.000847483
0.00025022
0.451541
0.455024
0.493319
0.19688
0.338597
0.335085
0.372674
0.496632
0.567144
0.528701
0.437239
0.517782
0.548736
0.546057
0.468218
0.497747
0.000957717
0.000982794
0.00115176
0.00101
0.000658701
0.000823908
0.00101
0.00118728
0.000974305
0.000999846
0.000160682
0.000986054
0.000875008
0.000936631
0.000510229
0.00102211
0.000965673
0.00102225
0.00102214
0.00101
0.000771965
0.000895476
0.000833864
0.000976221
0.00092185
0.00100577
0
0
0
0.00076969
0.00107245
0.000962077
0.00100563
0.000944429
0.000473953
0.000911195
0.000978965
0.000968087
0.00097325
0.000338297
0.000895901
0.000914242
0.000926795
0.000948857
0.00102218
0.0596017
0.069709
0.0805773
0.000938099
0.000361167
0.000821648
3.45721e-05
0.000926634
0.000750894
0.00147258
0.000672714
0.000833953
0.00147231
0.000479864
0.000491909
0.000406739
0.000485044
0.000242686
0.000584634
0.000431673
0.00103631
0.000270985
0.000575667
0.000666396
0.000877991
0.000694749
4.3442e-07
0.000152455
0.00118169
0.000503139
0.00103626
0.000312228
0.000747328
0.000794048
0.000346646
0.00101
0.000942721
0.000574275
0.00118167
1.24017
1.1951
1.27097
1.23193
1.23537
1.27593
1.24857
1.31412
1.2845
1.35762
1.30897
1.29569
1.35911
1.32867
1.12417
1.12619
1.112
1.12976
1.14093
1.15682
1.15897
1.17167
1.06873
1.06465
1.09227
1.07808
1.10711
1.11715
0.709206
0.628356
0.547941
0.622659
0.429772
0.516407
0.622339
0.627496
0.856334
0.855631
0.860138
0.783792
0.946663
0.993098
0.902645
0.858517
1.00111
0.998685
1.01413
0.998353
1.04012
1.05966
1.06993
1.07209
1.07139
1.06673
1.06752
1.06716
1.06773
1.06552
0.112631
0.107787
0.278772
0.344519
0.250961
0.161096
0.402157
0.350235
0.0807233
0.108709
0.0765797
0.000841853
1.24596
1.28177
1.2662
1.29117
1.31013
1.30032
1.3313
1.34803
1.31979
1.3335
1.32348
1.3319
1.33921
1.36046
1.38337
1.40117
1.40156
1.45173
1.42873
1.47772
1.4854
1.35644
1.37281
1.48639
1.4985
0.000415286
9.18492e-05
0.000696944
0.000551543
0.000525579
9.3846e-05
0.000260243
0.000190441
0.00101
1.00585e-05
0.000927799
0.000258474
0.000705117
0.000657476
5.07035e-06
0.000780461
0.00185842
0.000443398
0.000872027
0.000687083
0.000486641
1.85227e-16
0.00100506
2.21959e-226
0.0775795
0.0781954
0.0434812
4.67852e-07
0.112579
0.162074
0.218447
0.194519
0.223154
0.210241
0.335844
0.28027
0.386532
0.377218
0.400396
0.406436
0.380435
0.434146
0.479045
0.453885
0.4427
0.465885
0.517518
0.505876
0.482979
0.525849
0.614009
0.607641
0.606529
0.624583
0.755689
0.676247
0.8439
0.868253
0.868705
0.93443
1.01034
1.08329
1.09421
1.10395
1.15267
1.19966
1.23515
1.23605
1.27259
1.24511
1.29778
1.31298
1.31468
1.312
1.31509
1.31397
1.2825
1.31684
1.28354
0.000852552
0.00011537
0.00695726
0.00102512
0.000696371
7.73581e-05
0.000686777
0.000538285
0.000914077
0.000700239
0.00101
0.00131836
0.0013189
0.00131791
0.00131807
0.00131835
0.00131925
0.000995843
0.00132014
0.00706753
0.000975338
0.000638589
0.000184916
0.00103114
0.000432152
0.0010311
0.00103101
0.000417763
0.000102351
0.00100217
0.000993637
0.000687571
0.000856518
0.000794492
0.00101
0.00103683
0.000781629
0.000959982
0.00100986
0.000887496
0.000962023
0.000976542
0.00187011
0.000998161
0.000146754
1.36216e-05
0.000607696
0.00096357
0.000988249
0.000479144
0.000826696
0.000961729
0.00100941
0.00031059
5.39429e-05
0.000987756
0.00100992
0.000817418
0.000560979
0.000728354
0.00101
0.000799183
0.000968848
0.000279366
0.000905419
0.000941315
0.000949089
0.0010008
0.000939674
0.000880492
0.000886752
0.00100949
0.00097168
0.000773375
0.000984106
0.000952799
0.000589384
0.00098992
0.000934564
0.000964099
0.000974876
0.000974485
0.00101
0.00099424
0.000905098
0.000464111
0
0
0
0
0
0
0
0
0
0
0
0
0
0
0
0
0
0
0
0.00099334
0.000893369
0.000937661
0.000812305
0.000916296
0.000434354
0.000930589
0.00106423
0.000325168
0.000811332
0.00035232
0.000885277
1.54275
1.52357
1.54581
1.53217
1.55278
1.53889
1.38714
1.39429
1.45795
1.42066
1.51913
1.55813
1.49423
1.381
1.36216
0.457567
0.447966
0.453635
0.440748
0.447546
0.380836
0.428098
0.207676
0.269183
0.135668
0.13432
0.0798543
0.0790584
0.0791435
4.53839e-05
0.000793848
0.000495047
0.000982711
0.000890638
0.079538
3.23806e-64
0.000948865
0.000967043
0.00111445
0.000801176
0.000977274
0.000835087
0.000970402
0.000977458
0.000717645
0.000335301
0.00101374
0.00101346
0.000294086
0.00101185
0.000932938
0.0004632
0.000564851
0.454042
0.446647
0.452671
0.454249
0.453737
0.165817
0.282411
0.229515
0.34261
0.404031
0.431631
0.361843
0.443035
0.394025
0.391213
0.381477
0.000954778
0.0011094
0.000821566
0.000970576
0.000973219
0.000935143
0.000790758
0.00101465
0.000147809
0.000874059
0.00101355
0.000635398
6.92933e-05
0.00074801
0.00102049
0.000508825
0.000763669
0.000835216
0.00097981
0.000946431
0.00094707
0.000983189
0.000740767
0.000908685
0.000621516
0.00100955
0.000627569
0.000973579
0.000348921
2.15212e-05
0
0
0
0
0
0.000872278
0.00107339
0.000978274
0.00107064
0.000988902
0.000872265
0.00078846
0.000950347
0.00098805
0.00100037
0.00093197
0.000953825
0.000956596
0.000997349
0.000778615
0.00101
0
0
0
0
0
0
0.0578012
0.000612814
0.000294429
0.000667405
0.000589451
0.000680509
0.00078824
0.000960083
0.000791447
0.000311719
0.00100956
0.000847585
0.000375808
0.000550644
0.00033854
0.000760208
0.000752664
0.000795758
0.000905726
0.000971356
0.000987739
6.51335e-05
0.000945614
1.79748e-05
0.000486704
0.000777319
0.000634249
0.000404769
0.000958393
0.00027789
0.000610366
1.31742e-05
0.000467482
0.00183522
0.00183011
0.000648512
0.000959699
0.000281529
0.000798649
0.00100972
0.000818552
1.1817
1.18581
1.1995
1.20741
1.21245
1.21716
1.28801
1.27864
1.26191
1.23367
1.34836
1.30158
1.28247
1.11708
1.11265
1.14252
1.12802
1.15556
1.1544
1.18718
1.16527
1.06752
1.0738
1.0996
1.08249
1.0982
1.10657
0.744604
0.664215
0.592787
0.627947
0.57258
0.487141
0.659157
0.624295
0.862822
0.860737
0.818524
0.869267
0.951993
1.00019
0.866694
0.908907
1.00203
1.00144
1.0249
1.00263
1.04403
1.06085
1.06768
1.05683
1.06784
1.06674
1.06619
1.05833
1.06662
1.06649
0.109725
0.158265
0.347946
0.327958
0.243752
0.332177
0.353858
0.419577
0.0996151
0.0903701
0.0873818
0.00451571
5.3971e-05
3.06966e-07
0.000603718
1.31513
1.31893
1.34317
1.33776
1.36332
1.36874
1.37089
1.37587
1.40663
1.39258
1.39987
1.36328
1.39978
1.40829
1.43177
1.45156
1.46498
1.46056
1.51466
1.5185
1.53535
1.51787
1.43141
1.43173
1.55162
1.54968
0.00016622
0.000334169
0.00101
7.47086e-06
0.000729054
0.00124305
0.00124369
0.000970781
0.000305007
0.000126871
0.000114933
0.00204031
0.00107481
0.000724862
0.000822227
0.000857174
0.00100232
0.000626775
0.000320397
0.000824137
8.63116e-05
0.000995528
0.000301624
0.000816039
0.000901334
0.0250788
0.0925387
0.00033451
0.199244
0.136083
0.204888
0.211785
0.305385
0.237014
0.362013
0.398409
0.391599
0.39474
0.523823
0.483957
0.45302
0.509169
0.535884
0.529027
0.521139
0.510491
0.526912
0.527385
0.603921
0.65301
0.692119
0.647189
0.693121
0.713937
0.858754
0.789965
0.880977
0.869567
0.948155
1.02127
1.10942
1.10246
1.14053
1.17739
1.25511
1.23987
1.26564
1.26687
1.29616
1.30764
1.3251
1.3171
1.32926
1.32558
1.31782
1.32779
1.31474
1.3148
0.000991453
0.000863994
0.00101
0.00067133
0.000949452
0.000657298
0.000566723
0.000789161
0.000642839
0.00131949
0.000370892
0.000930856
0.000295436
0.00131947
0.00131915
0.00131866
0.00131781
0.00131885
0.00131884