/*--------------------------------*- C++ -*----------------------------------*\
  =========                 |
  \\      /  F ield         | OpenFOAM: The Open Source CFD Toolbox
   \\    /   O peration     | Website:  https://openfoam.org
    \\  /    A nd           | Version:  8
     \\/     M anipulation  |
\*---------------------------------------------------------------------------*/
FoamFile
{
    version     2.0;
    format      ascii;
    class       volScalarField;
    location    "12060";
    object      nut;
}
// * * * * * * * * * * * * * * * * * * * * * * * * * * * * * * * * * * * * * //

dimensions      [0 2 -1 0 0 0 0];

internalField   nonuniform List<scalar> 
526318
(
3.17574e-05
0.000136796
0.000116735
0.000130864
0.000100846
0.000123894
0.000231781
0.000182145
4.66505e-05
0.000109139
5.26417e-05
0.000159884
9.81708e-05
0.000107331
4.63564e-05
9.05671e-05
7.89504e-05
6.67642e-05
4.27803e-05
8.97551e-05
0.000117399
8.32184e-05
0.000226904
0.000200404
0.000111824
7.83945e-05
0.000142893
0.000259451
0.000170201
0.000163899
0.000146704
0.000164332
0.000108106
0.000137058
9.47875e-05
8.32445e-05
4.90323e-05
3.09359e-05
6.19848e-05
4.41903e-05
0.000112764
8.28818e-05
6.69338e-05
0.00010272
0.000142452
0.0001761
8.7449e-05
3.59463e-05
0.000148597
0.0001558
0.000150657
7.34647e-05
1.6996e-05
0.00012459
0
0.000128362
3.9543e-05
9.56119e-07
2.43932e-05
0.000124568
0.000159969
0.000123427
0.000243804
7.16042e-05
7.7133e-05
0.000133846
6.42971e-05
0.000186602
0.000155326
3.74692e-05
0.000192535
8.72858e-05
0.000209624
0.000143107
7.14217e-05
7.0688e-05
0.00019696
0.000243065
0.000180764
0.000214252
0.000159824
0.000174104
0.000141274
0.000258761
0.000135567
3.48224e-05
9.71592e-05
4.07888e-05
2.26681e-05
0.000103545
3.84081e-05
6.43354e-05
4.458e-05
6.76858e-05
1.88391e-05
5.25225e-05
2.0923e-05
3.31444e-05
3.4025e-05
2.88432e-05
0
0
0
0
0
0
0.000177135
7.56989e-06
0.000290103
8.34628e-05
5.83186e-05
0.0002576
0.000237372
7.53759e-05
2.89467e-05
0.000180297
0.000140181
8.94428e-06
0.000120975
2.68049e-05
4.94041e-05
3.96008e-05
4.24056e-05
7.95638e-05
5.96541e-05
7.15084e-05
3.27506e-05
3.59794e-05
4.43979e-05
5.63383e-05
7.09412e-05
4.28858e-05
3.06633e-05
2.79889e-05
5.01779e-05
4.19617e-05
5.88322e-05
3.00283e-05
2.58528e-05
2.22969e-05
9.39719e-06
8.94724e-06
2.48557e-05
3.78053e-05
1.72438e-05
2.58897e-05
3.98391e-05
3.03515e-05
3.08248e-05
4.68613e-05
3.8365e-05
1.28511e-05
2.48616e-05
9.45437e-06
2.75208e-05
3.4885e-05
2.70892e-05
3.11829e-05
2.44588e-05
2.53303e-06
1.63887e-05
1.41836e-05
3.34506e-05
0.000108705
0.000117178
3.95625e-05
5.29221e-05
6.20475e-05
6.57939e-05
2.16938e-05
7.46614e-05
0.000139213
0.000207802
0.000128568
0.000222806
9.6223e-05
3.60147e-05
4.34052e-05
1.12691e-05
4.35998e-05
7.05716e-05
5.63517e-05
5.78979e-05
6.14778e-05
4.03426e-05
5.99681e-05
2.5998e-05
6.93108e-05
5.21211e-05
3.78839e-05
8.55113e-05
4.2963e-05
4.76997e-05
6.43706e-05
5.84468e-05
4.67046e-06
7.82945e-05
1.73024e-05
4.86323e-05
1.68665e-05
5.62514e-05
5.54776e-05
1.29135e-05
5.20435e-05
1.03111e-05
4.40863e-05
3.1621e-05
3.6937e-05
6.39903e-06
7.73068e-05
0.000142899
6.29848e-05
0.00012971
9.49076e-05
1.54386e-05
0.000101883
6.78375e-05
2.67608e-05
0.00012631
7.34107e-05
9.03395e-05
0.000108029
9.91925e-05
7.76976e-05
7.93186e-05
0.000144336
0.000110668
8.57992e-05
0.00012513
0
0
0
7.50383e-05
0
0
0
0
0
0
0.000141358
9.05891e-05
0.000152286
8.90378e-05
0.00017823
0.000181524
0.000216128
0.000200728
0.000248445
0.000230078
0.000123095
0.000135063
8.54505e-05
0.000121881
1.99815e-05
9.703e-06
6.29148e-05
8.72802e-05
1.40878e-05
2.97087e-05
1.15341e-05
4.69464e-05
0
0
0
0
0
0
0
0
0.000108949
0.000136547
0.00019932
0.000164064
8.1862e-05
0.000209164
0.000142463
0.000156506
0.000142009
0.000159602
0.000126513
8.69933e-05
5.20349e-05
2.90832e-05
7.50519e-06
6.4729e-05
3.03276e-05
3.73268e-05
2.29802e-05
3.06994e-05
4.9844e-06
1.77735e-05
1.27139e-05
1.84704e-05
2.57955e-06
4.62864e-06
2.91866e-05
8.17469e-05
0.000130574
7.77036e-05
8.88384e-05
2.22564e-05
3.07993e-06
3.27227e-06
7.72562e-06
6.2447e-05
7.59985e-06
2.19957e-05
9.79133e-06
1.00272e-05
2.11262e-05
0
1.14067e-07
0
0
0
0
2.65314e-05
7.53718e-05
7.33851e-07
1.74643e-05
0.000125851
8.05178e-05
4.38834e-05
6.76472e-05
0.000103676
0.000144868
0.000104908
8.27606e-05
0.000199443
0.000154237
0.000190988
0.000121117
3.73799e-05
2.16934e-05
5.20364e-05
3.81406e-05
2.69828e-05
2.23982e-05
4.02126e-05
4.23172e-05
5.59177e-05
9.48425e-06
5.04897e-05
5.75562e-05
3.4673e-05
5.23918e-05
2.07662e-05
2.44508e-05
4.3622e-05
3.5231e-05
3.3469e-05
5.26976e-05
3.3578e-05
7.64912e-05
5.22548e-05
7.96404e-05
2.96174e-05
4.51523e-05
4.15137e-05
8.13242e-05
1.87842e-05
3.44013e-05
0.00012573
0.00010614
6.80592e-05
8.52876e-06
5.02993e-05
0.00011221
6.77859e-06
3.3749e-05
0.000101482
5.42025e-05
6.67906e-06
5.62125e-05
9.94232e-05
0.000102785
9.31291e-05
3.07879e-05
2.81302e-05
5.56607e-05
0.000101895
0.0001223
5.67218e-05
0.000147938
8.03812e-05
0.000164924
7.61748e-05
8.26741e-05
3.77805e-05
8.66759e-06
2.90988e-05
5.72808e-05
0.000118898
2.36279e-05
0.00015544
0.000147546
0.000171417
4.85771e-05
8.6669e-05
0
0
0
0
0
0
0
0
0
0
0
0
0
0
0
0
0.000134507
0.000114434
3.27876e-05
9.78736e-05
0.000161762
0.000179825
0.000178788
0.000161884
0.000136433
3.42474e-05
3.10657e-05
6.57953e-05
6.82882e-05
1.63832e-05
5.90826e-05
9.90575e-06
3.13051e-05
3.01607e-05
2.865e-05
2.66147e-05
3.01137e-05
4.39649e-05
0
6.78526e-10
2.02915e-10
0
0
0
0
2.4758e-10
6.95712e-10
6.54221e-10
0
0
0
0
0
0
0
0
0
0
0
0
0
0
5.30418e-05
0
0.000194038
0.000173868
0.000135957
0.000149094
0.00014071
0.000155696
0.00018108
0.000134746
0.000190264
5.10123e-05
0.00014534
0.000111876
1.50571e-05
4.84542e-05
2.58478e-05
4.70483e-05
1.47806e-05
4.10317e-05
2.46596e-05
1.50216e-05
2.84513e-05
8.18836e-06
1.79042e-05
1.32744e-05
0
0
2.55993e-05
5.76498e-06
0
2.85038e-05
1.34591e-05
1.67436e-05
0
0
0
0
0
0
0
0
0
0
0
4.52659e-06
8.90807e-05
6.08316e-05
8.83917e-05
5.39073e-05
6.54447e-05
9.005e-05
8.28499e-05
3.99732e-05
8.01948e-05
5.99069e-05
6.09074e-05
2.74594e-05
1.5122e-05
4.63667e-05
0.000111244
3.25732e-05
7.53331e-05
7.10776e-05
0.00010457
9.9991e-05
0.000175429
0.000141973
0.000139884
0.000144891
0.000213304
5.2777e-05
5.0253e-05
8.14664e-05
4.94949e-05
1.744e-05
3.47e-05
3.19427e-05
0
0
2.00497e-05
3.71329e-06
5.45618e-05
8.72693e-05
4.15566e-05
4.76142e-05
3.34548e-05
1.90006e-05
4.94286e-05
4.54629e-05
4.27404e-05
2.80483e-05
4.29697e-05
5.68798e-05
6.24512e-05
9.27133e-05
3.84382e-05
3.27718e-05
6.5571e-05
9.35788e-05
6.02421e-05
9.43865e-05
3.74221e-05
5.81232e-05
6.70039e-05
4.24241e-05
7.35354e-05
6.42939e-05
2.97039e-05
7.39909e-05
4.24884e-05
9.95437e-05
7.29073e-05
4.5302e-05
4.93563e-05
9.94466e-05
6.65553e-05
9.40765e-05
5.86312e-05
5.18469e-05
9.396e-05
0.000214451
6.3996e-05
9.67207e-05
8.14749e-05
2.58953e-05
7.50066e-05
4.81427e-05
0.000118738
5.01638e-05
0.00011436
0
0
0.000102429
0.00023564
0.000400178
0.000188621
0.000170512
0.00018943
3.90109e-05
7.23404e-05
0
0
0
0
0
0
0
0
0
0
0
0
0
0
0
0
0
0
0
0
0
0
0
0
0
0
2.23157e-09
0
3.1894e-10
0
9.29512e-10
2.41426e-09
0
0
0
0
0
0
0
0
0
0
0
0
0
0
5.46902e-05
7.56792e-05
4.96937e-05
0.00012978
0.000103159
0.000116706
0.00012892
3.29994e-05
1.57561e-05
9.76656e-05
5.65323e-05
2.48449e-05
1.34375e-05
2.57676e-05
2.38795e-05
2.63151e-05
4.02245e-05
1.33139e-05
3.2967e-05
4.30727e-05
2.2631e-05
1.24107e-05
0
0
0
0
0
0
0
0
4.96468e-09
0
0
0
0
0
0
0
0
0
0
0
0
0
0
0
0
0
0
0
0
0
0
0
0
0
0.000111525
4.68401e-05
5.12e-05
0.000215914
0.000123696
7.27389e-05
0.000202583
7.51881e-05
9.28417e-05
0.000177825
0.000269299
8.41728e-05
0.000175389
0.000162508
8.38607e-10
0
0
0
0
0
0
0
0
0
0
0
0
0
0
0
0
2.24303e-05
3.05566e-05
5.26542e-05
1.77415e-05
4.57589e-05
8.91162e-06
4.19441e-06
1.00884e-05
0
0
0
0
0
0
0
0
0
5.88903e-06
0
0
0
0
0
0
0
0
0
0
0
0
0
0
8.96141e-05
1.66104e-05
0.000100793
0.000110775
3.41412e-05
8.92321e-05
0.00014888
0.000143615
0.000125823
0.000259393
5.18776e-05
8.35146e-05
5.45474e-06
7.82856e-05
4.96221e-05
5.40701e-05
7.87426e-05
3.88183e-05
0
3.50474e-05
5.9913e-05
0
1.45331e-05
0.000127749
8.2779e-05
0.0001291
0.000175334
9.33331e-05
0.000157932
4.27571e-05
0.000170864
0.000105908
0
7.64645e-05
1.3122e-05
2.54357e-05
0
0
0
0
0
1.31519e-05
2.8639e-05
4.11224e-06
1.5382e-05
2.39118e-05
2.97608e-05
3.76979e-05
7.50886e-05
6.43251e-05
6.18329e-05
4.68467e-05
3.76081e-05
7.04357e-05
2.13648e-05
5.51707e-05
3.22187e-05
5.10599e-05
2.66687e-05
6.5241e-05
6.5261e-05
7.0068e-05
8.06847e-05
6.08622e-05
5.2782e-05
8.73351e-05
9.44636e-05
6.80731e-05
7.42211e-05
9.84488e-05
5.18974e-05
0.000119221
5.56824e-05
0.00014515
8.61653e-05
0.000147574
0.000105752
0.00015315
0.000140073
0.00015975
0.000174452
0.00016602
0.000139975
0.000186018
0.000229075
0.000245408
0.000294399
0.000272682
0.000216317
0.000224108
0.000230349
0.000245816
0.000238232
0.000268568
0.000273831
0.000261514
0.000239668
0.00024752
0.000233516
0.000265571
0.000266511
0.000292665
0.00022062
0.000352016
0.000228458
0.000386655
0.000265657
0.000411705
0.000337122
0.000446266
0.000366773
0.000404379
0.000418601
0.000430431
0.000458689
0.0004222
0.000455788
0.000445726
0.000489809
0.000464127
0.000453672
6.9575e-05
1.62934e-05
0.0001519
9.01886e-05
8.53434e-05
8.14329e-05
0.000130723
1.30617e-05
4.47148e-05
0
0
0
0
0
0
0
0.000155918
0
1.78082e-06
0
0
0
0
0
0
0
0
0
0
0
0
0
0
0
3.92559e-09
0
0
0
0
0
0
0
0
2.9481e-09
0
0
0
0
0
0
0
0
0
0
0
0
0
0
0
0
0
0
0
0
0
0
0
0
8.96524e-10
3.93637e-09
0
7.96498e-10
0
0
0
0
0
0
0
0
0
0
0
0
0
0
0
0
0
0
0
0
0
0
0
5.06366e-05
0.000104031
0.000181382
4.17223e-05
6.18046e-05
4.34674e-05
0.000126731
2.2244e-05
8.038e-05
2.35367e-05
4.29502e-05
2.37933e-06
4.15303e-05
1.19364e-05
3.3252e-05
4.26844e-05
3.52744e-05
3.42222e-05
2.34347e-05
4.67285e-05
5.19924e-05
3.8474e-05
0
0
9.16063e-09
5.44413e-09
0
0
0
0
3.13683e-09
0
0
0
0
0
0
0
0
0
0
0
0
0
3.73529e-09
3.09864e-09
0
0
0
0
1.6386e-05
0
3.9727e-05
0.000121112
0.000146029
0.000145161
0.000188246
0.000189783
0.000109033
0.000248449
0.000197501
0.000251083
0.000254625
0.000133904
0.000135746
0.000189617
2.31706e-08
0
0
0
0
3.4787e-11
0
0
1.29923e-11
0
0
0
0
0
0
0
0
0
0
0
0
0
0
0
4.49202e-07
6.63051e-07
4.29311e-05
4.03192e-05
2.2589e-05
3.57797e-05
0
2.11831e-06
0
0
0
1.81748e-09
0
0
0
0
0
0
0
0
2.78424e-08
6.0626e-08
0
0
0
0
0
0
0
0
0
0
3.9764e-10
0
0.000173909
0.000237493
7.33632e-05
9.26214e-05
5.06658e-05
7.49049e-05
0.000144448
0.000136511
0.000306255
0.000253325
0.00027559
0.000254333
0.000254399
0.000278222
0.000301229
0.000237025
0.00030297
0.000358922
0.0003844
0.000404612
0.000409965
0.000430852
0.000478476
0.000415939
0.000456294
0.000526414
0.000476756
0.000475894
0.000457045
0.000549435
2.33395e-05
2.03827e-05
2.72215e-05
6.98056e-05
7.39354e-05
3.61857e-05
3.34692e-05
6.11944e-05
0
2.64351e-05
0
3.80685e-05
0
3.26163e-05
0.000138542
0.000189509
0.000138611
0.000104878
3.14385e-05
0
0
0
0
0
0
0
0
0
0
0
0
0
4.15607e-06
0
1.46492e-05
2.64675e-05
3.24296e-06
7.98141e-05
5.1941e-05
8.19817e-05
7.44343e-05
4.33755e-06
4.84218e-05
1.2815e-05
4.65009e-05
5.94625e-05
6.64852e-05
6.97394e-05
8.97697e-05
0.00011779
0.000107626
8.37415e-05
9.68122e-05
8.8552e-05
6.99642e-05
0.000130455
0.000119845
6.92847e-05
6.5079e-05
0.000142539
0.000111002
0.000118204
5.00985e-05
0.000121811
6.85047e-05
0.000198118
0.0001815
0.00017151
0.000165804
0.000146781
0.000194514
0.000172075
0.000224993
0.000201281
0.000170831
0.000246791
0.000272797
0.000225345
0.000260571
0.000267253
0.000267845
0.000327497
0.000263831
0.000353248
0.000316519
0.000389172
0.000375413
0.000376572
0.000427955
0.000408802
0.000425665
0.00042129
0.000453339
0.000418777
0.000404349
0.000389941
0.00042127
0.000397703
0.000403994
0.000421631
0.000390113
0.000408775
0.000426149
0
0
1.58426e-05
0.000108617
0
5.83394e-05
0.00016364
8.39369e-05
0.000109764
0
0
0
0
9.05291e-07
0
0
0
0
0
5.03872e-09
3.74936e-09
0
0
0
0
0
0
0
0
4.57184e-10
6.50608e-09
0
0
0
4.72489e-09
0
0
0
0
0
0
0
3.21585e-09
0
0
0
0
0
0
0
0
2.58491e-11
0
0
0
0
0
0
0
0
0
0
0
0
0
0
0
0
0
0
0
0
0
0
0
0
0
0
0
0
0
0
0
0
0
2.78526e-05
0.000117283
0.000144639
5.11517e-05
4.08242e-05
0.000100959
2.23614e-05
9.46459e-05
3.44644e-05
7.18164e-05
2.00298e-05
6.33993e-05
1.79353e-05
7.81319e-05
1.60082e-05
2.03689e-05
2.45987e-05
3.48547e-05
1.26032e-05
3.94336e-05
7.71088e-05
4.81133e-05
5.11977e-08
0
6.01312e-09
0
0
0
0
0
0
0
0
0
0
0
0
0
0
0
0
0
0
0
0
0
0
0
0
0
4.75773e-05
0
9.02695e-05
4.39653e-05
7.51685e-05
0.000128863
0.000117944
0.000107415
0.000216727
0.000122546
0.000206166
0.000140494
0.000104796
0.000165365
0.000103803
0.000198133
0
0
0
0
0
0
0
0
0
0
0
0
0
0
0
0
0
0
0
0
0
0
3.30336e-07
0
0
0
0
0
0
0
0
1.61371e-05
8.41314e-06
9.85007e-07
0
0
0
0
0
2.86197e-05
1.17122e-05
1.43588e-06
0
0
0
0
4.27809e-10
6.8561e-10
0
0
0
0
0
0
0
0
0
0
0
0
0
0
0
0
0
0
0.0002527
0.000290605
0.000229742
0.000256482
0.000357159
0.000287534
0.000331983
0.000312243
0.000342875
0.000345985
0.000239466
0.000384886
0.000305599
0.000303514
0.000357884
0.000426572
0.000392412
0.000406061
0.000277117
0.000390409
0.000353263
0.000346766
0.000212272
0.00032549
0.00029238
0.000281855
0.000231029
0.000297659
0.000278412
0.000479133
0.000464761
0.000417397
0.000381425
0.000388859
0.000405373
0.000173946
0.000125443
0.000158696
0.000139693
4.02586e-05
6.25909e-05
0.000186379
0.000189481
0.000272988
0.000269083
0.000228961
0.000267777
0.000277004
0.00026493
0.000365095
0.000298176
0.000371052
0.000376288
0.000385778
0.000423537
0.000425949
0.000423719
0.000451227
0.000422278
0.000585084
0.000483781
0.000483574
0.000443471
2.75369e-05
5.33498e-05
4.24263e-05
6.0688e-05
2.75126e-05
0.000112968
2.58512e-05
2.94242e-05
6.79457e-05
0
0
0.000353537
0.000346625
0.000324041
0.000265613
0.000317094
0.000266119
0.000239961
0.00025427
0.000249662
0.000329175
0.000306737
0.000308433
0.000314516
0.000336845
0.00026879
0.00035093
0.000325907
0.000227726
0
0
1.16134e-09
0.000116203
1.60999e-06
8.28447e-05
4.60892e-05
0
8.09681e-10
0
2.16156e-09
3.25608e-09
0
0
0
0
0
0
0
0
0
0
2.18809e-09
0
1.96241e-05
0
5.12496e-06
2.4225e-05
5.80563e-05
1.35656e-05
2.91113e-05
5.69745e-05
5.56155e-05
7.6379e-05
5.44791e-05
8.19327e-05
5.95771e-05
0.000117515
9.96128e-05
9.23033e-05
0.000132212
0.000107153
0.000106531
0.000120034
8.46518e-05
0.000129467
0.000107713
0.000135706
0.000117117
0.000124014
4.38649e-05
0.000136593
9.35224e-05
8.38701e-05
0.000146025
0.000170978
0.000195513
0.000123945
0.000187798
0.000177003
0.00024431
0.000196909
0.000199738
0.0003079
0.000317957
0.000228096
0.000249651
0.000235398
0.000265447
0.000302374
0.00034399
0.000285422
0.000307099
0.000346159
0.000351046
0.000322264
0.000332975
0.000321177
0.000333285
0.00036934
0.00036222
0.000325209
0.000356172
0.000319803
0.000337839
0
0
8.49572e-07
0
0
0
0
0
0
0
0
0
0
0
3.33947e-09
0
0
0
0
7.77283e-09
0
0
0
0
0
0
0
0
8.11475e-10
9.19305e-10
1.32884e-08
0
1.35893e-10
0
0
0
0
0
0
0
0
0
3.00965e-09
0
0
0
0
0
0
0
0
2.65016e-07
0
0
0
0
0
0
0
0
0
0
0
0
5.41688e-10
0
0
0
0
9.90202e-10
0
0
0
0
0
0
0
0
0
0
0
0
0
0
0
0
0
0
0
2.38481e-09
0
0
0
0
2.71584e-09
0.000358181
0.000335807
0.000288976
0.000319375
0.000405698
0.000278263
8.44808e-05
6.15312e-05
5.9992e-05
8.06987e-05
4.10238e-05
7.15188e-05
7.79709e-05
1.03855e-05
5.30776e-05
2.23106e-05
5.90244e-05
1.44241e-05
9.62656e-05
5.69078e-05
3.7644e-05
2.72946e-05
1.67902e-05
5.6884e-05
1.4384e-05
0
0
0
0
0
0
0
0
0
0
0
0
0
0
0
0
0
0
0
0
0
0
0
0
0
0
0
2.28285e-05
6.75814e-05
3.81456e-05
4.68011e-05
4.56e-05
1.63168e-05
1.53576e-05
3.92477e-05
0.00012751
6.65216e-05
8.31916e-05
6.71553e-05
0.000156056
0.000165501
3.92158e-05
0.000113665
0
2.8232e-10
0
0
0
0
0
0
0
0
0
0
0
0
0
0
0
0
0
0
0
0
0
0
0
0
0
0
0
0
0
0
0
0
0
0
0
4.22696e-06
1.31689e-05
2.358e-05
1.25877e-06
1.28828e-06
0
0
0
0
0
0
2.11371e-06
0
0
0
0
0
0
0
0
0
0
0
0
0
0
0
0
0
0
0
0
0
0
0
0
0
0.000244221
0.000225007
0.000245423
0.000259704
0.00032659
0.00036189
0.000456357
0.000535399
0.000430589
0.000445405
0.000431505
0.000423875
0.000401712
0.000378179
0.000288352
0.000259579
0.000477922
0.000495626
0.000386784
0.000420565
0.000414066
0.000392065
0.000152374
0.000152063
0.000178361
0.000212842
7.71327e-05
6.96681e-05
0.000232088
0.000182185
0.000297756
0.000266368
0.000252318
0.000249701
0.000240452
0.000317538
0.000361098
0.000262911
0.000373564
0.000367899
0.00038059
0.000395588
0.000411577
0.000378584
0.000455615
0.000439757
0.000367705
0.000345441
0.000406204
0.000454169
0.000568737
0.000434366
0.000390915
6.23567e-05
2.70824e-05
7.56939e-05
5.84805e-05
8.12927e-05
3.97902e-05
8.41107e-05
0.000160076
3.49662e-05
2.15011e-05
0
2.39391e-05
0.000246247
0.000272398
0.000272775
0.000224012
0.000244311
0.000215668
0.000233125
0.000221251
0.000256368
0.00035893
0.000283594
0.000350617
0.000350113
0.00024282
0.00036024
0.000282962
0.000279378
0.000151381
0.000312703
0.000182781
0.000187546
0.000265242
0.000245932
0.000310032
0.000242079
1.75217e-09
4.25514e-09
2.38871e-09
0
0
0
0
0
0
0
0
0
0
0
0
0
0
0
0
0
2.96035e-09
0
0
0
4.39514e-05
7.1203e-05
4.1495e-05
9.99271e-05
1.62515e-05
2.25292e-05
9.65523e-05
4.47432e-05
5.54543e-05
5.42169e-05
9.04932e-06
0.000122013
0.000153002
8.0122e-05
0.000165332
0.000115693
0.00014894
0.000159291
0.000166272
0.000144952
0.000173489
0.000129759
0.000174582
0.000174687
0.000135671
0.00015093
0.000160926
0.000132149
0.000186484
0.000141767
0.000238307
0.000140792
0.000317041
0.000200747
0.000303151
0.000379075
0.000258866
0.00039323
0.000256951
0.000309252
0.000254949
0.000273787
0.000275131
0.000286863
0.000344348
0.000362798
0.000292401
0.000294453
0.000306452
0.000230717
0.000259375
0.000201852
0.000273308
0.000291926
0.000210499
0.000267813
0.000234686
0.000261087
0
0
0
0
0
0
0
0
0
0
0
0
0
0
0
0
0
0
0
0
0
0
0
0
0
1.84946e-10
0
0
2.12408e-09
5.58503e-10
0
0
0
0
0
0
0
0
0
0
0
0
2.95655e-07
0
0
0
0
0
0
0
0
1.19989e-07
0
0
0
0
1.30754e-09
0
0
0
0
0
0
0
3.43524e-10
5.53842e-10
0
0
9.49153e-10
1.29508e-10
0
0
0
0
3.21153e-09
0
4.38487e-09
0
0
0
0
0
0
0
0
0
0
0
0
0
0
0
0
0
1.47048e-09
0
0
0
0
0
0
0
0
0.000223799
0.000134613
0.000282648
0.000359331
0.000209026
6.93921e-05
0.000107225
0.000276651
0.000250196
0.000282623
2.99881e-05
6.81913e-05
3.96728e-05
2.39301e-05
5.21658e-05
4.67588e-05
4.6145e-05
4.39893e-05
4.48041e-05
4.04744e-05
2.20045e-05
6.06769e-05
3.31314e-05
2.33657e-05
1.49179e-05
3.60725e-05
1.71322e-05
0
0
0
0
0
0
0
3.85103e-10
9.25391e-06
0
0
0
0
0
0
0
0
0
0
2.06074e-11
0
0
0
0
0
4.71268e-05
4.71019e-05
1.45653e-05
5.54522e-05
5.18093e-05
0.000121146
6.21845e-05
5.20368e-05
6.24949e-05
4.15874e-05
8.45543e-05
0.000120319
7.41598e-05
9.23599e-05
8.03543e-05
0.000114272
0
0
2.66007e-10
0
0
0
0
4.55296e-11
0
0
0
0
0
0
0
2.36145e-09
0
9.68576e-10
1.72904e-09
0
0
0
0
0
0
0
0
0
0
0
1.67441e-09
0
0
0
0
0
0
0
0
0
0
0
0
0
8.93441e-10
3.05803e-05
1.609e-05
2.61393e-05
0
0
0
0
0
0
2.25055e-10
0
0
9.36539e-10
0
0
0
0
0
0
0
6.92328e-10
0
0
0
0
0
0
0
8.26765e-10
0
9.92997e-10
0
0
0
0
0
0
0
1.09547e-09
8.30866e-05
0.000197998
0.000327801
0.000127119
0.000282311
0.00036346
0.000320116
0.000177774
0.000237194
0.000291943
0.000170826
0.0002308
0.000306851
5.4851e-05
0.000438339
0.000429006
0.000430608
0.000467355
0.0003926
0.000413907
0.000258707
0.000200056
0.000475562
0.000507813
0.000414831
0.000409928
0.000417451
0.00044074
0.000147057
0.00024538
0.000126369
0.000152274
4.55893e-05
1.45587e-05
0.000233842
0.000200806
0.000257293
0.000310531
0.000182931
0.000327195
0.000363587
0.000385854
0.000396083
0.00030106
0.000432385
0.00038995
0.000431226
0.000398963
0.000379533
0.000402373
0.000257308
0.000431365
0.000377699
0.000309398
0.000528073
0.00048527
0.000252391
0.000411323
3.67446e-05
5.96569e-05
6.78323e-05
4.05814e-05
7.24078e-05
0.000102964
0.00016273
8.67025e-05
7.52391e-05
7.4076e-05
4.22338e-05
0
0.000179106
0.000214602
0.00016826
0.000156076
0.000185207
0.000175877
0.000152629
0.000153563
0.000211365
0.000302727
0.0002477
0.000291968
0.000286574
0.000317137
0.000286068
0.000346609
0.000208588
0.000142391
0.000292464
0.000212209
0.000269014
0.000247313
0.000213401
0.000220653
9.02181e-05
0
0
0
0
0
0
0
0
0
0
0
0
0
0
0
0
2.97367e-09
0
0
0
0
0
0
0
3.4854e-05
5.76021e-05
3.01597e-05
0
3.50536e-05
4.73993e-05
7.46918e-05
8.18153e-05
6.30633e-05
3.3631e-05
0.000104776
9.19808e-05
0.000138177
0.000119209
0.000179449
0.000141025
0.000159976
0.000197327
0.000178085
0.000133899
0.000192031
0.000201806
0.000226448
0.000200099
0.000247063
0.000162938
0.000230716
0.000220977
0.000229248
0.000274131
0.000281718
0.00033325
0.000402579
0.000362966
0.000436944
0.000359624
0.00039294
0.000367737
0.000360014
0.000346359
0.000347901
0.000358713
0.000304514
0.000345001
0.00030228
0.000251505
0.000157297
0.000199683
9.66791e-05
0.00019095
6.52623e-05
0.000200806
0.000296801
0.000139058
0.000135318
0
0
4.59335e-07
4.16964e-11
0
0
0
0
0
0
0
3.68831e-09
1.06191e-09
4.44659e-09
6.9953e-09
2.71371e-09
3.72179e-09
0
4.58297e-09
1.47049e-07
0
0
0
1.27294e-09
0
1.31075e-09
2.01848e-09
0
0
0
0
0
0
0
0
4.31437e-11
0
0
0
0
0
0
2.15616e-07
0
0
0
0
0
0
0
0
0
0
0
0
0
0
0
0
0
0
0
0
0
0
0
0
0
0
0
0
0
0
0
0
0
0
0
0
0
0
0
0
0
0
0
0
0
0
0
0
0
0
0
0
0
0
0
0
0
0
0
0
0
0
0
0
0
0
0
0
0
3.12776e-11
0
0
0
0
8.45608e-05
0.000288456
0.000188921
0.000312964
3.43849e-05
6.55583e-05
0.000473015
0.000172338
0.000374832
0.000157682
0.0002778
0.000129952
0.000365055
0.0001948
0.000175984
5.71044e-05
4.16101e-05
1.72881e-05
4.21254e-05
3.17392e-05
9.68009e-05
1.55435e-05
6.04098e-05
2.19209e-05
4.37205e-05
4.39722e-05
9.49419e-06
1.64989e-05
2.38481e-05
0
0
0
0
0
4.27849e-05
0
0
0
9.93006e-09
0
0
0
0
0
0
0
2.69296e-09
7.4149e-10
0
6.57358e-10
0
0
0
1.60768e-05
4.35316e-05
8.49067e-05
7.61087e-05
5.32667e-05
8.4515e-05
1.87615e-05
5.21383e-05
3.44434e-05
8.33719e-05
7.97339e-05
5.23772e-05
0.000101797
3.5399e-05
7.71876e-05
5.86468e-05
0
8.68068e-10
0
0
0
0
0
3.09749e-11
0
0
3.49601e-11
0
0
0
2.26968e-10
0
0
0
0
0
0
0
0
0
0
0
0
0
0
0
0
0
0
0
0
0
2.69165e-09
0
3.99957e-09
0
0
0
0
0
0
0
0
0
0
0
0
0
0
0
0
0
0
3.0103e-05
0
0
0
0
0
0
0
0
0
0
0
0
0
0
0
0
0
0
0
0
0
0
0
0
0
0
0
0
0
0
0
0
8.19603e-09
7.61851e-09
0
0
0
0
0
0
0.000156864
0.000239819
0.000276824
0.00022761
0.00071088
0.000269895
0.000780785
0.000218223
0.000220635
0.000365905
0.00022944
0.000183842
0.000236194
0.000441651
0.00039174
0.000434071
0.000428375
0.000362265
0.000393604
0.000567038
0.000331323
0.000534903
0.000479295
0.000440977
0.000428836
0.000420144
0.000391054
0.000188113
0.000308896
0.000130328
0.000102443
3.72303e-05
0.000214081
0.000196398
0.000163979
0.00033218
0.000280707
0.000454525
0.000225528
0.000334093
0.000392297
0.00028524
0.000338622
0.000352952
0.00034189
0.000360807
0.000336233
0.000276082
0.000364801
0.000284002
0.000127916
0.00027592
0.000336086
0.000390522
0.000467568
0.00020167
0.000318491
5.17562e-05
5.15595e-05
8.35577e-05
0.000128004
7.15472e-05
4.48186e-05
9.74356e-05
0.000115297
2.16088e-05
3.20111e-05
6.08751e-05
1.57636e-06
0
0
0
0.000272955
7.78911e-05
0.000132494
9.28634e-05
9.64145e-05
0.000175178
0.000110976
0.000124011
0.000224717
0.000217507
0.000255351
0.000313782
0.000269517
0.000330108
0.000215142
0.000251198
0.000299191
0.000243914
0.000233011
0.000156817
0.000289519
0.000245201
0.000262816
0.000244012
0.000205168
0.00017104
0
0
0
0
0
1.4805e-09
1.88478e-09
0
0
0
0
3.77295e-09
1.32113e-09
0
0
0
0
0
0
0
0
0
0
0
0
1.19584e-05
1.8063e-05
0
6.29943e-05
0.000108055
2.73818e-05
0.000104541
0.000139844
2.13881e-05
0.000131006
0.000164953
0.000183131
0.000173426
0.000245819
0.000259057
0.000221705
0.000272186
0.000216323
0.000190768
0.00019107
0.000301631
0.000288982
0.000208227
0.000264185
0.000294259
0.000397603
0.000320549
0.000445526
0.000346148
0.000479697
0.000393445
0.000441039
0.000477747
0.000434528
0.000485992
0.000431331
0.000480106
0.000438043
0.000430839
0.000390007
0.000399166
0.000273264
0.00027785
0.0001021
0.000155675
8.1863e-05
0.000133327
8.84847e-05
0.000148798
0.000131726
0.00011084
0.000147398
0.000123001
0
0
0
0
0
0
0
0
0
4.36326e-10
0
0
0
8.92532e-09
4.46706e-09
8.74462e-09
2.95719e-09
3.73192e-09
4.03741e-09
0
0
0
0
0
0
0
0
0
0
0
0
0
0
0
0
5.61142e-13
0
0
0
3.60682e-08
0
0
0
0
0
0
0
0
0
0
0
0
0
0
0
0
0
0
2.68999e-08
0
0
0
0
0
7.92747e-10
6.03641e-10
1.42537e-09
0
0
0
0
0
0
0
0
0
0
0
0
0
0
0
0
0
0
0
0
0
0
0
0
0
0
0
0
0
0
0
0
0
0
0
0
0
0
0
0
0
2.67167e-09
0
7.29661e-10
0
0
5.49221e-10
0
0
9.18548e-05
0.000161371
0.000314369
8.05319e-05
5.67136e-05
0.000316619
0.000186529
0.000735023
6.40863e-05
7.53653e-05
0.000667572
0.000761639
0.000215503
0.000211023
0.000525138
0.000181416
2.23256e-05
8.83463e-05
0.000281673
9.60629e-05
1.88903e-05
5.81411e-05
4.61728e-05
5.80417e-05
8.78859e-05
5.07668e-05
3.69395e-06
5.86939e-05
3.17723e-05
3.5811e-05
1.67116e-05
7.58398e-06
1.03227e-05
0
0
0
7.0964e-05
0
0
0
0
0
0
0
0
0
0
0
0
0
0
0
0
2.09899e-09
0
0
0
4.4149e-05
3.52096e-05
4.10492e-05
9.49466e-05
2.74385e-05
8.1455e-05
5.32665e-05
6.19043e-05
5.40044e-05
0.000113045
4.49687e-05
9.52105e-05
3.83682e-05
0
0
0
0
0
0
1.3568e-10
1.12001e-09
0
0
0
0
0
0
0
0
0
8.66297e-07
0
0
0
0
0
0
0
2.31144e-09
0
0
6.19463e-09
0
0
0
0
0
0
0
0
0
0
0
0
0
0
0
0
0
0
0
0
0
0
2.1943e-09
0
0
0
0
0
0
0
0
0
0
0
0
0
0
0
2.6883e-09
0
0
0
5.7984e-09
0
0
0
0
0
0
0
0
0
0
0
0
0
0
0
0
0
0
0
0
0
0
0
0
0
1.35609e-09
0
0
0
0
0
0
0
0
0.0010127
0.000290063
0.000231661
7.62735e-05
0.00100881
0.000351074
0.000124044
8.60419e-05
0.000152831
0.000178459
0.000101719
3.86046e-05
6.95013e-05
8.57781e-05
0.000371345
0.000418386
0.000399242
0.00037252
0.000376116
0.000338612
0.000214105
0.000319777
0.000452752
0.000405583
0.000421789
0.000525226
0.000373587
0.000378175
0.000297684
0.000275236
0.00011133
0.000124781
8.62707e-05
0.000179117
8.01912e-05
0.000253461
0.000273061
0.00041918
0.000311177
0.000402192
0.000217079
0.00028842
0.000242159
0.000231512
0.000208699
0.000287954
0.000204485
6.61056e-05
0.000336571
0.00010886
0.000406103
0.00024584
0.000265317
0.000133279
0.000156605
0.000329504
0.000106672
0.000237205
6.84707e-05
5.44772e-05
7.69237e-05
0.000144485
1.11448e-05
8.01644e-05
7.32434e-05
0.000172782
2.80015e-05
4.37127e-05
3.57074e-05
5.09212e-05
0
2.54728e-05
0.000163468
0.000142156
9.48346e-05
0.000188667
0.000255456
0.000204847
0.000200793
0.000230642
0.000254878
0.000271753
0.000238593
0.000283799
0.000305214
0.000267568
0.000277648
0.000238697
0.000215182
0.000250611
0.00022786
0.000311716
0.000180205
0.000297088
0.000283802
0.000183967
0.000221612
0
0
0
0
0
0
0
0
0
4.15431e-09
0
0
0
0
0
3.68611e-11
2.99259e-11
0
0
0
0
0
0
0
0
2.29209e-05
2.81422e-05
4.52803e-05
0.000104378
6.07478e-05
1.22663e-05
3.60448e-05
0.000179991
0.000165502
0.000253885
0.00024133
0.000266005
0.00025174
0.000339619
0.000326082
0.000361443
0.00033824
0.00026817
0.000257654
0.000299424
0.000281865
0.000328149
0.000291835
0.000364403
0.000471076
0.000442259
0.000541616
0.000467005
0.00058103
0.000447959
0.000619512
0.000582017
0.00050737
0.000592913
0.00049575
0.000522326
0.000508898
0.000477929
0.000459518
0.000376251
0.000314458
0.000162555
0.000136233
0.00012502
0.000116261
0.000127804
0.000136912
0.000134329
9.70202e-05
7.16471e-05
0.000122502
0.000190665
0.000101192
0
0
0
0
0
0
0
0
0
1.10241e-10
0
0
0
0
0
0
0
3.88182e-09
0
0
4.61609e-09
0
0
0
2.18231e-10
0
0
0
0
0
6.5203e-10
0
0
0
0
0
0
0
0
0
0
0
0
0
0
0
9.30768e-10
9.60791e-10
1.18486e-09
0
0
0
0
1.01571e-09
0
0
1.20504e-09
0
0
0
0
2.57838e-09
0
6.90856e-10
0
0
0
0
0
0
0
0
0
0
0
0
0
0
0
0
0
0
0
0
0
0
0
0
0
0
0
0
0
0
0
0
0
0
0
0
0
0
0
0
0
0
0
0
0
0
0
0
0
0
0
0
0
8.11478e-10
0
0
0
3.38445e-09
0
0
0.000226664
0.000126047
8.27317e-05
0.000201511
0.000191813
0.000166303
9.25082e-05
0.000239192
0.000186797
0.000332219
0.000313302
0.000406264
0.000391309
3.97972e-05
0.000193302
0.000259663
0.000406787
0.000334593
0.00014712
5.79836e-05
0.000107746
0.000232806
0.000178977
0.00014729
4.06176e-05
5.74272e-05
3.36814e-05
2.88601e-05
2.02504e-05
5.7574e-05
5.41805e-05
5.74495e-05
5.52297e-05
2.73892e-05
4.09597e-05
4.55675e-05
1.72738e-05
0
1.37917e-06
6.21976e-05
8.89735e-05
0
0
2.90056e-09
0
0
0
0
0
0
0
1.15455e-08
0
0
0
0
6.56731e-09
0
0
0
0
4.96032e-05
2.22278e-05
1.27894e-05
0.000147268
3.02853e-05
5.66273e-05
6.09677e-05
5.28491e-05
2.92309e-05
9.79896e-05
4.99649e-05
1.88042e-10
0
0
1.427e-10
0
0
1.07974e-09
6.34106e-10
0
0
0
0
0
0
0
0
8.60856e-07
4.19286e-07
0
0
1.0046e-07
0
2.0802e-09
0
0
0
0
8.723e-08
0
1.70528e-09
3.24293e-07
0
0
0
0
0
0
0
0
0
0
0
0
0
0
0
0
0
0
5.40562e-09
0
0
0
0
0
0
0
0
0
0
0
0
0
0
0
0
0
0
0
0
0
0
0
0
0
0
4.43141e-10
1.03757e-09
0
0
0
0
0
0
0
0
9.75674e-10
0
0
0
0
0
0
6.63669e-10
0
0
0
0
0
0
0
0
0
0
0
0
0
0
0
0
0
0
0
0
0
0
0
0
0.000520242
0.000240902
0.000441232
8.45265e-05
0.00023264
3.6423e-05
4.20814e-05
0.000123411
0.000114239
4.5028e-05
4.84749e-05
1.44668e-05
5.97772e-05
0.000134207
0.000146114
0.000360674
0.000328758
0.000320094
0.000335233
0.000296952
0.000363742
0.000377062
0.0003354
0.000300188
0.000295857
0.000222392
0.000307982
0.000431899
0.000298907
0.000166691
0.000324408
0.000123838
0.000217145
0.000145625
0.000229469
0.000268556
0.000166219
0.000351374
0.000174609
0.000211397
0.000277251
0.00012472
4.85057e-05
0.000126927
6.98894e-05
0.000120481
9.96873e-05
2.76362e-05
0.000304296
0.000191037
0.000321345
0.000451104
0.000358224
0.000222093
0.000357921
0.000221002
0.000219407
0.000191305
4.29121e-05
4.73227e-05
0.000188976
0.000131377
0.000123917
0.00014431
0.000137224
0.000152382
5.49912e-05
3.67787e-05
7.21784e-05
0.000130495
0.000179564
5.79719e-05
0.000238841
5.62103e-05
0.000191512
0.000205613
0.000283878
0.000285918
0.000280027
0.000271757
0.000290063
0.000262821
0.000257748
0.000234793
0.000222327
0.000256991
0.000236445
0.000202466
0.000198138
0.000310903
6.5722e-05
0.000198176
0.000298582
0.000236575
0.000103768
0.000159993
1.51529e-09
2.27525e-09
3.1844e-09
0
0
0
0
0
0
0
0
0
0
0
0
0
0
0
0
0
0
0
0
0
1.21727e-05
8.28604e-05
7.63242e-05
4.83183e-05
0.000156459
0.000154641
3.23e-05
8.99102e-05
0.00026435
0.000223357
0.000267259
0.000309684
0.000436001
0.000378876
0.000543075
0.000470511
0.000451155
0.000453728
0.000399022
0.000355045
0.000364603
0.000392946
0.000462862
0.000400222