/*--------------------------------*- C++ -*----------------------------------*\
  =========                 |
  \\      /  F ield         | OpenFOAM: The Open Source CFD Toolbox
   \\    /   O peration     | Website:  https://openfoam.org
    \\  /    A nd           | Version:  8
     \\/     M anipulation  |
\*---------------------------------------------------------------------------*/
FoamFile
{
    version     2.0;
    format      ascii;
    class       volScalarField;
    location    "18240";
    object      nut;
}
// * * * * * * * * * * * * * * * * * * * * * * * * * * * * * * * * * * * * * //

dimensions      [0 2 -1 0 0 0 0];

internalField   nonuniform List<scalar> 
526318
(
0.000384497
0.000255887
0.000487715
0.000257391
0.000458219
0.000582297
0.000351101
0.000465316
0.000356171
0.000309971
0.000469279
0.000566053
0.000779065
0.000442218
0.000352336
0.000293861
0.00078058
0.000383948
0.000495617
0.000240869
0.000391731
0.000323599
0.000357363
0.000189747
0.000192737
0.000315984
0.000268018
0.000435496
0.000399854
0.000284798
0.000381763
0.000361095
0.000598893
0.000546403
0.00044762
0.000870139
0.000141557
0.000234409
0.000532713
0.000762756
0.000607216
0.000758103
0.000366687
0.000167815
0.000147921
0.000306783
0.000401024
0.000431434
0.000368621
0.000527323
0.000373499
0.00048315
0.000161555
0.000575387
0.000248346
7.60114e-05
0.000402352
6.1016e-05
0.000277801
0.00019958
0.000532509
0.000683243
0.000554504
0.000275426
0.000324033
0.000234714
0.00031777
0.000505839
0.000429125
0.000361273
0.000454884
0.000478607
0.000518122
0.000384411
0.000366315
0.000451947
0.000471258
0.000449282
0.000522066
0.000521741
0.00041179
0.000445601
0.000422435
0.000466939
0.000569788
0.000511776
0.000574939
0.000514202
0.000506889
0.000394129
0.000393412
0.000440183
0.000447573
0.000250531
0.000615049
0.000445117
0.000531354
0.000339684
0.000423628
0.000392274
0.000365249
0.000408793
0.000420189
0.000139111
0.000205472
0.000308219
0.000216947
0.000192393
0.000282565
8.41067e-05
3.99525e-05
0.000220678
0.000271736
0.000321942
0.000371714
0.000173737
0.000472506
0.000367007
0.000297049
0.000279536
0.000450708
0.000377992
0.000382459
0.000272451
0.000238138
0.000252611
0.000301092
0.000171573
0.00024598
0.00021837
0.000216895
0.000207335
0.000203208
0.000218127
0.000222451
0.000254835
0.000228094
0.000202233
0.000200792
0.000221722
0.000146875
0.000141889
0.000254786
0.000215838
0.000101041
0.00014469
0.000106127
0.000111495
0.000113778
0.00013101
0.000137366
0.000163293
0.000139528
0.00018058
0.000111258
0.000176545
0.000165426
0.000175774
0.000200737
0.000220078
0.000281442
0.000257653
0.000203821
0.000302965
0.000276896
0.000459825
0.000269259
0.000504136
0.000567056
0.000615656
0.000426265
0.000738911
0.000540043
0.000596475
0.00042373
0.000611456
0.000495943
0.000546768
0.000597419
0.000422837
0.000429201
0.000358954
0.000466445
0.000228702
0.000328126
0.000303523
0.0002584
0.000205593
0.000231602
0.000231291
0.000222278
0.000201291
0.000246028
0.000257278
0.000139666
0.000113588
0.000209667
0.0001452
0.000149349
0.000201578
0.000122308
0.000235996
0.000268468
0.000309563
0.000179049
0.000234112
0.000292739
0.000310993
0.000272397
0.000321414
0.000362717
0.00055165
0.000518464
0.000400259
0.000527554
0.000386956
0.00015327
0.000287576
0.000366366
0.000599512
8.05298e-05
0.000429616
0.000403883
0.000218338
0.00052641
0.000643731
0.00046415
0.000268066
0.000600725
0.000295981
9.33326e-05
0.000146392
0.000476698
0.000601485
0.000313656
0.000522548
0.000452592
0.000383345
0.000243351
0.000271991
0.000471871
0.000298297
0.000294785
0.000472477
0.000381947
0.000423264
0.00028487
0.00041393
0.000401077
0.00050233
0.000366801
0.000479751
0.000390217
0.000376116
0.000396953
0.000483946
0.000469897
0.000410868
0.000441462
0.000385294
0.000335214
0.000201879
1.16413e-05
0.000428075
0.000189062
0.000387118
0.000583932
0.000554165
0.00014822
0.000186155
0.000291572
0.000224035
0.000112482
0.000261264
0.000261628
0.000110971
0.000232717
0.000320034
0.000431565
0.000247109
0.00050716
0.00026019
0.000307608
0.000242739
0.000205833
0.000222527
0.000208013
0.000261632
0.000202492
0.000151035
0.000238636
0.000166311
0.000107703
0.000251048
0.000292398
0.000340588
0.000315927
0.000344148
0.000327098
0.000331051
0.00033608
0.000317038
0.000276803
0.000326267
0.000332161
0.000299497
0.000108893
0.000126231
0.000145259
0.000156924
0.000196504
0.000198696
0.000260534
0.000213367
0.000256999
0.000212482
0.000325664
0.000316433
0.000329928
0.0003123
0.000286421
0.000135912
0.000529791
0.000338194
0.000501201
0.000554812
0.000411132
0.000518312
0.000316948
0.000542361
0.000558346
0.000481241
0.000520161
0.000559264
0.000418105
0.000579105
0.000336024
0.00041983
0.000455399
0.000278572
0.000353565
0.000262723
0.000176746
0.000280212
0.000235674
0.000229401
0.000228961
0.000225655
0.00019012
0.000235826
0.000124825
0.00022972
0.000114651
0.000175923
0.000125224
0.000168595
0.000120668
0.000227131
0.000217851
0.000280308
0.000275983
0.000170534
0.000316581
0.000297561
0.000260466
0.000307299
0.000320904
0.000312304
0.000321345
0.000330138
0.000337091
0.000319082
0.000311556
0.000333534
0.000358575
0.000362148
0.000365649
0.000397967
0.000683134
0.000492265
0.000327288
0.00111438
0.000425372
0.00068456
0.000209924
0.000588553
0.00047698
0.000300585
0.000195381
0.000191872
0.000599062
0.000391626
0.000289493
0.000351999
0.00049933
0.000216313
0.000508208
0.000176242
0.000424588
8.31238e-05
0.000341523
0.000452875
0.000226116
0.000244577
0.000384928
0
0.000193045
0.00018356
0
0
0.000269189
0.0004505
0.000582749
0.000292755
0.000347847
0.000260611
0.000468305
0.000194605
0.00027153
0.000507803
0.000181921
0.00030629
0.000365949
0.000318675
0.000544059
0.000386477
0.000407572
0.000488014
0.000576328
0.000410046
0.000488681
0.000360018
0.00039799
0.000293669
0.000379067
0.000314926
0.000253238
0
4.12373e-10
6.83229e-11
0
0
0
0
1.00579e-10
3.74904e-10
2.48654e-10
0
0
0
0
0
0
5.89264e-05
7.78839e-05
5.25392e-05
0.000195332
0.000446912
0.000186194
0.000497685
0.000460059
0.000159199
0.000585604
0.000278414
0.000198319
0.000113058
0.00019606
0.000214064
7.51042e-05
0.000370581
0.000355373
0.000184005
0.000334076
0.00029652
0.000381876
0.000216544
0.00022874
0.000221239
0.000239881
0.000217453
0.000255191
0.00023942
0.000156637
0.000174389
0.000109251
0.000116606
0.000125532
0.000247936
0.000270591
0.000275676
0.000324377
0.000269466
0.000389215
0.000332319
0.000316856
0.000296856
0.000242574
0.000225555
0.000156629
0.000136946
0.000190882
0.000171218
0.00021673
0.000193272
0.000182143
0.00021663
0.000435949
0.000394278
0.000437072
0.000431629
0.000495356
0.000518603
0.000456893
0.00046955
0.000354304
0.000324933
0.000369344
0.00037815
0.000338049
0.000353998
0.000397327
0.000879253
0.000249811
0.000385375
0.000447103
0.000407651
0.000382769
0.000492795
0.000288541
0.000464096
0.000374824
0.000305632
0.00050445
0.000478776
0.000634355
0.00051997
0.000348017
0.00059449
0.000353373
0.0003713
0.000222437
0.00021925
0.000313544
0.000175959
0.000230463
0.000247163
0.000227812
0.000248768
0.000223996
0.000192497
0.000156442
0.000201597
0.000104178
0.000180115
0.000147718
0.000125817
0.000198418
0.000117635
0.000257162
0.000122968
0.000207531
0.000288751
0.000152394
0.000297189
0.000290775
0.000307274
0.000310048
0.000251725
0.000312589
0.000307389
0.000343113
0.000334585
0.000327919
0.000328461
0.000415365
0.000408069
0.000473782
0.000480097
0.000493666
0.000509403
0.000499894
0.000462519
0.000550339
0.000116372
0.000672777
0.000582735
0.000326166
0.000235678
0.000266401
0.000103835
0.000168121
0.000277891
0.000563774
0.000327349
0.000567463
0.000281541
0.000567862
0.000345476
0.000318341
0.000519536
0.00034929
0.000284036
0.000160292
0.00033213
0.0004289
0.000329586
0.000771326
0.000306882
0
0
0
0
4.11135e-05
0
0.000344591
0.000186125
0.000339739
0.000167969
0
0
0
0
0
0
0
0
0
0
1.80193e-09
0
0
6.1978e-10
7.29394e-10
1.91178e-09
0
0
0
0
0
0
0
0
0
0
0
0
0
0
0.000469713
0.000233111
0.000224214
0.000338076
0.000338416
0.000340434
0.000306522
0.000561151
0.000487671
0.000393556
0.000510003
0.000334815
0.000368377
0.000368954
0.000361039
0.000320591
0.000354504
0.000289707
0.000251603
0.000187527
0.000198101
0.000247215
0
0
0
0
0
0
0
0
0
0
0
0
0
0
0
0
0
0
0
0
0
0
0
0
0
4.18545e-05
0.000165938
0.000102086
9.13962e-05
0.000187589
0.000416755
0.000161106
0.00041754
0.000535096
0.000307106
0.000556123
0.000152198
0.000263196
5.73314e-05
0.000126113
0.000265824
0.000184767
0.000244373
0.000234362
0.000188972
0.000364656
0.000457188
0.000301458
6.65309e-10
0
0
0
0
0
0
0
0
0
0
0
0
0
0
0
0
0.000246205
0.00021303
0.000237265
0.000238881
0.000220987
0.000173563
0.000156774
0.000116678
0.000106104
0.000130901
0.000172568
0.000111389
0.000249944
0.00029471
0.00025729
0.000180776
0.000361681
0.000297113
0.000339476
0.00035955
0.000217796
0.000265284
0.000305321
0.000201062
0.000150852
0.000204258
0.000226523
0.000163411
0.00013155
0.000230309
0.000224957
0.000183987
0.000521883
0.000536881
0.000511821
0.000553992
0.000483385
0.000540338
0.000585493
0.000577148
0.000574846
0.000617362
0.000420258
0.000435459
0.000538282
0.000467574
0.000352351
0.000359252
0.000428048
0.000356755
0.000346239
0.000353126
0.000258163
0.000406186
0.000496121
0.000276074
0.00059404
0.000462826
0.000126686
0.00051765
0.000297217
0.000268419
0.000287308
0.000341759
0.000469129
0.000513436
0.000471535
0.000592475
0.000254561
0.000483369
0.000263302
0.000289458
0.000213944
0.000193197
0.000218726
0.000238779
0.000238214
0.000232772
0.000233739
0.000150371
0.000177154
0.0001822
0.000120743
0.000140645
0.000146719
0.000104607
0.000152382
0.000137252
0.000125897
0.000222374
0.000128172
0.000274109
0.000194634
0.000325815
0.000319042
0.000153804
0.00028756
0.000323536
0.000245826
0.000344322
0.000315075
0.00034969
0.000387639
0.000383658
0.000364073
0.000386641
0.000453844
0.000441481
0.00048695
0.000468812
0.000505807
0.000511189
0.000594387
0.000550819
0.0006893
0.000663409
0.000698064
0.000789184
0.000798028
0.000747125
0.00074351
0.000755497
0.000759642
0.000787254
0.00078025
0.000726971
0.00071713
0.000793429
0.000687327
0.000687146
0.000654763
0.000618032
0.000610089
0.000619985
0.00052714
0.00049352
0.000537156
0.000392537
0.000411171
0.000297644
0.00032394
0.000289531
0.000244519
0.000268487
0.000244952
0.000269028
0.000281815
0.000219078
0.000252278
0.000265928
0.000280662
0.000255448
0.000229248
0.000765891
0.000491436
0.00060814
0.00094972
0.000710054
0.000381241
0.000862076
0.00043931
0.000623117
0.000210194
0.000678755
0.00047346
0.000343172
0.000680918
0.000182488
0.000599223
0.000186773
0.000408337
0.000559897
0.000391835
0.000379654
0.000293102
0.000483515
0.00026977
0.000119061
0.000366309
0.000310396
0.000160337
0.000744884
0
0
0
0
0
0
1.79711e-05
0.000128682
0.000117917
0.000401914
0
0
0
0
3.18847e-09
0
0
0
0
0
0
0
0
0
0
0
0
0
0
0
0
1.97991e-09
0
1.64283e-09
0
0
0
0
0
0
2.03984e-09
1.95173e-09
0
5.57393e-10
1.86443e-09
2.84063e-09
0
0
0
0
0
0
0
0
0
0
0
0
0
0
0
0
0
0
0
0
0.000230475
0.000372924
0.00043793
0.000245985
0.000444289
0.00051608
0.000413556
0.000289255
0.000498347
0.000369881
0.000308776
0.000408251
0.00036461
0.000325224
0.000190108
0.000247316
0.000185802
0.000216212
0.000205472
0.00015936
0.000208346
0.000215939
0
0
1.05085e-09
7.69294e-10
0
0
0
0
1.84917e-09
0
0
0
0
0
0
0
0
0
0
0
0.000297858
0.000156383
8.94856e-05
0.000151279
7.11979e-05
9.6016e-05
0.000105
0.000405381
0.000549027
0.000367586
0.000496269
0.000234098
0.000128994
3.47886e-05
0.000163379
0.000220044
0.000123866
0.000107149
0.000348061
0.000230993
0.000170065
0.000371409
0.0001712
0.000339779
0
0
0
0
0
2.03642e-11
0
0
1.02887e-11
0
0
0
0
0
0
0
0
0
0
0
0
0
0
0
5.94749e-07
0
0.000213304
0.000236575
0.000185259
0.000165077
0.000128362
0.00011509
0.000133221
8.34493e-05
9.36761e-05
0.000180375
0.00014293
0.000212379
0.000151189
0.000305354
0.000299388
0.000235351
0.000306315
0.000356407
0.000362931
0.000353727
0.000260953
0.000190729
0.000190906
0.000283572
0.000163502
0.000225891
0.000134989
0.000205083
0.000189297
0.00012601
0.000164512
0.000227712
0.000706783
0.000642791
0.000517321
0.000555109
0.00048096
0.000530677
0.000589614
0.000599964
0.000831965
0.000808245
0.000813756
0.000811619
0.000750976
0.000764744
0.000742309
0.000647582
0.000427565
0.0005035
0.000330448
0.000349531
0.000339968
0.000321267
0.000333484
0.000306741
0.000264675
0.000280037
0.00026268
0.000232378
0.000295709
0.000319649
0.000465337
0.000474382
0.000514257
0.000485412
0.000445218
0.00033521
0.000456109
0.000304682
0.000366408
0.00038568
0.000632401
0.000602316
0.000356176
0.000250559
0.000254451
0.000323225
0.000271838
0.000228761
2.39878e-05
0.000357231
0.000440252
0.000243652
0.000461748
0.000531105
0.000408006
0.000536095
0.000290756
0.000212718
0.000208016
0.000248548
0.000150225
0.000235134
0.000244907
0.000186974
0.000223084
0.000139206
0.000155452
0.000175627
0.000130209
9.68606e-05
0.000137366
0.000110507
0.000125839
0.000132312
0.000127004
0.000174031
0.000228666
0.000140763
0.000150488
0.000285492
0.000193248
0.000351918
0.000323323
0.000168604
0.000379174
0.000292353
0.000257972
0.000386231
0.000342665
0.000412596
0.000429524
0.000441612
0.000459023
0.00040453
0.000495393
0.000468167
0.000486112
0.000486286
0.000493106
0.0005416
0.000599016
0.000656458
0.000706559
0.000778431
0.000729118
0.000723634
0.000715538
0.000699843
0.000607728
0.000586991
0.000512904
0.000503901
0.000430299
0.000401016
0.000335048
0.000252359
0.000200865
0.00023044
0.000242763
0.000188669
0.000197412
0.000250749
0.000238725
0.000202974
0.000265333
0.000279818
0.000249694
0.000281647
0.000218028
0.00023292
0.000295517
0.00029242
0.00026045
0.000424311
0.000537126
0.000685968
0.000716003
0.000794141
0.000715704
0.000746398
0.000231394
0.000645787
0.000667797
0.000181971
0.000660884
0.000248665
0.000517615
0.000524018
0.000530414
0.000213094
0.000329157
0.000856995
0.00049213
0.000626862
0.000691218
0.000353376
0.000462727
0.000611152
6.52571e-05
0.000169052
0.000144954
0.000459507
0.000211311
0.000695591
0
0
0
0
0
0
0
0
2.86814e-05
0
0
4.40641e-09
0
0
0
0
0
0
0
0
1.83172e-11
0
0
0
0
0
0
0
0
0
0
0
0
0
0
0
0
0
0
0
0
0
0
0
0
0
0
0
0
0
0
0
0
0
0.00039308
0.000259267
0.000363253
0.000384037
0.00030487
0.000230286
0.000284972
0.000551643
0.00037442
0.000267339
0.000310829
0.000212357
0.000136291
0.000149652
0.000195107
0.000222716
0.000196165
0.000276797
0.000129275
0.000202685
0.000199536
0.000166479
6.31915e-10
0
7.2571e-11
0
0
0
0
0
0
0
0
0
0
0
0
0
0
0
0
4.08141e-06
5.63412e-05
7.61298e-05
9.22016e-05
5.54589e-05
6.30667e-05
0.000130427
0.000171129
0.000371484
0.000546546
0.000293052
0.000501731
0.000268346
0.000274865
8.79718e-05
0.000115654
0.000160922
0.000128755
0.000302473
0.000213133
0.000164641
0.000117842
0.000373773
0.000274176
0.000228776
0
0
0
0
0
0
0
0
0
0
0
0
0
0
0
0
0
0
0
0
0
0
4.78962e-07
0
0
0
0
0
0
0
0
0.000153955
0.000131166
7.35166e-05
8.98048e-05
6.99682e-05
9.88422e-05
0.000158195
9.41875e-05
0.000203578
0.00010335
0.000144778
0.000144672
0.000186982
0.000197942
0.000165722
0.000210298
0.000287278
0.000319559
0.000285772
0.000347566
0.000369787
0.000343291
0.00037031
0.000197413
0.000243678
0.000256142
0.0002283
0.000128056
0.000166095
0.000155515
0.000113884
0.000134078
0.000221413
0.000229246
0.000171194
0.000259527
0.000342534
0.000269065
0.000318977
0.000401658
0.000315715
0.000383023
0.000336662
0.00039049
0.00043537
0.000439591
0.000471726
0.00034994
0.000459978
0.000295166
0.000309685
0.000264568
0.000243253
0.000312191
0.000305096
0.000266866
0.000251706
0.000291722
0.000285561
0.000331298
0.000273758
0.000291821
0.000321142
0.000269862
0.000288642
0.000270083
0.000275262
0.000303688
0.000316921
0.000279615
0.000761945
0.000681854
0.000525752
0.000554007
0.000513418
0.000500779
0.0006258
0.000604959
0.000876547
0.000859202
0.000934067
0.00084661
0.000762772
0.000768198
0.00064979
0.00055812
0.00048309
0.000408888
0.000414564
0.000380027
0.000400098
0.00036508
0.000378795
0.000342709
0.000314931
0.000295106
0.00035849
0.00033083
0.000485246
0.000469829
0.000528195
0.000530334
0.000460386
0.000502545
0.000513727
0.000313718
0.00023788
0.000221336
0.000358084
0.000278139
0.000219371
0.000285801
0.000284939
0.000237041
0.00025452
0.000305101
0.000277242
0.000346558
0.000327977
0.000346819
0.0003871
0.000434094
0.000448263
0.000524817
0.000490683
0.000495537
0.000590501
0.000379026
0.000473054
0.000517202
0.000476097
0.000378218
0.000307391
0.000219576
0.000403477
0.00042441
0.000126692
0.000486711
0.000309292
0.000475594
0.000501444
0.000298711
0.000262373
0.000205398
0.000128134
0.000148066
0.00024676
0.000132526
0.000258267
0.000157874
0.000208971
0.000148334
0.00014713
9.87069e-05
0.000100124
0.000113485
0.000134029
0.000113555
0.000123995
0.000116456
0.000149
0.000184367
0.000124593
0.000226206
0.000170867
0.00028416
0.000186168
0.000219503
0.000372472
0.000160651
0.000333739
0.000432753
0.000322791
0.000311764
0.000435728
0.000376274
0.000471646
0.000466925
0.00051588
0.000510674
0.000421857
0.000519333
0.000516564
0.000519009
0.000531729
0.000476651
0.000637448
0.000665709
0.00077891
0.000766012
0.000692052
0.000699886
0.000722104
0.000610655
0.000605923
0.000498398
0.000497901
0.000416085
0.000406533
0.000342632
0.000345579
0.00024548
0.000285104
0.000240416
0.000182842
0.000175724
0.000248234
0.000258393
0.000176789
0.000267783
0.000185408
0.000200656
0.000410986
0.000504383
0.000149509
0.000624224
0.000384918
0.000860268
0.000744148
0.000363179
0.00042403
0.000730208
0.000173019
0.000216061
0.000538373
0.000544681
0.000436239
0.000392704
0.000249404
0.000590804
0.000448285
0.000669396
0.000740062
0.000893716
0.000182084
0.000753181
0.000615753
0.00032362
0.000361188
0.000285827
2.82702e-05
2.86183e-05
0.000684657
0.000671599
0.000246642
0.000524563
0
0
0
0
0
0
0
0
5.46991e-05
0
0
0
0
0
0
0
0
2.65877e-07
0
0
0
0
0
0
0
0
0
0
0
0
1.91001e-10
0
0
0
0
3.10976e-09
0
0
0
0
0
0
0
0
0
0
0
0
0
0
0
0
0
0
0
2.1744e-09
0
0
0
0
2.39714e-09
0.000520398
0.00061903
0.000483098
0.000439706
0.000549794
0.000672165
0.000179818
0.000371786
0.000222384
0.000352272
0.00030702
0.000388421
0.000279496
0.000208642
0.000168039
0.000219478
0.000262852
0.000256305
8.95692e-05
5.22224e-05
0.0002128
0.000202233
0.000234826
0.000147113
0.000239045
0
0
0
0
0
0
0
0
0
0
0
0
0
9.70656e-05
0.000156201
0.000285286
0
0
0
0
9.28456e-05
3.77001e-05
9.57042e-05
0.000116878
3.69754e-05
7.75472e-05
7.96994e-05
0.000261461
0.000453277
0.000227333
0.000396799
0.000311371
0.000310739
0.000293203
0.00021973
2.94053e-05
6.44427e-05
0.000102821
0.000172848
6.17193e-05
1.36503e-05
0.000270533
0.000367972
0
2.76543e-10
0
0
0
0
0
0
0
0
0
0
0
0
0
0
0
0
0
0
0
0
0
0
0
0
0
0
0
0
0
0
0
0
0
0
0
0.000150847
0.000200338
6.27125e-05
7.94604e-05
5.26077e-05
5.63438e-05
7.04889e-05
7.06749e-05
0.000132122
0.000149306
0.000104225
6.29027e-05
0.000102051
0.0001247
0.000157101
0.000118909
0.000100129
0.000284352
0.000290906
0.000321317
0.000330507
0.000316102
0.000346119
0.000352663
0.000291319
0.00021936
0.000207524
0.000258639
0.000255679
0.000111565
7.7671e-05
0.000185867
0.000133374
0.000159276
0.000225184
0.000172965
0.000186161
0.000331953
0.000312192
0.00038954
0.000343086
0.000307052
0.000485663
0.000477494
0.000552381
0.000285074
0.000326549
0.000330888
0.000297067
0.000297976
0.000337156
0.000307281
0.000366983
0.000297533
0.000317937
0.000327161
0.000298825
0.000298833
0.000334488
0.000841195
0.000722132
0.000584184
0.000555925
0.000546064
0.000529935
0.000617104
0.0006668
0.000884601
0.000737252
0.000939425
0.000996591
0.000792768
0.000682244
0.000899944
0.000966404
0.000787902
0.000664198
0.000507953
0.00050376
0.000445679
0.000456209
0.000424345
0.000403885
0.000435918
0.000382492
0.000414685
0.000325735
0.000348795
0.000393671
0.000371143
0.000469148
0.000442894
0.000522715
0.000512126
0.000482317
0.000510538
0.000520748
0.000534179
0.00031959
0.000389383
0.000366216
0.000290839
0.000271755
0.000273505
0.000211969
0.000277694
0.000230292
0.00024743
0.000292367
0.000278894
0.000309543
0.00036915
0.00030454
0.000352812
0.000406883
0.000445959
0.000464763
0.000552553
0.000555579
0.000648346
0.000579603
0.000285027
0.000276371
0.000319002
0.00060263
0.000678299
0.000731117
0.000286904
0.0003788
0.000588445
0.000500657
0.000213517
0.000440805
0.000211153
0.000419175
0.00045128
0.000212409
0.000452922
0.00048035
0.000363529
0.000334614
0.000173485
0.00012682
0.000111514
0.000178218
0.000139932
0.000164807
0.000114433
0.000188075
0.000130482
0.000157238
0.000125622
0.000108365
0.000163769
6.81832e-05
0.000119066
0.00012934
0.000142997
0.000123677
0.000110507
0.000158789
0.000192339
0.00014702
0.000208525
0.000239119
0.000275917
0.000263537
0.000432062
0.000294568
0.000419258
0.000247373
0.000365969
0.000474467
0.000468888
0.000366687
0.000407365
0.000510058
0.000470784
0.000546783
0.000444726
0.000544216
0.000524527
0.000575519
0.000627415
0.000598856
0.000541814
0.000868677
0.000854853
0.000668595
0.000746845
0.000603516
0.000625399
0.000507468
0.000486949
0.000388092
0.000404584
0.000356324
0.000311143
0.000283739
0.000318329
0.000247029
0.000263058
0.000187392
0.000266762
0.000272035
0.000184711
0.000262994
0.000163565
0.000190211
0.000171509
0.000201851
0.000425277
0.000656797
0.00089597
0.000556294
0.00104821
0.00113887
0.00124177
0.000629892
0.000165408
9.36322e-05
0.000517082
0.000354824
0.000501676
0.000267495
0.000477527
0
0
0.000388459
0.000587383
0.000709474
0.000463569
0.000237576
0.000271343
0
0
0
7.01771e-05
5.67125e-05
0
0.000174145
6.20238e-05
0.000503333
3.13961e-05
8.57417e-06
0
0
0
0
0
0
3.31575e-07
0
0
0
0
0
0
0
0
1.18623e-07
0
0
0
0
1.24307e-09
0
0
0
0
0
0
0
6.19555e-10
1.30956e-09
0
0
2.41258e-09
1.00937e-09
0
0
0
0
2.90613e-09
0
3.79583e-09
0
0
0
0
0
0
0
0
0
0
0
0
0
0
0
0
0
1.36075e-09
0
0
0
0
0
0
0
0
0.000374247
0.000479985
0.000485653
0.000603935
0.000733402
0.000550319
0.000758369
0.0008059
0.000589948
0.000922441
0.000325044
0.000257971
7.73001e-05
0.000407214
0.000112324
0.000304893
0.000331552
0.000274693
0.000159381
5.43266e-05
9.98772e-05
0.000262599
0.000145484
0.000144723
0.000160851
0.000192336
0.000234513
0
0
0
0
0
0
0
0.00015293
0.000211861
0.000165268
0
0
0
0
0.000114189
9.31944e-05
0
0
0
9.30428e-05
5.68213e-05
5.51533e-05
0.000151697
8.22559e-05
9.38985e-05
0.000280959
7.60583e-05
0.000311962
0.000267289
0.000344433
0.000396305
0.000149446
0.000208946
0.000194445
7.59823e-05
0.000353859
0.000386669
5.74712e-05
0.00014657
0.000301974
0.000135383
0
0
2.61577e-10
0
0
0
0
5.05239e-11
0
0
0
0
0
0
0
1.32472e-09
0
1.09703e-09
1.20202e-09
0
0
0
0
0
0
0
0
0
0
0
2.57092e-09
0
0
0
0
0
0
0
0
0
0
0
0
0
2.22593e-09
0.000146759
7.30504e-05
0.000182233
0.000128854
5.34176e-05
7.70607e-05
7.8423e-05
0.00013925
7.03535e-05
6.95593e-05
0.000137217
9.78095e-05
0.000128982
0.000122953
0.000104923
0.000106173
0.000117586
8.73279e-05
9.24086e-05
0.000281165
0.000279665
0.000281986
0.000296923
0.000317056
0.000318446
0.000321692
0.000351937
0.000214159
0.00022332
0.000264898
0.000232328
0.00013216
0.000132969
0.000166189
0.000169188
0.000189222
0.000161329
0.000200346
0.00020784
0.000169783
0.000337855
0.000471037
0.000342965
0.000469942
0.00068523
0.000924924
0.000464715
0.000919689
0.000513208
0.000420772
0.000412235
0.000848228
0.000431373
0.000340691
0.000301976
0.000358336
0.000317509
0.000365134
0.000323432
0.000333347
0.000261149
0.000320368
0.000344521
0.000314889
0.000339004
0.000350802
0.000321595
0.000907141
0.000747945
0.000598448
0.000593406
0.000558904
0.000594719
0.000620702
0.000721101
0.000950035
0.000887361
0.000925907
0.00101941
0.000831976
0.000643782
0.000771624
0.00095611
0.000519018
0.000618091
0.000480514
0.00050905
0.000481876
0.000461986
0.000465411
0.000445097
0.000427451
0.000447771
0.00037519
0.000355681
0.00040503
0.000420379
0.000448366
0.000429806
0.000528371
0.000548802
0.000533388
0.000484312
0.000583017
0.000545469
0.000395926
0.000380987
0.000365239
0.000403578
0.000270583
0.000236683
0.000257343
0.000273381
0.000243157
0.00025471
0.000309385
0.000314307
0.000338157
0.000365757
0.000322644
0.000383139
0.000393215
0.000419595
0.000490086
0.000498192
0.000548813
0.000626978
0.000617664
0.000671046
0.000697624
0.000360957
0.000355832
0.000762532
0.000845912
0.000414585
0.000294728
0.000487185
0.000249078
0.000469872
0.000347539
0.000342392
0.000160363
0.000311292
0.000398032
0.000419975
0.000342183
0.00015643
0.000201202
9.45121e-05
0.000166687
0.000106922
5.93747e-05
9.59559e-05
0.000138711
0.000122593
0.000103486
0.000102141
0.00015156
0.000127926
0.000173581
0.000152532
0.000180741
0.0001626
0.000149855
0.000138142
0.000145577
0.000174116
0.00015929
0.000231886
0.000213516
0.000261161
0.000287584
0.000382684
0.000374968
0.000350958
0.000372949
0.000467751
0.000490242
0.000499047
0.000403176
0.000402724
0.000488002
0.000428178
0.000534988
0.000492913
0.000568288
0.000468201
0.000565922
0.000654386
0.000570896
0.000748463
0.000615823
0.00069003
0.000689083
0.000615441
0.000643876
0.000497809
0.00052211
0.000385363
0.000412532
0.000298
0.000334764
0.000312074
0.000244683
0.000232329
0.000296782
0.000215208
0.000284703
0.000197
0.000305269
0.000341411
0.00019393
0.000174524
0
0
8.19166e-07
0
0.000603306
0.000696598
0.000623293
0.000811616
0.000500633
0.00123451
0.000395279
8.88922e-05
0.000590615
0.000186157
0.000414524
0.000131632
0.000373299
0.000336811
0.000425341
1.42699e-06
0
0
0
0
0
0
0
0
0
0
0
0
0
0
0
2.88958e-07
0
0
0
0
0
0
2.23145e-07
0
0
0
0
0
0
0
0
0
0
0
0
0
0
0
0
0
0
0
0
0
0
0
0
0
0
0
0
0
0
0
0
0
0
0
0
0
0
0
0
0
0
0
0
0
0
0
0
0
0
0
0
0
0
0
0
0
0
0
0
0
0
0
0
0
0
0
0
0
1.69233e-11
0
0
0
0
0.000944386
0.000681059
0.00081192
0.00103265
0.00108093
0.00106384
0.000614328
0.00071095
0.000552555
0.000538559
0.000439464
0.00064378
0.00120883
0.000917013
0.000167004
0.000207865
0.000173954
0.000264046
0.00014412
0.000100598
2.70858e-05
0.000393176
0.000124239
8.78377e-05
0.0001227
0.000252925
0.000171405
0.000163634
0.000110058
0
0
0
0
0.000136187
0.000162962
0.00018039
0
0
0.000144999
9.60192e-05
0
0
0
0
3.02274e-05
0.000111866
0
0
0.000143859
0
0.000106071
6.28944e-05
0.00010827
0.000116459
3.61478e-05
0.000169189
0.000277292
0.000225574
0.000246114
0.000257355
0.00029042
0.000140493
0.000109448
0.000206322
0.000227777
0.00015537
0.000122823
0.000153098
0.000199341
0
7.70455e-10
0
0
0
0
0
1.59721e-11
0
0
0
0
0
0
0
0
0
0
0
0
0
0
0
0
0
0
0
0
0
0
0
0
0
0
0
0
1.13799e-09
0
2.40965e-09
0
0
0
0
0
0
0
0
0
0
0
0
0
0
0
0
0
0
0.000148398
0.000120045
0.00011021
9.37322e-05
0.000106764
0.000145813
0.000125906
0.000101726
0.000158973
0.000100339
0.000143748
0.000101405
0.000134948
0.000103417
9.33177e-05
0.000118527
0.000200885
0.000104561
0.000103017
0.000115875
0.000126158
0.00035957
0.00038849
0.000375676
0.00026944
0.000237833
0.000312392
0.00026144
0.000329433
0.000208902
0.000230926
0.000226929
0.000209548
0.000144859
0.000140819
0.000149663
0.000185819
0.000227867
0.000171575
0.000204272
0.000176722
0.000424206
0.000520678
0.000121391
0.000721208
0.00159354
0.000927231
0.00110415
0.000469824
0.000455134
0.00113936
0.000483505
0.000760756
0.000791209
0.000324262
0.000360352
0.000337902
0.000372295
0.000356093
0.00040194
0.000756095
0.000421852
0.000361122
0.000344703
0.000344634
0.00036404
0.000366046
0.000346083
0.0010008
0.000752937
0.000607382
0.000647008
0.00065486
0.000589619
0.000782853
0.000619202
0.000954983
0.000938463
0.00103218
0.000975974
0.000760474
0.000614753
0.000944448
0.000745813
0.000580067
0.000541393
0.000513439
0.000508769
0.000499209
0.000501413
0.000489448
0.000484156
0.000470478
0.000461753
0.000382493
0.000391565
0.000432166
0.000434483
0.000435276
0.00048158
0.00058506
0.000536571
0.000520073
0.000561956
0.000559871
0.000614169
0.000437222
0.000409
0.000431402
0.000415379
0.000397021
0.00038525
0.000442916
0.000359898
0.000275429
0.000294826
0.000282744
0.000291117
0.000344605
0.000306406
0.000352628
0.000385206
0.000367256
0.000394681
0.000442069
0.000465587
0.000453392
0.000524135
0.000533297
0.000576879
0.000665317
0.000660908
0.000728837
0.000718296
0.00074255
0.000401415
0.000429741
0.000837042
0.000861978
0.000355042
0.000180087
0.000432972
0.00019273
0.000429088
0.000335332
0.000192741
0.000329428
0.000280083
0.000295904
9.91784e-05
0.000129417
9.05568e-05
9.36457e-05
0.000125271
3.80704e-05
7.24993e-05
5.86024e-05
0.000120926
9.19771e-05
9.01059e-05
0.000108952
0.000131897
0.00012057
0.000123973
0.000174329
0.000151967
0.000171311
0.00016432
0.000179766
0.000173826
0.000157706
0.000233508
0.000239428
0.000274586
0.00030321
0.000367734
0.000305194
0.000470333
0.000397216
0.000383863
0.000404774
0.000466109
0.000484982
0.000512889
0.00042987
0.000441965
0.000494269
0.000460531
0.000552465
0.000633594
0.000540934
0.000626049
0.000524827
0.000694224
0.000623063
0.000687093
0.000756984
0.000630461
0.000663509
0.000533311
0.000552029
0.000407122
0.000432201
0.000335813
0.00030334
0.000284836
0.000232616
0.000200077
0.000273344
0.000189942
0.00027451
0.000188233
0.000280179
0.000311101
0.000190381
0.000309432
0.000198475
0
0
0
0
0
0
0
0.000248852
0
0.000420131
0.00124579
2.69582e-05
0.000668327
0.000113962
6.21207e-05
0.000128947
0.000328868
0.000508662
0.000231143
0.000507916
0.000319495
0
0
0
0
0
0
0
0
0
0
0
0
0
0
2.78013e-07
0
0
0
3.34386e-07
0
0
0
0
0
0
0
0
0
0
0
0
0
0
0
0
0
0
8.09571e-08
0
0
0
0
0
6.75914e-10
8.2705e-10
1.41603e-09
0
0
0
0
0
0
0
0
0
0
0
0
0
0
0
0
0
0
0
0
0
0
0
0
0
0
0
0
0
0
0
0
0
0
0
0
0
0
0
0
0
2.97753e-09
0
6.58264e-10
0
2.32451e-09
0
0
0
0.000969473
0.000945458
0.000948107
0.000680478
0.000884929
0.000659716
0.000880741
0.000810232
0.000596539
0.000764542
0.000991184
0.00111397
0.000683275
0.000657837
0.000739137
0.000154313
0.000632267
0.000814219
0.00073225
0.000207641
6.31017e-05
0.000162714
0.000108883
0.000241106
6.36407e-05
0.000210084
0.000121955
0.000260215
7.38801e-05
0.000112853
0.000143997
7.03203e-05
4.6897e-05
0
0
0.000205368
0.000190282
0.000140657
0
0
8.98262e-05
0.00015542
0
0
4.5828e-05
0.000138395
0
8.94659e-06
0
0
5.09011e-05
0.000111913
1.30856e-05
3.48528e-05
2.71621e-05