/*--------------------------------*- C++ -*----------------------------------*\
  =========                 |
  \\      /  F ield         | OpenFOAM: The Open Source CFD Toolbox
   \\    /   O peration     | Website:  https://openfoam.org
    \\  /    A nd           | Version:  8
     \\/     M anipulation  |
\*---------------------------------------------------------------------------*/
FoamFile
{
    version     2.0;
    format      ascii;
    class       surfaceScalarField;
    location    "18240";
    object      phi;
}
// * * * * * * * * * * * * * * * * * * * * * * * * * * * * * * * * * * * * * //

dimensions      [0 3 -1 0 0 0 0];

internalField   nonuniform List<scalar> 
788991
(
-0.0287542
0.0476056
-0.0774911
-0.0463467
0.0658902
-0.0767401
-0.0652594
0.0522302
0.0311384
0.0290915
0.0260875
0.0337813
0.0401021
-0.0287275
0.0395475
-0.0606818
0.0795
0.028963
0.0141371
0.0710699
0.0287176
0.0278101
-0.0652592
-0.00310074
-0.0324539
-0.0132075
0.0262273
0.0224922
-0.0382331
0.0115063
-0.0530989
0.010314
0.0687245
-0.0471114
0.0156286
-0.0279525
-0.0498663
-0.0328569
-0.0679207
-0.00426301
-0.0797632
0.057625
0.0469075
-0.0413076
0.0869117
-0.0385889
-0.0436536
0.0766054
-0.050419
-0.0136772
-0.151651
-0.01779
0.0132868
-0.000936025
0.0932017
0.0522582
-0.00402633
0.0352253
0.0176937
0.0315442
0.0758545
0.00773054
-0.0538309
0.0989795
0.0267689
0.0371763
0.091039
0.0166978
0.0494304
0.0705208
0.000760594
0.0522753
-0.0186919
0.0272333
0.0347748
-0.00148416
0.0414232
-0.0665203
0.0210652
-0.00726876
0.0596211
-0.0603977
0.0581383
-0.0380234
0.0322351
-0.0419898
-0.0230267
-0.032341
-0.0132374
-0.0178329
-0.0113303
-0.060465
-0.0393217
-0.046706
0.0452817
0.0138881
-0.0456927
0.0711841
-0.057426
-0.0594264
-0.0118519
-0.0535692
-0.072958
-0.0438803
-0.0639536
-0.0308446
-0.0729444
0.0484064
-0.0580359
0.0677533
-0.0634533
-0.0749922
-0.0575282
-0.0372107
-0.0894999
-0.0522414
-0.0843039
-0.0249252
-0.0349929
0.0829761
0.0644409
-0.0944439
0.0669917
0.0053603
-0.0490196
-0.122665
0.0309226
-0.0393862
-0.0516007
0.0843871
0.0439726
-0.012112
-0.137517
-0.0667567
0.0834872
-0.0363558
0.00471859
0.0330212
0.0202913
0.0179176
-0.0214098
-0.00907746
0.0146587
-0.0224033
-0.0268476
-0.00989374
-0.0253355
-0.0395772
0.0168195
-0.0119682
-0.0426064
-0.0330693
-0.00952987
-0.0338818
0.0303375
0.0226797
-0.0601282
-0.0308793
-0.0764239
0.0533373
-0.0623917
0.0860272
-0.0272743
-0.0844996
0.0371761
-0.0348426
0.0611634
-0.0120089
-0.0591631
0.0325493
-0.0373251
0.0464115
-0.00215504
-0.0501344
-0.0356162
-0.0345495
-0.0434409
0.0168567
-0.0486501
-0.0435092
-0.0446015
0.0341582
0.0200655
-0.0378938
0.0443442
-0.0465822
0.0252257
0.0152459
-0.026735
-0.037309
-0.0392607
-0.0162388
0.016534
-0.0164025
0.0311919
-0.0304276
0.00953753
0.0146645
-0.011024
0.0332667
-0.0309792
-0.0208894
0.00891574
-0.0219632
-0.0434764
-0.0403865
0.0366155
0.0517317
-0.0438234
-0.0437692
-0.0478317
-0.014318
-0.0376101
-0.00586411
0.0221957
-0.0241727
0.0557874
0.0591469
0.0449649
-0.00939548
0.0969678
0.0232481
-0.0281482
-0.0923822
-0.013421
-0.0539108
-0.100886
-0.048058
-0.0686046
0.0332308
-0.0657787
-0.101385
-0.0187277
-0.0637337
-0.106598
0.0298948
-0.0645232
-0.0933426
-0.031324
0.028085
-0.0381869
-0.0474405
-0.032848
-0.0875257
0.0386097
-0.0274488
-0.0718669
-0.0389588
-0.0165655
-0.0641406
0.0313043
-0.0060134
-0.0512885
0.0379078
0.010945
-0.0534866
0.0435701
0.0140614
-0.0399674
-0.0425377
0.0120582
-0.0260138
0.0363741
0.0152223
-0.0158933
-0.0338104
0.0175377
-0.0139438
0.0371143
0.00584045
0.0446418
-0.0150935
-0.0527491
-0.0203896
0.053112
-0.050483
-0.0649583
0.00092959
-0.0127699
0.0702397
-0.0645334
-0.0367434
-0.0378488
0.0389501
0.0519922
-0.00473225
-0.0208298
-0.0371511
0.0208969
-0.00480879
0.0275693
0.00160451
0.0725399
-0.0647616
0.0793277
-0.00706797
0.0594756
0.0708144
0.0032614
-0.0513505
0.0609042
0.0202565
0.0389415
0.0739432
0.0453439
-0.0502983
0.0359906
0.0516934
0.0518139
0.0366847
-0.0639909
0.0518374
0.0539453
0.00313658
-0.0109269
-0.0827086
0.214259
0.0521505
0.181088
-0.0223415
-0.0147786
-0.119155
0.0609217
-0.0127974
-0.00824711
-0.0553896
-0.0323856
0.00876724
-0.0292954
-0.035301
-0.0505135
-0.022618
-0.00656048
-0.057789
0.0369384
0.00247714
-0.0442698
-0.0467725
0.00760221
-0.0667063
-0.0578136
0.0306484
-0.041373
-0.0771259
0.0344553
-0.0514534
0.0716402
0.0472014
-0.0451396
0.0960103
0.0285314
-0.0615273
0.0980403
0.0347966
-0.0493471
0.0833408
0.191667
0.0780218
-0.0496966
0.0688913
0.0414394
0.118495
0.164192
0.0276694
0.0325045
0.106357
-0.0210181
0.00515141
0.0341676
0.0219581
-0.00067079
-0.00143115
0.0139275
-0.025991
-0.0396005
-0.0200647
-0.00450089
-0.0233403
-0.0270183
-0.0277684
-0.0318582
0.0310159
0.0165495
-0.0365915
-0.0507079
0.0236737
-0.0477724
0.0644608
0.011663
-0.038662
-0.0479402
-0.00192004
-0.0382409
0.0398843
-0.0222783
-0.0470847
0.0284132
-0.0240341
-0.0492191
-0.0214444
-0.0182079
-0.0415265
0.0154447
-0.0707569
-0.06023
0.00860433
0.0886661
-0.0373914
0.0245624
-0.0942708
-0.0591006
-0.0660862
0.0803948
-0.0721635
-0.068242
-0.00305512
0.00858922
0.0653267
-0.01622
-0.0714979
-0.0183743
-0.0325055
-0.00896115
-0.0167381
-0.0321404
0.0181017
-0.0155453
-0.0409798
0.0295109
-0.0424449
-0.0494889
0.021413
-0.0728808
-0.0164068
-0.0620872
-0.0579276
-0.0993435
-0.0621197
0.0812361
-0.0224955
-0.000807662
-0.0119948
-0.0478078
0.0655594
0.0797797
-0.0548239
0.0917674
-0.00916788
-0.104767
0.0556838
-0.0242605
0.0812459
-0.00191683
-0.0692635
0.0609515
-0.0850576
-0.0751541
-0.0323352
-0.0954355
-0.100868
0.00772129
-0.0582761
-0.10522
0.0141388
-0.0779055
-0.0912744
0.0280016
0.0326806
-0.0305048
-0.0413403
-0.0355229
-0.0777636
-0.0394428
-0.0262918
-0.0734031
0.0344431
-0.017327
-0.0540551
0.0338869
-0.00896578
-0.0563097
-0.0387293
0.00716455
-0.0526204
0.0417461
0.0125072
-0.036525
0.0374959
0.0133906
-0.0202591
0.0323696
0.0152687
-0.0134268
-0.0332625
0.0251149
-0.0155853
-0.0392645
-0.00047035
0.0485023
-0.0525388
-0.0158919
0.0503073
0.0469148
0.00196687
0.0780756
0.0621343
-0.00875232
0.0689522
-0.0584197
0.0819367
0.0131807
-0.0572271
0.032504
-0.078451
0.021288
0.0574589
0.0219299
0.0835928
-0.0528919
0.0626063
-0.0618318
-0.00372331
0.0171799
0.0643692
-0.0861648
-0.0149097
-0.0481772
-0.0544572
-0.127852
-0.0442993
0.0847754
-0.0379761
-0.017143
0.0217318
-0.012491
-0.031131
-0.0463297
0.00998792
-0.0179425
-0.00694726
0.0741818
0.0518287
0.0444595
0.0492156
0.0865405
0.0230632
-0.044674
0.0904971
0.0388256
0.0372093
0.0815872
0.040394
0.0202376
0.0446726
0.0357173
0.0228777
-0.00824279
-0.0810836
-0.0732048
0.0900117
-0.0605932
0.113252
0.0185609
0.00835747
0.0168446
-0.00235829
-0.0606506
-0.0393001
-0.116586
0
-0.307077
0
0.101004
-0.0690795
-0.137049
-0.026153
-0.0114426
-0.143673
0.0307844
-0.0325922
-0.0141816
-0.0390107
-0.0323836
0.000562219
-0.0190683
-0.0269827
-0.038347
-0.040219
0.0277906
-0.0108753
-0.0401545
0.011956
-0.0603487
0.0576057
0.0454534
-0.0325853
-0.0610885
0.0305351
-0.0637071
0.0926711
0.0375555
-0.0436128
-0.0926587
0.032751
-0.0531802
0.0830292
0.0319994
-0.042199
-0.0733403
0.0232516
-0.046983
-0.0633779
4.80344e-06
0
1.15063e-05
0
0
-2.22356e-06
7.13223e-06
-1.52658e-05
1.0544e-05
2.98679e-06
4.29605e-07
0
0
0
0
0
0
0.0289505
-0.0676732
0.124827
0.0336398
0.020477
0.0213016
0.0325742
0.133724
0.00184247
0.0120385
0.11528
0.120759
0.00405465
0.0475369
0.125206
0.0192549
-0.00190871
0.0404741
-0.0198137
-0.0190166
-0.02582
-0.0201369
0.0180164
-0.0167211
0.0217459
-0.0122549
-0.0378187
-0.0353662
0.012804
-0.0346653
-0.036776
0.0204978
-0.0189684
-0.0457442
0.013234
-0.0362209
-0.0470416
-0.00324825
-0.0438794
0.0387712
-0.0241304
-0.0475552
-0.025794
-0.0266362
-0.0491665
0.0178015
-0.0190556
-0.0420637
0.0123194
-0.0180417
-0.0342898
-0.00750149
-0.0687786
-0.0600904
0.00579343
-0.0811187
-0.035069
0.0681386
-0.0654718
-0.0018604
-0.0860638
-0.097712
0.0608984
0.0199634
-0.0739504
-0.0633246
0.0549783
0.00731615
-0.0175546
-0.0323242
-0.0135567
-0.0197938
-0.0390224
-0.0233894
-0.0316675
-0.049067
-0.0286217
-0.0191828
-0.0603134
0.0395761
-0.0722306
-0.0688945
-8.83999e-05
-0.0746501
-0.00519343
0.00369046
0.071201
-0.102303
-0.0775743
0.0283286
-0.0579241
-0.061703
-0.00239989
-0.0609752
-0.0652845
-0.00990775
-0.0671919
-0.0666352
-0.000234875
0.0113953
0.0356214
-0.043259
0.0747893
0.0052236
-0.0628769
0.10039
0.0928426
-0.0675613
0.0849915
0.00108692
-0.0885342
0.00945159
-0.00576964
0.0752649
-0.0557364
-0.0387572
0.0168128
-0.102668
-0.0771449
0.00559326
-0.106889
-0.0983397
0.00827618
-0.0708081
-0.102832
-0.000978097
-0.0752452
-0.0825443
-0.0163877
-0.0357397
-0.0331694
-0.030601
-0.0312847
-0.0673637
-0.0357233
-0.0246263
-0.0581186
0.0328994
-0.019279
-0.0631951
0.0381124
-0.00906318
-0.0518754
0.0355394
0.00757925
-0.048921
0.0345264
0.0144513
-0.0278073
0.0302752
0.0150707
-0.0149702
-0.0305729
0.0178368
-0.0135482
0.0353906
0.0287354
-0.0164459
0.0406169
-0.0014822
0.0538437
-0.0502223
-0.0135934
0.0509882
-0.0443854
0.00739175
0.0739055
-0.0564283
-0.00210139
0.0693909
0.0534466
0.0755038
0.0155991
0.0549844
0.0256423
0.0766295
-0.0571994
0.0197702
0.0810438
-0.0550687
0.0730576
0.0178023
-0.0686007
0.0768629
0.00666708
0.0679784
0.0994154
0.0324559
0.00811523
0.0660195
-0.0853102
-0.0192579
-0.0096878
-0.101319
0.0498768
0.0405894
0.0469929
0.0590686
0.067191
0.00784247
0.0980732
0.025363
0.0217753
0.0182814
-0.024459
0.0192828
0.0821136
0.0134413
-0.0618033
0.0857726
0.0393273
-0.038786
0.0718242
0.0551108
-0.0158193
0.0384036
0.0636936
-0.00515278
-0.0114458
0.0491182
-0.0307046
0.0392043
-0.0982125
-0.0989828
0.0171198
-0.0105586
0.0161293
0.0789153
0.0112718
-0.0667252
0
0
0
0
0
0
-0.179763
0
-0.0456018
-0.10154
-0.0771927
0.00479629
-0.0397661
-0.118906
0.0791586
0
0
0
0
0
0
0
0
0
-9.1451e-06
0
-4.79525e-06
0
-2.04378e-05
-2.0822e-05
-1.0862e-05
0
1.27269e-05
-4.22947e-05
1.2047e-05
0
1.78292e-05
0
0
0
0
0
0
0
0
0
0
0
0
0
0
0
0
0
-0.0256898
0.0602716
0.0407579
-0.0217419
0.00448085
-0.0293836
0.0319148
-0.010275
-0.0515414
0.0103816
-0.038031
0.0558622
0.0211245
-0.030065
0.0780769
0.0100854
-0.0650343
-0.0753403
0.0305295
-0.0467765
0.0775308
0.0320998
-0.047625
0.0706546
0.0228595
-0.0402189
-0.0654102
0.0269598
-0.0299084
0.0514504
0.00941562
0.0417332
-0.0412748
0
0
0
0
0
0
0
0
0
3.65393e-06
0
0
0
0
0
0
0
0
0
0
0
0
0
0
0
0
0
0
0
0
0
0
0
0
0
0.113889
0
0.0425493
0.0514625
-0.0168979
-0.0386843
0.0203395
0.00921443
0.0269486
0.0980738
0.0109104
-0.00322023
0.140481
0.0938641
-0.00987732
0.0619399
0.119763
0.0241145
0.00817179
0.0487158
0.0216208
0.00268842
-0.00749574
-0.00840651
0.000534393
-0.0266069
-0.0179507
0.00219607
-0.0266501
0.0265567
0.012254
-0.0194888
-0.0295694
0.00117785
-0.0230482
0.0430953
1.77978e-05
0
0
-4.80595e-05
-1.45867e-06
0
0
2.06296e-05
0
0
0
0
0
0
0
0
0
0
0
0
0
0
-0.00505344
-0.0418254
-0.0371665
-0.0260307
-0.0465922
-0.022491
-0.0278692
-0.0472836
0.0150503
-0.0195314
-0.0409529
0.00992397
-0.0175451
-0.0345099
0.00492803
-0.0173425
-0.0324457
-0.010162
-0.0605191
-0.0635025
0.00654236
-0.0314892
-0.070542
-0.0330894
-0.0798296
-0.0632591
0.00859231
-0.0728403
-0.0703353
0.000675974
-0.0622138
-0.0569106
-0.000945356
-0.0546344
-0.0681696
-0.00683753
-0.0188283
-0.0369006
0.0193004
-0.0242641
-0.0478107
-0.0252184
-0.0217849
-0.0561623
0.0276038
-0.0601578
-0.04995
-0.00108423
-0.0695557
0.117039
0.0346797
-0.0660681
0.0492363
-0.0730988
-0.11612
-0.0467715
0.0510367
-0.069371
0.114338
-0.0659583
0.0452647
-0.103842
-0.0740956
0.0220037
-0.118759
-0.0782197
0.046433
-0.057057
-0.067827
0.0109383
-0.0969343
-0.0712061
-0.01421
-0.0735967
-0.063827
-0.00703447
0.0449341
0.0346983
0.00576808
-0.053369
0.051159
-0.00862132
-0.124587
0.0948907
-0.0959485
0.0623183
0.037807
0.048242
-0.00789727
0.000605657
-0.000363727
-0.0886067
-0.0225155
0.0245458
-0.1299
-0.0573645
0.0402896
-0.115631
-0.0898764
-0.0365826
-0.0640227
-0.0833436
-0.0103489
-0.0607085
-0.06112
-0.0116926
-0.0344274
-0.0322897
-0.0272198
-0.0312954
-0.0582465
0.0321552
-0.0309854
-0.0662612
-0.0402578
-0.0170117
-0.0532162
0.0309622
-0.00781276
-0.0511927
-0.0320432
0.0092161
-0.0361972
0.0259454
0.015035
-0.0204666
-0.0265172
0.0161945
-0.0136809
0.0319186
0.0209299
-0.0145259
-0.0379178
0.0314897
-0.014697
-0.0408424
0.00110101
0.0570411
-0.047932
-0.00944523
0.0508015
0.0430471
0.0114538
0.0741482
-0.0568451
0.000986233
0.0712618
-0.0538046
0.0771578
0.0156355
-0.057354
0.0260657
0.0868753
-0.0632135
0.0202713
0.0922829
-0.0607326
0.0779769
0.0251238
-0.0640701
0.0721142
0.0118995
-0.0611245
0.0993241
0.00940722
-0.0634536
0.11842
0.0328187
0.0659836
0.126342
0.0446404
0.0469673
-0.0794457
0.084228
-0.0850293
0.13692
-0.0490865
0.0452183
0.126638
0.050584
0.13082
0.047475
-0.0771965
0.104308
-0.077065
-0.0442568
0.0492385
-0.0613774
0.0931282
-0.0607287
0.0498521
0.0419033
-0.0443812
0.076759
-0.0458881
0.0513266
0.0450275
0.0303383
-0.0417145
-0.0297109
0.0234841
0.0422294
-0.0182343
0.0286039
-0.0210979
0.0107983
0.0199056
-0.0137251
0.02825
-0.019836
-0.0109213
0.0130779
-0.0126695
-0.0172401
0.0308033
-0.0177229
0.015374
0.0104593
-0.0717633
-0.00695455
-0.111052
0.138884
-0.117427
0.0503535
-0.158992
-0.0772033
0.0273082
0.103061
-0.0489694
0.0539762
-0.0427394
0.0456116
0.0598062
-0.0131701
0.0199155
-0.113302
-0.0962737
0.0919328
0.0175297
-0.0594222
0.0695954
0.0635462
-0.0205695
0.0600413
0.0624537
-0.0169835
0.0147714
0.0761806
-0.0392754
-0.0780998
0.0470688
0.109122
0.0131981
-0.0958645
-0.000882534
0.0724132
-0.0134793
0.0369768
0.0763702
0.0222669
0.0519459
0
0
0
0
0
0
-0.0839356
0
0
-0.0303759
0.0116026
-0.0204782
-0.0456546
-0.0718372
-0.123338
0
0
0
0
0
0
0
9.53402e-05
1.6126e-05
0
0
0
0
0
0
0
0
0
0
0
0
-5.83771e-05
0
0
0
0
0
-6.99894e-05
5.63284e-05
0
-8.68411e-05
0
4.10282e-05
0
0
0
-3.15361e-05
0
0
0
4.77089e-05
-3.12167e-05
0
-6.14783e-05
-0.000177054
1.32423e-06
-1.19538e-05
0
-0.000139769
0.000187987
0
9.61168e-06
0
-5.35693e-05
0
0
0
0
0
0
0
0
0
0
0
0
0
0
0
0
0
0
0
0
0
0
0
0
-0.0310258
0.0391758
-0.0260845
-0.0285552
-0.0310802
0.0388334
-0.0017044
-0.0534074
0.0488944
0.00325369
-0.0579113
-0.0459267
0.013184
-0.0690276
-0.0702007
0.0292087
-0.044633
0.0718631
0.0266011
-0.0398877
0.0731155
0.00442078
-0.0127619
-0.0279257
-0.0422221
0.0274604
-0.0287148
0.0487105
0.016172
-0.0352824
0.0350845
0.0379828
-0.0276747
0
0
0
-2.71615e-05
2.71006e-05
5.43334e-05
0
0
0
0
0
0
4.02618e-05
0
-1.48472e-05
0
0
0
0
0
0
0
0
0
0
0
0
0
0
0
0.0681828
0.0298746
-0.0717626
0.0291938
0.0529731
-0.0551021
-0.000290257
-0.00861234
0.0124087
0.107063
-0.00331695
-0.020707
0.135918
0.0826525
0.0151364
0.0529894
0.113552
-0.00522196
-0.00340978
0.0361943
0.000858728
-0.0214027
-0.0135333
-0.0170893
-0.00679031
-0.0142371
0.0211671
0.000952894
-0.0128215
0.0324568
-0.0206566
-0.0386188
-0.0279575
0.0135483
-0.0300497
-0.0335354
0
0
0
0
0
0
0
-5.26047e-07
0
2.96892e-07
0
-5.38351e-07
-6.70301e-08
0
0
0
0
0
0
0
0
0
0
0
0
0
0
0
0
0
0
0
0
0
0
0.00492067
0.0326816
-0.00536226
-0.0307543
-0.0452349
0.0153139
-0.0323898
-0.0436432
0.00968371
-0.0211429
-0.0357795
0.00692818
-0.0187888
-0.0312337
-0.00319602
-0.0200674
-0.0313375
0.00796866
-0.0219121
-0.035874
0.0173618
-0.0322074
-0.0677577
0.0224538
-0.0749246
-0.057485
0.00507628
-0.0704612
-0.0690957
0.00329656
-0.0672677
-0.0749552
-0.0126313
-0.0623419
-0.0631408
-0.0047347
-0.0455069
-0.0674217
0.0199721
-0.0274758
-0.046274
0.0198592
-0.0294042
-0.0529557
0.0158915
-0.0495809
-0.0481449
7.61354e-05
-0.0572489
-0.049526
0.00441083
-0.0710766
-0.133174
-0.0438874
-0.0700975
-0.113551
-0.0447496
-0.0726822
-0.114667
-0.0406831
-0.114564
-0.0674693
-0.0420708
-0.0868869
-0.121538
0.044993
-0.0880533
-0.131993
-0.0447005
-0.112507
-0.0787013
-0.0483014
-0.101431
-0.0638229
0.0619634
-0.057825
-0.0423363
-0.0302964
-0.0352206
-0.0303362
-0.0101283
-0.0318078
-0.0268818
0.00904298
-0.0339645
-0.0244368
0.0146885
-0.0127055
0.0209303
0.00615582
-0.0327258
0.025188
-0.0196538
-0.0367916
-0.023859
-0.128161
-0.0812628
-0.0472083
-0.114299
-0.0759163
0.0402463
-0.0866744
-0.0678713
-0.0115027
-0.1294
-0.0445698
-0.0748456
-0.0806266
-0.083404
-0.00216939
0.0840326
0.0865967
0.0189306
0.0847466
0.0433766
-0.014238
0.0346321
0.10398
-0.0191422
0.029178
0.0361279
-0.000840856
-0.0520701
0.0240406
0.0485278
-0.127545
0.00117409
-0.0670289
-0.151939
-0.0508335
0.0731204
-0.11123
-0.0770514
-0.058317
-0.0525837
-0.0595336
0.0141026
-0.0508897
-0.0448332
0.0121411
-0.0313967
-0.033291
-0.0268011
-0.0376612
-0.0607752
0.0351911
-0.0247937
-0.0604674
0.0291493
-0.0164837
-0.0563386
-0.0322742
-0.00189373
-0.0343325
0.0223094
0.00953933
-0.0285747
-0.0244955
0.0148533
-0.0165529
0.0273998
0.0178182
-0.0125879
-0.0323497
0.0234348
-0.0122768
0.0376443
0.0328245
-0.0115559
-0.0410092
0.00273453
0.0544667
-0.0484174
-0.00876731
0.0483181
0.0437212
0.0118818
0.0769496
0.0581777
0.000777617
0.0706712
-0.0561302
0.0844277
0.0173877
-0.0596688
0.0334009
0.097041
-0.0635684
0.0259105
0.1052
0.0620424
0.0760741
0.0339908
-0.0628793
0.071306
0.0101437
0.0637061
0.0971212
0.00341156
-0.063169
0.121939
0.0286786
-0.0727583
0.0825645
0.0464891
0.127314
0.130366
0.0471142
0.0795475
0.110446
0.0467549
-0.0654114
0.0865351
0.0454607
-0.0457366
0.0728927
0.040195
-0.0305391
0.0585438
0.0402159
-0.0186635
0.0321736
0.0371508
-0.00998438
0.0255439
0.0204337
-0.00713367
0.0263404
0.0178168
0.00581062
0.0283093
0.0207336
-0.00371814
0.0293444
0.0276023
0.0252648
0.000651547
0.029584
-0.000851863
0.0323796
0.0301837
-0.00520741
-0.028416
0.00295935
0.0351096
0.00812675
0.0343322
-0.0515441
-0.0149069
0.105524
0.15555
-0.109512
0.116186
-0.183657
-0.00310859
0.0654461
0.159244
0.0570814
0.132011
-0.0556863
0.0696224
0.0957241
-0.0129976
0.0814743
0.0456067
-0.0102418
0.0300611
-0.100141
-0.140139
0.103253
0.0395308
-0.0294801
0.063574
0.127669
-0.0093362
0.0376004
0.0750809
0.0559279
-0.0786061
0.0854364
-0.148633
-0.109049
0.070418
0.150627
0.051557
-0.178931
-0.0281134
0.0591534
-0.0208986
-0.0146172
0.0643966
0.0118793
0.0292709
0
0
0
0
0
0
-0.00954006
0
0
-0.0559223
0
0
-0.00422245
0.0479494
-0.103569
0
1.00122e-05
0.000137432
0
0
0
0
6.79529e-05
0
0
0
0
0
0
0
0
-6.21639e-09
-6.17594e-07
0
0
0
0
0
0
0
0
0
0
0
0
0
0
0
3.086e-05
0
0
9.35476e-06
0
0
0
0
0
0
0
0
0
0
0
0
0
0
0
0
0
0
0
0
0
0
0
0
6.11752e-07
0
0
0
0
-0.0545492
-0.0361508
-0.0216176
-0.032579
-0.00688276
0.0594223
0.0206361
-0.0407662
0.0477404
0.0105867
-0.0393158
0.0740603
0.0307821
-0.0321042
0.0680735
0.0199731
-0.0458197
-0.0571128
0.024579
-0.024259
-0.0278701
-0.0187141
-0.0393966
-0.00732224
-0.046469
-0.00653556
0.0238684
0.0391808
0.0152284
-0.0166056
0.0462149
0.0146833
-0.0336559
-3.23627e-05
0
-9.45952e-06
6.48101e-05
-1.11557e-05
-1.1513e-06
0
0
0
0
0
0
0
0
0
0
0
0
0
0
0
0
0
0
0
0
0
-0.115028
0
-0.00901653
0.0338606
-0.0173374
-0.0186456
-0.00854542
-0.00357895
0.0401475
0.0246476
-0.0285843
-0.0260049
0.10766
-0.0266886
-0.00185783
0.108553
0.0695697
0.00942457
0.0342651
0.111361
-0.00170786
-0.00691384
0.0499111
0.00237213
0.0118024
0.00505111
0.0110547
-0.000993755
-0.00533597
-0.0248817
0.00753786
-0.0245386
-0.0281543
0.00677905
0.0439472
-0.0204049
0.0213786
-0.00993772
0.0346829
0
0
0
0
0
0
0
0
0
0
2.85358e-07
0
0
0
0
0
0
0
0
-0.00754323
0
0
0
0
0
0
0
0
0
0
0.00368076
0
0.00281915
0
0
0
0
0
0
0
0
0
0
-0.00656619
0
-0.0362204
-0.039466
0.000964651
-0.0248175
-0.0283117
-0.000503707
-0.0208556
-0.0223258
0.00212777
-0.0213335
-0.0282344
-0.0105311
-0.0454593
-0.0369427
-0.038494
0.00566558
-0.0261883
-0.0365032
0.0204036
-0.0342189
-0.0468402
-0.0194273
-0.066397
-0.0639953
-0.000353225
-0.073159
-0.0666488
-0.00190935
-0.0658422
-0.0776392
0.0160506
-0.0768599
-0.087075
0.0131568
-0.0462696
-0.0597084
0.0209416
-0.0662732
-0.0662572
-0.00621426
-0.034447
-0.0475315
0.00573398
-0.0434955
-0.0403591
0.00816255
-0.0504839
-0.0437912
-0.000529226
-0.0414539
-0.0514776
-0.0164342
-0.00803038
-0.00508314
0.0328959
-0.0292277
0.024182
-0.0265957
0.00598641
0.0354618
0.0429855
0.0342648
-0.0368348
0.0443749
-0.0513765
0.00654607
0.0467471
0.0399005
-0.0243942
0.0058518
0.0352882
-0.0108242
0.0358166
-0.0250333
0.0342069
-0.0147114
0.00976793
0.037933
-0.024558
0.0412161
-0.0185279
0.0152739
-0.045056
0.0395465
-0.0302354
-0.0296248
0.0147263
0.0433885
-0.032834
-0.00665403
0.0301569
-0.032303
-0.00239405
-0.0340133
-0.0300429
0.00133965
0.0361254
-0.0764395
-0.132291
-0.0357708
-0.069267
-0.111206
-0.0412684
-0.0746163
-0.111915
0.0359873
-0.11359
-0.0692164
-0.0315248
-0.0870255
-0.126275
0.0470958
-0.0964766
-0.134102
0.0292189
-0.128174
-0.0808523
0.0702521
-0.0759482
-0.0596963
0.033983
-0.0436682
-0.0447425
0.00904704
-0.0378618
-0.0368244
0.00672729
-0.0397259
-0.0322122
0.0146735
-0.0429484
-0.0264778
0.024412
-0.0131079
-0.0362756
0.0286109
-0.0198173
-0.0416294
0.0282684
-0.0776096
-0.11924
-0.0356769
-0.121304
-0.0775631
-0.116584
0.0287326
-0.112697
-0.0782497
-0.0336449
-0.0797566
-0.0427472
-0.0282049
-0.0883891
-0.0486403
0.0205664
0.0231146
0.0250106
0.0349433
0.0135933
0.0181666
0.0357134
-0.0165538
0.0192521
0.0332244
0.0218207
0.017769
0.0401891
0.0250721
0.00704124
0.0464991
0.033165
-0.0169352
0.0287873
0.0464962
-0.0123056
0.0280566
0.0552863
0.0482058
-0.00921279
0.0474839
0.0636569
0.0733661
0.0657125
-0.0160868
0.0335227
0.0666146
0.0244367
0.0496286
0.0153573
0.016666
-0.0180699
0.0383101
0.0580281
-0.0750642
0.0336224
-0.0788699
-0.140787
0.00846223
-0.0849361
-0.161697
-0.0458378
-0.0971055
-0.0836406
-0.0540399
0.0541283
-0.0414865
-0.034101
0.00155756
-0.0490322
-0.0474937
0.0178649
-0.0229813
-0.0299701
-0.028108
-0.0290504
-0.0618732
-0.0291751
-0.0218529
-0.0581331
0.0260142
-0.00439174
0.0177957
-0.0372983
1.50745e-05
-0.0251724
0.0265918
0.0103522
-0.0213561
-0.0249454
0.0161934
-0.0150619
-0.0285237
0.021731
-0.00840417
0.0309164
0.0257998
-0.00742052
0.0366563
0.0295033
-0.0114958
0.0442168
0.00231538
0.0551999
-0.0524293
-0.016497
0.0493544
-0.0447682
0.0125235
0.0794603
0.0602102
0.00176591
0.0754646
-0.0606911
0.0921031
0.021015
-0.0605965
0.0421115
0.102999
-0.0613933
0.0314257
0.106465
0.0595397
0.0757077
0.0340015
0.0657263
0.068794
0.00411453
-0.0734687
0.102291
-0.00849426
-0.0678568
0.0825633
0.0307533
0.130444
0.112984
0.0278328
0.0846564
0.113087
0.044567
-0.0706049
0.093168
0.0417867
-0.0512344
0.0700605
0.0409206
-0.0320023
0.057163
0.0360492
0.0186657
0.0457063
0.036342
-0.00939592
0.0270162
0.0343439
0.0024331
0.0243001
0.0236942
-0.000114288
0.0252867
0.0246747
0.00135319
0.0259201
0.026829
-0.00363531
0.0253388
0.0299587
-0.00701697
-0.0110954
0.0319171
-0.0593262
0.0372634
-0.0800971
0.101603
-0.0804602
0.0489686
-0.135486
-0.128684
0.0657299
-0.202981
0.0311407
0.0686431
0.0370067
0.100773
0.0121769
-0.0784082
0.0688273
0.0451165
0.0316842
0.0657765
0.0242621
0.00819693
0.0484648
-0.057326
-0.129442
0.151978
0.0543123
0.0392489
0.0471693
0.160431
-0.0593177
-0.0744095
0.0625915
-0.156737
-0.143107
0.0847208
-0.265875
-0.169309
0.0874368
0.173355
-0.0120966
0.0613403
0.00697665
0.0573278
-0.00706502
0.0229402
-0.0472658
0.0792934
0.0198595
-0.0633201
0
0
0
0
0
0
0
0
0
-0.0208664
0
0
-0.0160989
0
-0.110425
0
0
0
0
0
0
0
0
0
0
0.00316398
0.00201436
0
0
0
0
0
0
0
0
0
0
0
0
0
0
0
0
0
0
0
-2.84907e-06
4.8368e-06
0
0
0
0
-0.000108227
9.7585e-05
0
0
0
0
0
0
0
0
0
0
0
0
0
0
0
0
0
0
0
0
0
0
0
0
0
0
0
8.08295e-06
0
-3.61833e-05
0
0
0
-6.75302e-06
0
1.41817e-05
0.0587608
0.0501984
-0.0385467
0.0323674
0.0486761
-0.072461
0.0435948
-0.0198749
-0.0168011
0.0144605
0.0403118
-0.0229021
0.0498382
-0.0419129
0.0120552
-0.02166
0.0542704
0.0138056
-0.0491048
-0.0477912
0.0322585
-0.0240192
0.0399464
0.023691
-0.00806455
0.0591539
0.000229837
-0.0310995
0.00389469
-0.0292715
0.00150044
-0.0469651
-0.00426576
0.0147014
0.0385429
-0.0209132
0.0257502
2.66052e-06
0
0
0
0
0
0
0
0
0
0
0
0
0
0
0
0
0
0
0
0.0364412
0.0836432
-0.0199307
0.013004
0
0
0
0
0
0
0.0673576
0.0360069
-0.0696659
0.00145786
0.0686352
0.0589817
0.00065943
0.0551704
-0.00437781
0.0175784
-0.00777756
0.0933998
0.0574372
-0.00123699
0.0404767
0.0890704
-0.0078718
0.000379203
-0.0250068
-0.0283889
-0.0198974
0.0144987
0.047572
0.0058497
0.0170717
0.000618376
-0.00414411
0.00538236
-0.00759069
0.0230197
0.034426
0.00397431
-0.0246768
0.0536784
-0.00949361
0
0
9.13197e-06
8.21235e-07
0
0
0
0
0
0
0
0
0
0
0
0
0
0
0
0
0
0
0
0
0
0
0
0
0
0
0
0
0
0
0
0
0
0
0
0
0
0
0
0
0
0
0
0
0
0
0
0
0
0
-0.0373038
-0.046581
-0.031498
-0.00936745
-0.0215997
-0.0206703
-0.00709376
-0.0192156
-0.014781
-0.00344898
-0.0191473
-0.021992
0.0108122
-0.0191444
-0.0320633
-0.0234243
-0.0158592
-0.0225904
0.0134915
-0.0258819
-0.0407208
0.0316297
-0.0273066
-0.0399278
-0.0193525
-0.0753574
-0.0720593
0.00525928
-0.07377
-0.0822805
0.0129424
-0.0758341
-0.0856441
0.00745818
-0.0615782
-0.0856021
-0.0182705
-0.0604832
-0.0610583
0.011759
-0.0672317
-0.0764339
-0.0179763
-0.0367523
-0.0320804
0.00558964
-0.0536206
-0.0424595
0.00600162
-0.0474052
-0.0522213
0.00948251
-0.0559192
-0.0534351
0.000739305
-0.015327
0.0199263
0.0310736
-0.00499634
0.022641
0.0503428
0.0148293
0.0341285
-0.0476523
-0.026274
0.0287779
-0.047681
-0.0285636
0.00609438
-0.0392126
-0.0296989
0.0100429
0.0445237
-0.0246984
0.0162399
-0.0451352
-0.00480928
0.0221436
-0.0412711
-0.0365976
-0.00795401
-0.0329963
-0.0350221
-0.00395202
0.0366967
-0.0330669
0.00132794
-0.0390401
-0.0849957
-0.131085
-0.0190636
-0.0727954
-0.103052
0.0282496
-0.0797746
-0.107899
-0.0247065
-0.106962
-0.0766641
0.0140149
-0.107786
-0.152354
0.0803942
-0.0156183
-0.110471
-0.0938152
-0.000490449
-0.0721822
-0.0965493
-0.0335623
-0.0973786
-0.107638
0.0247881
-0.056671
-0.0635339
0.00960819
-0.0452735
-0.0478303
0.0053087
-0.0476593
-0.0401771
0.014616
-0.0512143
-0.0335737
-0.0260064
-0.0482767
-0.026587
-0.0287576
-0.0142083
-0.0412867
-0.032315
-0.0211974
-0.0475476
0.0325553
-0.109207
-0.0697981
0.0246238
-0.0822765
-0.114998
0.0344408
-0.084392
-0.124993
0.0356738
-0.108373
-0.0826554
0.0230749
-0.0611751
-0.0940556
-0.0238895
-0.0760511
-0.084794
0.0120868
0.020295
0.0209694
0.0347395
-0.0170531
0.0175827
0.0362846
-0.0194205
0.0111848
0.0225329
0.0361567
0.0135876
0.0338896
0.0286135
0.00934375
0.039934
-0.0346091
-0.0122402
0.0459181
0.0389154
-0.0221558
0.0309074
-0.0538397
-0.0201118
0.0236657
0.0674101
-0.0277491
0.0442796
-0.0726568
0.0126556
0.0375566
0.00368526
0.0309741
-0.0415966
0.037807
0.0463395
0.0774235
0.0726613
0.0643556
0.0456563
0.00718241
0.0554505
0.0623036
0.0238181
-0.00799588
0.0669189
-0.0432967
0.0556174
0.097092
-0.0910188
0.0380584
-0.103801
-0.160762
0.00898844
0.118616
-0.11248
-0.0367771
0.0847743
-0.0434181
-0.0396083
-0.00204223
-0.0337857
-0.0422034
-0.0103229
-0.0539179
-0.0478219
0.0223996
-0.0154283
-0.0244221
-0.0248303
-0.0207593
-0.0558251
0.0250843
-0.0109915
0.00134215
-0.0252713
-0.0461723
0.00993317
-0.0269998
0.0025768
-0.0198507
0.0280943
0.0103714
-0.0207477
0.0294438
0.0202758
-0.0108521
-0.028161
0.0270721
-0.00413044
0.0313153
0.0283697
-0.00503956
-0.0380581
0.0220251
-0.0129633
-0.0538563
0.00305788
0.0633753
0.0606604
-0.0328104
0.0625565
0.0589226
0.0164611
0.0851919
-0.0620408
0.00254735
0.0807515
0.0628617
0.0963927
0.0260948
-0.0615915
0.0416622
0.0986429
-0.0612382
0.0330348
0.103182
-0.061413
0.0787183
0.0306309
-0.0686535
0.063618
0.00421586
-0.0842504
0.083148
-0.0252979
0.115598
0.0571985
-0.0771566
0.117697
0.0358446
-0.0731675
0.0937039
0.0413783
-0.054146
0.0730493
0.0378123
0.0348547
0.05312
0.0359291
-0.0194455
0.0447373
0.0314991
0.00924109
0.0358029
0.0333549
-0.00197039
0.0235876
0.0322028
0.00500172
0.0233107
0.0280859
0.00822477
0.0240485
0.0314372
-0.00943413
0.0230118
0.0332307
-0.0114632
-0.0143146
0.0344833
-0.0152459
0.082897
0.0964226
-0.155382
-0.0816548
0.0395026
0.24153
-0.13903
0.0392967
0.0801457
0.119391
0.201069
-0.229071
0.106377
-0.086738
-0.130323
0.088237
0.015615
0.0716368
0.0324833
0.0201795
0.011923
0.0271019
0.0255517
0.0429845
-0.0558023
-0.020145
0
0.149106
0.0978687
0.0190657
-0.103233
0.108034
-0.323262
-0.276875
0.0905274
0.258036
-0.06384
-0.0185988
0
0
0
-0.0470421
0.027324
0.0505761
0.0431161
-0.126412
0.00949335
-0.0238728
-0.261409
-0.109941
0.0871737
-0.174825
-0.03635
0
0
0
0
0
0
0
0
0
0
0.0039109
-0.0032152
-0.12804
0
0
0
0
0
0
0
0
0.00667524
0
-0.00222172
0
-0.000727078
0
0
0
0
4.8175e-06
0
-2.80598e-05
0
0
0
0
0
0
0
0
0
-8.14661e-06
-1.18239e-05
-5.90245e-05
0
2.14404e-05
0
-1.61919e-05
-7.45438e-05
5.9982e-05
0
-7.87525e-05
0
0
0
0
7.59838e-06
0
-5.51142e-05
0
-9.25532e-06
-1.70287e-05
0
0
0
0
0
0
0
0
0
0
0
0
0
0
0
0
0
0
0
0
0
-3.97767e-06
0
5.87522e-06
0
0
0
-3.69085e-05
0
0
0
0
0
0
0
0
0.0654844
0.0271215
0.0731295
0.00370044
0.0645592
0.0388918
-0.025332
0.085119
0.0495193
0.0865092
-0.0326889
-0.0402048
0.0677482
0.029282
-0.0420285
0.014262
-0.0437886
-0.0281509
-0.00583365
0.0372333
0.0258978
-0.0360727
0.0419106
0.0318425
0.00585634
-0.0613448
0.00576324
-0.0258527
0.0200376
0.00576109
-0.00899704
0.0377634
-0.022616
-0.0264429
0.00637685
-0.0342139
-0.00321429
0.0401329
-0.0392444
0.00745316
0
0
0
0
0
0
0
0
0
0
0
0.0430241
0.0577501
0.0162208
0.0172232
0
0
0
0
0
0
0.0196416
0.0266576
0.000366835
0
0
0
-0.0175754
0
0.0790605
0.00223585
0.102596
0.000672992
0.029488
0.0417438
-0.00679912
0.0220774
0.026508
0.0360219
0.0486928
0.00997022
-0.0165382
0.0670896
0.0437348
-0.00832069
0.0237479
0.0663838
0.00260614
0.0188908
0.0405313
0.0209118
-0.00968912
0.0382911
0.00868716
0.0156799
0.026915
-0.00913992
0.00515759
0.00284608
0.0201872
0.00737363
-0.00975116
-6.71116e-08
0
0
7.04464e-07
0
-7.67579e-06
0
0
0
0
1.2496e-09
0
-1.46192e-06
0
1.4662e-06
0
0
0
0
0
0
0
4.69663e-05
0
6.93837e-06
4.61251e-05
7.09424e-06
-5.24746e-05
0
0
0
0
0
0
0
0
0
0
0
0
0
0
0
0
-1.27317e-05
7.18741e-05
0
0
0
0
0
0
0
0
0
0
0
0
0
0
0
0
0
-4.0492e-05
0
6.31233e-05
-0.0319369
-0.0457905
0.0199772
-0.0137727
-0.0257383
-0.0141748
-0.0180522
-0.0177488
-0.0117346
-0.011402
-0.0179833
-0.0195798
-0.00215042
-0.0150468
-0.0272087
0.0129278
-0.0127488
-0.0311401
0.0239726
-0.0116192
-0.0245224
0.0174794
-0.0155903
-0.036805
0.0326833