/*--------------------------------*- C++ -*----------------------------------*\
  =========                 |
  \\      /  F ield         | OpenFOAM: The Open Source CFD Toolbox
   \\    /   O peration     | Website:  https://openfoam.org
    \\  /    A nd           | Version:  8
     \\/     M anipulation  |
\*---------------------------------------------------------------------------*/
FoamFile
{
    version     2.0;
    format      ascii;
    class       volScalarField;
    location    "14220";
    object      alpha;
}
// * * * * * * * * * * * * * * * * * * * * * * * * * * * * * * * * * * * * * //

dimensions      [0 0 -1 0 0 0 0];

internalField   nonuniform List<scalar> 
526318
(
0.000423988
0.000328613
0.000165658
0.000211599
0.000197114
4.86967e-05
0.000112521
9.93959e-05
0.00031129
0.000312717
0.000579303
0.000455644
0.000654475
0.000323713
0.000231034
0.000326125
0.0004881
0.000140076
0.000260103
0.000133121
0.000367275
0.000120287
0.000298105
3.40222e-05
0.000393701
0.00070322
0.000375438
0.000264442
0.000467666
0.000299412
6.89782e-05
0.000116085
0.000211339
0.000206709
0.000237698
0.000293273
0.000405334
0.000275756
0.000466715
0.000405909
8.32931e-05
0.00057312
0.000350192
0.000774163
0.000796638
0.000619453
0.000641823
0.000384193
0.000513907
0.000319772
0.000331213
0.000562322
0.000260334
0.00050075
0.0125805
0.00115137
0.000463146
0.0062379
0.000386428
0.000576173
0.00013022
0.000180488
0.000341438
0.00033824
0.000517932
0.000169109
0.000368695
0.000263173
0.000305612
0.000877795
0.000164169
0.000147285
0.000550186
0.000444501
0.000663315
0.000814819
0.000677311
0.000227025
0.000593073
0.000193706
0.000285071
0.000472066
0.000348046
0.000178017
0.000111462
0.000268454
0.00048604
0.000165868
0.000988362
0.00057646
0.000236575
0.000801177
0.00148791
0.00201174
0.00167369
0.00187787
0.00124872
0.00147102
0.00167057
0.00157013
0
0
0
0
0
0
0.001262
0.00525984
0.000531314
0.00113445
0.000439356
0.000174524
7.62593e-05
0.000251085
0.000253672
0.000176937
3.88841e-05
0.000338095
0.000336162
0.00160101
0.00153698
0.00130031
0.00150076
0.0019692
0.00138303
0.00234045
0.00191012
0.00339257
0.0021938
0.00273354
0.00331782
0.00305659
0.00294638
0.00340663
0.00260633
0.0040594
0.00297469
0.00314612
0.00329197
0.00448607
0.00367333
0.003775
0.00347214
0.0037884
0.00377494
0.0045062
0.00434181
0.00407406
0.0036046
0.00433339
0.00451233
0.00499006
0.00397263
0.00484434
0.00436442
0.00499844
0.00354296
0.00292417
0.00738729
0.00575186
0.000947694
0.00743997
0.00296226
0.000421633
0.00028218
0.000601788
0.000171901
0.000241348
0.000393
0.000130756
0.000452991
0.000100834
0.000378653
0.000413546
0.000394871
0.000754818
0.000978736
0.00110957
0.00032341
0.00125095
0.00160171
0.00170614
0.00120638
0.00243162
0.00184414
0.0034278
0.0028207
0.00276587
0.00309491
0.00301664
0.00303569
0.00304156
0.00332975
0.00329486
0.00319144
0.00277914
0.00357745
0.0027532
0.00279239
0.00450907
0.00294818
0.004028
0.00330803
0.00308505
0.00415793
0.00426517
0.00333058
0.00302215
0.00437733
0.00418444
0.000969256
0.000607309
0.000840566
0.000682118
0.000922819
0.000106937
0.000435151
0.000488451
0.000655988
0.00133874
0.00129916
0.000398005
0.000591068
0.000283566
0.000510853
0.000536389
0.000523494
0.000697372
0.000941965
0
0
0
0.00235444
0
0
0
0
0
0
0.000159765
0.000268784
0.000266605
0.000198556
0.000257448
4.34146e-05
0.000330653
0.00050996
0.000536962
0.000448307
0.000315315
0.000415597
0.000633218
0.000753858
0.000559742
0.000667725
0.00108717
0.000786794
0.00157567
0.00120685
0.00165145
0.00149401
0
0
0
0
0
0
0
0.0164138
0.000413765
0.00603882
0.000475543
0.00105007
0.000817419
0.000347173
8.87188e-05
0.000161095
0.000218712
0.000364884
7.72433e-05
0.000154356
0.00155298
0.0015192
0.00152155
0.00202543
0.0036085
0.00266762
0.00514384
0.00317383
0.00389852
0.00489929
0.00376299
0.00426938
0.00120397
0.00322667
0.00434346
0.00331311
0.000269698
0.00186441
0.00130707
0.00301723
0.000874454
0.0127974
0.00456097
0.00218714
0.00864339
0.00197359
0.00257188
0.00430837
0.00284238
0.00698093
0.00623114
0.0137754
0.0110108
0.00836612
0.00489953
0.00555097
0.000699779
0.00230447
0.000978783
0.00070308
0.00126883
0.000329542
0.000729523
0.000341047
0.000849497
0.000357509
0.000392836
0.000344006
0.000593985
0.000911455
0.00113252
0.00211753
0.00170235
0.000548742
0.00128179
0.00380683
0.00233178
0.00376257
0.00156202
0.00296889
0.00288642
0.00269352
0.00337548
0.00322019
0.00358401
0.00393531
0.00336103
0.00354255
0.00367413
0.00263061
0.00345345
0.00225994
0.00255845
0.00326004
0.0032284
0.0030138
0.00292202
0.00523124
0.00445711
0.00287467
0.00273393
0.00234371
0.00270454
0.00361402
0.00255033
0.000932964
0.00161285
0.00157729
0.000807375
0.000866369
0.000814303
0.00129869
0.000857369
0.00137415
0.00111939
0.00154945
0.000286351
0.000419512
0.000482591
0.000635558
0.00147209
0.000895312
0.000571768
0.000184895
0.00122828
0.000335269
0.000731514
0.000845819
0.00478773
0.00470735
0.00348121
0.00108238
0.000329286
0.00099714
0.000372652
0.000506156
0.000688636
0.000680466
0
0
0
0
0.00569321
0
0
0
0
0
0
0
0
0
0
0
7.35952e-05
2.28973e-05
0.000137795
9.32626e-05
0.000325732
0.000346874
0.000400599
0.000532131
0.000403526
0.000395365
0.000663561
0.000542137
0.000834697
0.000522928
0.000783558
0.000698054
0.000928638
0.000749785
0.000969775
0.0012261
0.00155336
0.00177946
0
0.00261239
0.000773018
0
0
0
0
0.000831007
0.00304891
0.00378539
0
0
0
0
0
0
0
0
0
0
0
0
3.55891
0
0.0108927
0.727124
0.000818019
0.00107935
0.000502253
0.000484654
0.000293405
0.000376082
0.000343728
0.000185095
0.00024556
0.000156652
0.000161041
0.000161902
0.00161752
0.00171438
0.00209457
0.00154307
0.00204076
0.00312911
0.004927
0.00282888
0.00464846
0.00225502
0.00653065
0.00263612
0.0122201
0.00763683
0.00272309
0.00554191
0.00820468
0.00695355
0.00949556
0.00382404
0.0153149
0.0112742
0.012292
0.00593184
0.00217881
0.00510631
0.00954758
0.011517
0.00101354
0.0125993
0.0194288
0.00112017
0.000505009
0.00146253
0.00121001
0.000974136
0.000770735
0.000519908
7.61599e-05
0.000555492
0.000312213
0.000808428
0.000508483
0.00195568
0.00767134
0.00146257
0.000491538
0.000469514
0.00105404
0.0013117
0.000825308
0.000416712
0.000648023
0.000362116
0.000722943
0.000532843
0.00112648
0.00165695
0.0025304
0.00176137
0.00304215
0.00555539
0.00230478
0.00840001
0.0161199
0.0151745
0.00139615
0.00207727
0.00170018
0.00300811
0.00352809
0.00370648
0.00417634
0.00340391
0.00375334
0.00321837
0.00331508
0.00263484
0.00288688
0.00341118
0.002709
0.00205014
0.00251827
0.00169792
0.00161808
0.00310834
0.00309
0.00150323
0.00245846
0.000698841
0.00136822
0.00235904
0.000988124
0.00206837
0.00158971
0.00110746
0.0011789
0.00142835
0.00117499
0.000584223
0.00153157
0.00102613
0.000448729
0.000476742
0.000653944
0.000410616
0.000660852
0.000796572
0.000105446
0.000764995
0.000698202
0.0010428
0.000912661
0.000863938
0.00162066
0.000900322
0.00135476
0.0177186
0.00821959
0.00368279
0.00121692
0.000932273
0.000769171
0.000620278
0.00153857
0.00181959
0.00117991
0
0
0
0
0.582031
0.0146608
0
0
0
0
0
0
0
0
0
0
0
0
0
0
0
0
0
0
0
0
0.00713139
0
0.000819378
0
0.00273718
0.00767343
0
0
0
0
0
0
0
0
0
0
0
0
0
0
0.000311318
0.000142516
9.82869e-05
0.000254395
0.000141452
0.000413235
7.36016e-05
0.00018263
0.000622373
0.00106208
0.000466278
0.000441846
0.000658303
0.000727889
0.000425172
0.000469732
0.000909733
0.000841136
0.00111145
0.000949642
0.00169122
0.00134328
0
0
0
0
0
0
0
0
0
0
0
0
0
0
0
0
0
0
0
0
0
0
0
0
0
0
0
0
0
0
0.288827
0
0.0785939
0.0695353
0.00179061
0.00417598
0.00113768
0.000766266
0.000707583
0.000447627
0.000338282
0.000134891
0.000115759
0.000241181
0.000169825
0.000161448
0.00023654
0.000238973
0.00305281
0
0
0
0
0
0
0
0
0
0
0
0
0
0
0
0
0.00126796
0.00142663
0.000904424
0.00129662
0.00282397
0.00174353
0.00575481
0.00278766
0.00991657
0.00567788
0.0179267
0.0065668
0.00517294
0.00386955
0.0232922
0.00917799
0.0145474
0.00158364
0.0104991
0.00284176
0.050323
0.56808
0.159169
0.00757794
0.00253581
0.01246
0.0152295
0.0252932
0.399131
0
0
0
0.000584789
0.000448778
0.000666795
0.000621662
0.000217169
0.000579977
0.000600854
0.00032267
0.000404414
0.00053107
0.000244391
0.001187
0.000733791
0.00023642
0.000861952
0.00197518
0.0013273
0.00267618
0.00984547
0.00777033
0.00026292
0.0149772
0.000421832
0.00112704
0.000860975
0.00105458
0.00051378
0.000527194
0.00111608
0.000200202
0.00234885
0.00192759
0.00659117
0.00400051
0.0086294
0.00269606
0.0144581
0.0211082
0.0063032
0.0130215
0.0213162
0.00295061
0.00379657
0.00540699
0.00529059
0.0028809
0.00347839
0.00307626
0.00260591
0.00360516
0.00255227
0.00247999
0.00249376
0.00210991
0.00214635
0.00247609
0.00128155
0.00164927
0.00119156
0.00160053
0.000895145
0.00183735
0.00162265
0.00135518
0.00158288
0.00256797
0.00119402
0.00232566
0.00163008
0.0011422
0.0012427
0.00129035
0.00115909
0.00126516
0.00101385
0.000526519
0.000460568
0.000569921
0.000415312
0.000439666
0.000555396
0.000325623
0.000396548
0.00038663
0.000590643
0.000464279
0.000537223
0.000416044
0.000465298
0.000642804
0.000407585
0.000276652
0.000373349
0.000301088
0.000329976
0.000389738
0.000277276
0.000353506
0.000357301
0.00033528
0.000282434
0.000377873
0.000318827
0.000320866
0.000302797
0.000427828
0.00027702
0.000331272
0.000335373
0.000404344
0.000251652
0.000377196
0.000293591
0.000371612
0.0004177
0.000268043
0.000295936
0.000356407
0.000426168
0.000342113
0.00029726
0.00227487
0.00124324
0.000708517
0.000993738
0.000163484
0.000822525
0.000938513
0.00143139
0.00144735
0
0.119029
0.00188414
0.00152975
0
0.0380514
0.0353018
0.00259457
0.00882317
0.00661558
0.0363909
0.0393786
0.00910927
0.0153307
0
0
0
0
0
0
0
0
0
0
0
0.00602967
0
0
0
0
0
0
0
0
0.0116617
0
0
0
0
0
0
0
0
0
0
0
0
0
0
0
0
0.00799188
0
0
0
0
0
0
0.0112447
0
0.0133165
0
0
0
0
0
0
0
0
0
0
0
0
0
0
0
0
0
0
0
0
0
0
0
0
0
0.000235963
9.75633e-05
0.0002077
0.000372849
0.000432953
8.22373e-05
0.000673202
0.000750272
0.000216374
0.000385483
0.000448902
0.000690883
0.000522689
0.000479618
0.000891137
0.000807543
0.00122187
0.000613315
0.000775871
0.00066916
0.000705155
0.000672729
0
0
0.00601828
0.00798361
0
0
0
0
0.00692282
0
0
0
0
0
0
0
0
0
0
0
0
0
0.00865887
0.0073093
0
0
0
0.0640433
0.00537115
0.0305599
0.00186839
0.000819856
0.00037822
0.000554889
0.000275837
0.000267721
0.00032458
0.000208586
0.000180051
0.000125232
0.000223971
0.000143378
8.00109e-05
0.000231415
0.0103323
0
0
0
0
0.000102069
0
0
3.69041e-05
0
0
0
0
0
0
0
0
0
0
0
0
0
0
0
0.528204
4.93115
0.000862458
0.00088794
0.00140702
0.000811239
0.00827341
0.00416303
0.00910811
0.00599754
0.0120953
0.0114051
0.0227657
0.014289
0.0542901
0.0925195
0
0.0353191
0.00709406
0.0207694
0.0103096
0.0131324
0
0
0
0
0
0
0
0
0
0
0.00130203
0
0.000405816
0.000463863
0.000770266
0.000275992
0.000306016
0.000333282
0.000364081
0.000477563
0.000476505
0.00035993
0.000491579
0.00054013
0.000386394
0.000450775
0.000408657
0.000383926
0.000411467
0.000475501
0.00045177
0.000513977
0.00049922
0.000422339
0.000469675
0.000417371
0.000338334
0.00043711
0.000324576
0.000267988
0.000391632
0.000483987
0.00124708
0.00098365
0.000965645
0.000508649
0.00339009
0.00769891
0.00101427
0.00324462
0.0224334
0.00422224
0
0.00185196
0.0384329
0.000636599
0.000502157
0.000281453
0.000844225
0.000605312
0.00198773
0.00330022
0.0270814
0.0370488
0.0132722
0.0236953
0
0
0
0
0.0107737
0.0269319
0
0.0122239
0.00697398
0.00863474
0.00470863
0.00860993
0.00358546
0.00374262
0.0025094
0.00219328
0.00154858
0.00235887
0.00166802
0.00198704
0.00136639
0.00135338
0.00117248
0.000990372
0.00168536
0.00146478
0.00112695
0.00158913
0.00128285
0.00103306
0.00148587
0.00177176
0.00146921
0.00123937
0.000944604
0.00106183
0.00098472
0.000627413
0.000723048
0.000786993
0.00059014
0.000502798
0.000590792
0.000595802
0.000459811
0.00048447
0.00051354
0.000610324
0.000586531
0.000399995
0.000594388
0.000602899
0.000399719
0.000317004
0.000375087
0.000287726
0.000332411
0.000281915
0.000259464
0.00028127
0.000197334
0.000218363
0.000169579
0.000204318
0.0001991
0.000194194
0.000198371
0.000229457
0.000259455
0.000221077
0.000231559
0.000334844
0.00024451
0.000227794
0.000206106
0.000192919
0.000308187
0.000219527
0.000213362
0.00161043
0.0122013
0.00506892
0.00435887
0.010807
0.00201001
0.000435797
0.00386437
0.00270331
0.0149151
0.0534549
0
0
0.0127568
0.00577907
0
0
0.0913893
0
0.134973
0.0925583
0.00838397
0.0642197
0.0299401
0.0157678
0
0
0
0
0.00159318
0.0166329
0
0
0
0.00716194
0
0
0
0
0
0
0
0.0175096
0
0
0
0
0
0
0
0
0.000101156
0
0
0
0
0
0
0
0
0
0
0
0
0
0
0
0
0
0
0
0
0
0
0
0
0
0
0
0
0
0
0
0
0
0.000467745
0.000389661
0.000233447
0.000424636
0.000528242
0.000354665
0.0002469
0.000452158
0.000487499
0.0006428
0.000339303
0.000413812
0.000696607
0.000662652
0.000706098
0.000693517
0.00138563
0.00039068
0.000337145
0.000385462
0.000589896
0.000446473
0.00908214
0
0.0146431
0
0
0
0
0
0
0
0
0
0
0
0
0
0
0
0
0
0
0
0
0
0
0
0.112798
0.0137766
0.00181642
0.00970808
0.00142509
0.000796414
0.000465235
0.00075339
0.000381887
8.19318e-05
0.000149723
0.000349435
0.000300293
0.000152474
0.000321755
0.000177166
0.00031482
0.000211643
0
0
0
0
0
0
0
0
0
0
0
0
0
0
0
0
0
0
0
0
0
0
0.488063
0
0
0
0
0
0
0
0
0.00114622
0.00290754
0.00450978
0.00255829
0.0137324
0.00534315
0.0240484
0.0341797
0.000656763
0.000597164
0.00329201
0
0
0
0
0.355778
0.0777926
0
0.164617
0.00103684
0.0537843
0.00703423
0.000623295
0
0
0
0
0
0
0
0
0
0
0
0
0.000101835
0.000184082
0.000192483
0.000196102
0.000149915
0.000144785
0.000209676
0.00017524
0.000141791
8.4274e-05
0.000171203
4.50066e-05
0.000152345
0.000155335
0.000211393
0.00026194
0.000191449
0.000153473
0.00019426
0.000230294
0.00017445
0.000158124
0.000188003
0.000172138
0.000202812
0.000144791
0.000154907
0.000175407
0.000150878
0.000397171
0.000316422
0.000300507
0.000366869
0.000316432
0.00025157
0.000392253
0.000669353
0.000846594
0.000536016
0.000157449
0.000551322
0.000348457
0.000420375
0.000463614
0.000526866
0.000650069
0.000415618
0.000304438
0.000362505
0.000488824
0.000397
0.000510296
0.000460943
0.000518811
0.000524411
0.000507729
0.000472294
0.000537074
0.000448582
0.000468329
0.000397203
0.000550516
0.00047392
0.000694821
0.000414491
0.00298726
0.00389395
0.00199074
0.000709956
0.000326343
0.00588783
0.00199872
0.0126044
0.0181014
0.000171004
0.00015686
0.000155339
0.000168811
0.000129375
0.000135858
0.000161105
0.000132078
0.00015976
0.000107131
0.000157624
0.000138203
7.39189e-05
8.18632e-05
6.3052e-05
7.85205e-05
7.76799e-05
9.15672e-05
0.0324626
0
0.0338378
0.000899333
0.00290278
0.000132985
0.00176862
0.00252246
0.0224772
0.0264997
0.0786542
0.0516
0
0
0
0
0
0
0.00433224
0.0177455
0
0.0127976
0.0188777
0.0127197
0.00727584
0.00627144
0.00377743
0.00120511
0.00193589
0.00260576
0.00136063
0.000987723
0.000991082
0.0014395
0.00135017
0.000892674
0.000778551
0.00119386
0.00092332
0.0008787
0.00133617
0.00129517
0.00133508
0.00128401
0.00108245
0.000935202
0.00104984
0.00100052
0.000819771
0.000650023
0.000745417
0.000418857
0.00061535
0.000953263
0.00049591
0.000726388
0.000901256
0.000674046
0.000652208
0.000633123
0.000667511
0.000383443
0.000500539
0.0006331
0.000462534
0.000361589
0.000365462
0.000356645
0.000345942
0.000298685
0.00026063
0.000271989
0.000206603
0.000214049
0.000140518
0.000163275
0.000142455
0.000157978
0.000158595
0.000162365
0.000176766
0.000184384
0.000175555
0.000194348
0.000186859
0.0143953
0.00819797
0.0194747
0
0.025507
0.0291149
0
0.00938742
0.0929106
0
0
0
0
0
0.0258073
0
0
0
0
0.128024
0
0
0
0
0
0
0
0
0.00269619
0.00311894
0.0258087
0
0.00027594
0
0
0
0
0
0
0
0
0
0.0102297
0
0
0
0
0
0
0
0
0.206608
0
0
0
0
0
0
0
0
0
0
0
0
0.000181674
0
0
0
0
0.00461351
0
0
0
0
0
0
0
0
0
0
0
0
0
0
0
0
0
0
0
0.00236924
0
0
0
0
0.0026633
0.000102385
0.000227141
0.000169449
0.000160646
0.000101678
4.85345e-05
0.000375355
0.000166234
0.000190398
0.000376416
0.000410209
0.000358802
0.000413744
0.000410887
0.000527773
0.000603752
0.00051764
0.000604012
0.000484701
0.000246858
0.000479067
0.00025477
0.000344417
9.76064e-05
0.000498424
0
0
0
0
0
0
0
0
0
0
0
0
0
0
0.0205159
0.0132113
0
0
0
0
0
0
0
0
0
0
0
0.000428067
0.00133144
0.000750256
0.000903133
0.000192289
0.000192574
9.16961e-05
0.000351622
0.000602923
0.000223835
0.000144603
0.000353348
0.000339507
0.000375309
0.000394816
0.000347317
0
0.00102896
0
0
0
0
0
0
0
0
0
0
0
0
0
0
0
0
0
0
0
0
0
0
0
0
0
0
0
0
0
0
0
0
0
0
0
0.00189395
0.000541932
0.000361105
0.000175041
0.00292683
0.00111772
0.0032235
0
0.0942558
0
0
0.00186698
0.00120698
0
0
0
0
0
0
0
0
0.0374024
0
0.0456068
0.0381757
0
0
0
0
0
0
0
0
0
0
0
0
0.000215301
0.00014312
0.000218904
0.000196656
0.000260761
0.000103128
0.000240027
0.000117796
0.000218644
0.000270786
0.000243091
0.000233002
0.000200079
0.000248242
0.000142266
0.000226896
0.000403603
0.000433796
0.000393104
0.00034363
0.000291574
0.000336128
0.000491747
0.000807802
0.000926453
0.000599144
0.000218006
0.0004605
0.000533735
0.000554408
0.000492666
0.000504042
0.000310442
0.000617312
0.000462857
0.000386799
0.000547085
0.000415161
0.000564439
0.000464311
0.00049645
0.000488352
0.000603429
0.000560629
0.000563551
0.000512769
0.000568365
0.000531212
0.00054706
0.00049212
0.000487423
0.000612581
0.000511052
0.00295501
0.00337162
0.000762277
0.000505157
0.00219292
0.00266594
0.000554513
0.000406162
0.00555681
0.00302992
0.00421676
0.00672014
0.000131301
0.000163554
0.000128715
0.000125188
0.000121953
0.000121992
0.000136808
0.000115954
0.000129448
9.37446e-05
0.000110268
6.49568e-05
8.15603e-05
6.55378e-05
5.73337e-05
4.60626e-05
4.30595e-05
7.74121e-05
4.99426e-05
0.000106413
0.000127977
0.000107062
6.81257e-05
0.000122363
0.000151769
0.0414745
0.017888
0.00641335
0
0.0059474
0.0175278
0
0
0
0
0
0
0
0
0
0
0
0
0
0
0.00367655
0.120866
0.0280564
0.375856
0.00686143
0.00328231
0.00728732
0.00630148
0.00196149
0.00193185
0.00110129
0.000982205
0.000674045
0.000766921
0.00116345
0.00107436
0.00110514
0.00108123
0.000849807
0.000979366
0.000916293
0.000997256
0.000755766
0.0013057
0.000888287
0.000819513
0.000688043
0.00083839
0.000818086
0.000764742
0.000828335
0.000506168
0.000749632
0.000664273
0.000904664
0.000639182
0.000782057
0.000517199
0.000650709
0.000439774
0.000384233
0.000427354
0.000371702
0.000323563
0.000356624
0.000323143
0.000326478
0.000253294
0.000245565
0.000172044
0.000205823
0.000181678
0.000128868
0.000156436
0.000121794
0.000152773
0.000147392
0.000153479
0.000144097
0.000176416
0.000129128
0.00014499
0
0
0
0
0
0.0636915
0
0
0.0563321
0
0
0
0
0
0
0
0
0
0
0
0
0
0
0
0
0.000304922
0
0
0.00755665
0.00205987
0
0
0
0
0
0
0
0
0
0
0
0
0.278829
0
0
0
0
0
0
0
0
0.104151
0
0
0
0
0.00367621
0
0
0
0
0
0
0
0.00190553
0.000407751
0
0
0.00324099
0.00375591
0
0
0
0
0.00640622
0
0.00858601
0
0
0
0
0
0
0
0
0
0
0
0
0
0
0
0
0
0.00409015
0
0
0
0
0
0
0
0
0.000128378
0.000145175
7.29172e-05
0.000204725
8.6806e-05
5.24543e-05
4.47229e-05
4.27686e-05
0.000180764
5.37792e-05
0.000242692
0.000487204
0.000437568
0.000468579
0.000516172
0.000123288
0.000577672
0.000229445
0.000304007
0.000452825
0.000346965
0.000243089
0.000558824
0.000345266
0.00092406
0.000786911
0.000398722
0
0
0
0
0
0
0
0.0149132
0.00188289
0.0128343
0
0
0
0
0
0
0
0
0
8.20999e-05
0
0
0
0
0
6.30421e-05
0.000545708
0.000319776
0.000963663
0.00122721
0.000807551
0.00075627
0.000176333
0.000243568
6.90489e-05
7.23577e-05
0.000442543
0.000394969
0.000124645
0.000157942
0.000274886
0
0
0.000970807
0
0
0
0
0.000601541
0
0
0
0
0
0
0
0.0100802
0
0.00438279
0.00759235
0
0
0
0
0
0
0
0
0
0
0
0.0054052
0
0
0
0
0
0
0
0
0
0
0
0
0
0.00375734
0.00125332
0.00207961
0.00102238
0.0059435
0.00325157
0.016695
0.0112446
0
0
0.00191725
0
0
0.00204808
0
0
0
0
0
0
0
0.00311501
0
0
0.0563217
0
0.0142696
0.260618
0
0.00279122
0
0.00440827
0
0
0
0
0
0
0
0.00365865
0.000136025
0.000184726
0.000251264
0.000224734
0.000264341
0.000311757
0.00054574
0.000148475
0.000426335
5.65433e-05
0.000101764
0.000153655
0.000167801
9.9257e-05
0.000296025
0.000303115
0.000322339
0.00028302
0.000307345
0.00025112
0.000277028
0.000307385
0.000440474
0.000460551
0.000402567
0.000396813
0.000383007
0.000337605
0.000592911
0.000665511
0.00110311
0.000387054
0.000471604
0.000120841
0.000814052
0.000437498
0.000480762
0.000593685
0.000486797
0.000568839
0.000425751
0.000572705
0.0007056
0.000546245
0.000621006
0.000468219
0.000644371
0.000550301
0.000575892
0.000566846
0.000618647
0.000473716
0.000481169
0.000603537
0.000566278
0.000504697
0.000571404
0.000502456
0.00345784
0.000187867
0.000997193
0.000423234
0.00170428
0.000717219
0.000527972
0.00133872
0.00440927
0.00457185
0.00613668
0.00711065
0.000142986
0.000108596
8.5224e-05
0.000117419
0.00012184
0.000118235
6.17796e-05
9.2589e-05
7.52874e-05
4.86527e-05
8.51844e-05
1.36697e-05
5.95828e-05
1.68427e-05
1.97031e-05
1.50533e-05
3.01412e-05
0.000102897
3.29072e-05
0.000133991
3.20393e-05
1.43657e-05
3.03874e-05
8.03207e-05
8.65338e-05
0
0
0
0
0
0
0
0
0
0
0
0
0
0
0
0
0.00366413
0
0
0
0
0
0.0165472
0.0628863
0.00180753
0.00188453
0.00434125
0.0141032
0.002074
0.000125149
0.000608819
0.0003954
0.00132114
0.000638952
0.000859715
0.00114707
0.000834009
0.000817391
0.00131569
0.0010434
0.000692429
0.000777392
0.000536896
0.000431116
0.000704496
0.000742487
0.000561577
0.000663539
0.000659559
0.000743621
0.000821753
0.000644475
0.000737364
0.000834139
0.000511231
0.000821623
0.000555232
0.000603534
0.000494834
0.000460105
0.000364066
0.000354136
0.000315337
0.000316227
0.000254517
0.000222221
0.00018351
0.000143984
0.000103441
0.000163823
0.000153663
0.000124136
0.000152835
0.000117309
0.000150402
0.000125549
0.000145303
0.000129586
8.55878e-05
0
0
0.157268
0.00018887
0
0
0
0
0
0
0
0.00841192
0
0.00764754
0.00973455
0.0105025
0.00842324
0
0.0171506
0.032083
0
0
0
0.00506052
0
0.0044318
0.00055393
0
0
0
0
0
0
0
0
0.004808
0
0
0
0
0
0
3.75619
0
0
0
0
0
0
0
0
0
0
0
0
0
0
0
0
0
0
0
0
0
0
0
0
0
0
0
0
0
0
0
0
0
0
0
0
0
0
0
0
0
0
0
0
0
0
0
0
0
0
0
0
0
0
0
0
0
0
0
0
0
0
0
0
0
0
0
0
0
0.000106589
0
0
0
0
0.000115956
7.69186e-05
0.00018953
0.000143505
5.2964e-05
9.83885e-05
0.000253241
0.000103419
0.000282116
0.000184707
0.000143741
7.64954e-05
0.00022436
0.000235821
0.000307007
0.000992934
0.00045863
0.000305202
0.000361851
0.000427639
0.000314683
0.000440018
0.000917458
0.000447118
0.00148632
0.000251319
0.00101718
0.000711541
0.000681743
0
0
0
0
0.146538
0.00275472
0.0178297
0
0
0
0
0
0
0
0
0
0
0.0127543
0.0085912
0
0.00764042
0
0
0
9.62235e-05
0.000232197
0.000337883
0.00038524
0.000164685
0.00158496
0.000739605
0.000805755
0.000605133
0.000470751
0.000674116
0.000191655
0.000359937
0.000213813
0.000340642
0.00026573
0
0.00342836
0
0
0
0
0
0.000114176
0
0
0.000487665
0
0
0
0.000831327
0
0
0
0
0
0
0
0
0
0
0
0
0
0
0
0
0
0
0
0
0
0.0070858
0
0.00771945
0
0
0
0
0
0
0
0
0
0
0
0
0
0
0
0
0
0
0.00109823
0.00216044
0.00490294
0.0165583
0.0371956
0
0
0
0
0
0
0
0
0
0
0
0
0
0
0
0
0
0.0424281
0
0
0
0
0
0
0
0
0
0
0.00377282
0.00192162
0
0
0
0
0
0
0.000326519
0.000175546
0.000396551
9.86811e-05
0.000567936
0.000110623
0.000223545
0.000242177
0.00014736
0.000435744
7.95706e-05
0.000217252
0.000159198
0.000323952
0.000348368
0.000296772
0.000324449
0.000276911
0.00028505
0.000157673
0.000252662
0.000482451
0.000453431
0.000378778
0.000443031
0.000357149
0.000400753
0.000479578
0.000753129
0.000625343
0.000252888
0.000550127
0.000732323
0.000459377
0.000810111
0.000539557
0.000660344
0.000627113
0.000553834
0.000488654
0.000629914
0.000578746
0.000685216
0.000481335
0.000632186
0.000551231
0.000552537
0.000528442
0.000485752
0.000536858
0.000610688
0.000724623
0.000524837
0.000486176
0.000532091
0.000643289
0.000448041
0.000978885
0.00169798
0.000577523
0.00161223
0.00160674
0.00103365
0.000368593
0.000936184
0.00522571
0.0046908
0.00153691
0.00666426
0
0.243714
0.0191139
7.28183e-05
7.20562e-05
0.000104729
0.000117304
8.49935e-05
4.56729e-05
5.20654e-05
1.72698e-05
3.29272e-05
7.78729e-05
5.37789e-05
1.24639e-05
2.24409e-05
4.54806e-05
2.1688e-05
4.72606e-05
1.21124e-05
4.4557e-05
4.09271e-05
2.0311e-05
6.91473e-05
0.000170727
8.35945e-05
3.97877e-05
5.29634e-05
8.65875e-05
0
0
0
0
0
0.0283687
0.0285966
0
0
0
0
0.00380485
0.00557448
0
0
0
0
0
0
0
0
0
0.00115058
0.0370506
0.0140158
0.00449079
0.00224935
0.00768228
0.00135781
0.00134863
0.000828915
0.000589275
0.00109254
0.000763871
0.000856874
0.000579083
0.000904473
0.000961235
0.000720985
0.000753525
0.000652996
0.000713196
0.000637679
0.000635963
0.000915002
0.000614418
0.000697306
0.00106638
0.000677252
0.000929377
0.000771223
0.000889633
0.000917036
0.000790072
0.000669592
0.000667873
0.000578867
0.000639181
0.000473599
0.000420152
0.000339023
0.000295973
0.000271055
0.000201117
0.000116582
0.000175851
0.000107241
0.000143598
0.00013399
0.0001294
0.000136461
0.000150939
0.000155024
0.000113134
6.1556e-05
0.000159414
8.19224e-05
0.00011835
0
0
0
0
0
0
0
0
0
0.0258088
0
0
0
0.0346942
0.025125
0.0197218
0.0138745
0.0172416
0.0120965
0
0
0
0
0
0
0
0
0
0
0
0
0
0
0
0
0.0134351
0
0
0
0.135945
0
0
0
0
0
0
0
0
0
0
0
0
0
0
0
0
0
0
0.0666393
0
0
0
0
0
0.00235328
0.00213147
0.00445507
0
0
0
0
0
0
0
0
0
0
0
0
0
0
0
0
0
0
0
0
0
0
0
0
0
0
0
0
0
0
0
0
0
0
0
0
0
0
0
0
0
0.00652498
0
0.00279446
0
0.0108199
0
0
0
9.10635e-05
7.75482e-05
4.77696e-05
4.64274e-05
7.2248e-05
0.000125949
5.40512e-05
0.000468215
0.000179106
7.37572e-06
0.000312838
4.2899e-05
0.000147466
1.55456e-05
0.00040106
0.000439909
6.64431e-05
0.000214861
0.000155432
0.000284169
0.000232725
0.000233378
0.000230803
0.000328033
0.000178249
0.000548714
0.000561691
0.000553517
0.000751351
0.00135323
0.00110535
0.000986181
0.000750561
0
0
0.00153136
0.000274318
0.087755
0
0
0
0
0
0
0
0
0
0
0
0
0
0
0
0
0
0
0
6.9365e-05
0.000402999
0.000201258
0.000520343
0.000227402
0.00103465
0.00100783
0.000236829
0.00040303
0.000520333
0.000191261
0.000379802
0.000419951
0
0
0
0
0
0
0.0172698
0.00790584
0
0
0
0
0
0
0
0
0
0.00254385
0
0
0
0
0
0
0
0.00590153
0
0
0.0261796
0
0
0
0
0
0
0
0
0
0
0
0
0
0
0
0
0
0
0
0
0
0
0.00234583
0
0
0
0
0
0
0
0
0
0
0
0.00334867
0.0234971
0.0260214
0
0
0
0
0
0
0
0
0
0
0
0
0
0
0
0
0
0
0
0
0
0
0
0
0
0
0.064552
0
0
0
0
0.00400716
0
0
0
0
0
0
0
0
0.000603166
0.000241839
0.000284759
9.20155e-05
0.00100255
0.000417233
0.000224845
0.000107298
0.000157058
0.000150147
0.000177464
2.88807e-05
5.03706e-05
0.0002992
0.000344389
0.000308635
0.000320695
0.000282115
0.000286241
0.000264256
0.000385205
0.000289395
0.000461689
0.000482289
0.000452357
0.000353429
0.000326261
0.00040897
0.000575752
0.000900147
0.000660446
0.000629335
0.000597883
0.000789537
0.000887435
0.000728285
0.000638276
0.00056525
0.000570988
0.000860916
0.000441955
0.000530743
0.000449209
0.00042346
0.000392113
0.000425461
0.000380744
0.000561955
0.000383688
0.000468043
0.000292229
0.000375148
0.00032433
0.000578216
0.000493637
0.000515465
0.000459721
0.000412197
0.00125109
0.00368657
0.000969852
0.00131439
0.000601067
0.000834616
0.00120127
0.00130829
0.00474216
0.0061663
0.00319145
0.00431116
0.00263474
0.00334532
4.62696e-05
2.27114e-05
6.70617e-05
9.30391e-05
2.76323e-05
9.89201e-05
9.61587e-05
0.000115962
0.000148107
0.000123295
8.432e-05
7.53982e-05
1.69375e-05
4.45176e-05
7.59644e-05
7.32932e-05
9.06649e-05
8.06517e-05
6.61195e-05
0.000105763
0.000119661
0.000134258
7.97319e-05
0.000102167
8.62749e-05
0
0
0
0
0
0
0
0
0
0.00416337
0
0
0
0
0
0.000120445
0.000107492
0
0
0
0
0
0.0228609
0.049889
0
0.00444063
0.00556917
0.00288872
0.00227908
0.00269295
0.00101738
0.00177709
0.000531341
0.00123371
0.00116599
0.000521242
0.00121508
0.000814052
0.00059474
0.000696177
0.000854161
0.000697846
0.000735903
0.000992748
0.000996071
0.000759088
0.000991411
0.00117742
0.000762979
0.00101275
0.000656264
0.000636052
0.000864615
0.000745542
0.000483067
0.000598648
0.000457086
0.000518618
0.000282673
0.000378005
0.000181781
0.000278766
0.000164113
9.49957e-05
0.000112888
0.000108937
0.000126296
0.000142385
0.000153305
0.000122823
0.000124892
0.000143481
0.000157214
9.9086e-05
8.07474e-05
0.000134817
0.000101323
7.57624e-05
0
0
0
0
0
0
0
0
0
0.000225679
0
0
0
0
0
0
0
0.0589062
0
0
0.352791
0
0
0
0.00929266
0
0
0
0
0
0.00137018
0.0109203
0
0
0
0
0
0
0
0
0
0
0
0
0
0
0.0048342
0.00800223
0.00810631
0
0
0
0
0.00338117
0
0
0.00396894
0
0
0
0
0.00627148
0
0.0024444
0
0
0
0
0
0
0
0
0
0
0
0
0
0
0
0
0
0
0
0
0
0
0
0
0
0
0
0
0
0
0
0
0
0
0
0
0
0
0
0
0
0
0
0
0
0
0
0
0
0
0
0
0
0.00308317
0
0
0
0.0119529
0
0
8.59543e-05
9.70409e-05
0.000113019
7.98119e-05
4.20488e-05
0.000153171
1.57021e-05
3.42216e-05
0.000109659
0.00026241
0.000131852
9.39549e-05
0.000227209
0.000210727
0.00015697
0.000203469
8.35205e-05
0.000264891
4.24897e-05
0.000107477
0.000304583
8.89902e-05
0.000119745
8.20674e-05
0.000777082
0.000260634
0.000580213
0.00065229
0.000227288
0.000817043
0.000643872
0.000881633
0.000274344
0.000790952
0.000441038
0.00330323
0.00231007
0.0129613
0.00859952
0.00233263
0.000288043
0
0
0
0
0
0
0
0
0
0
0.00141683
0
0
0
0
0.000419725
0
0.00745617
0
0
0.000452182
0.000349986
0.000472402
0.000919378
0.00105772
0.000935248
0.000216159
0.000606812
0.000201748
0.000360177
0.000260058
0.000521232
0
0
0.000192385
0
0
0.00164053
0
0
0
0
0
0
0
0
0
0.00109374
0.00126924
0
0
0.00111073
0
0.00223373
0
0
0
0
0.181524
0
0.00786603
0.176092
0
0
0
0
0
0
0
0
0
0
0
0
0
0
0
0
0
0
0.0165152
0
0
0
0
0
0
0
0
0
0
0
0
0
0
0
0
0
0
0
0
0
0
0
0
0
0
0
0
0
0
0
0
0
0
0
0
0.00168418
0
0
0
0
0
0
0.00115731
0
0
0
0
0
0
0
0
0
0
0.00201137
0.0987925
0
0
0
0
0
0
0
0
0
0
0
0
0.000110231
0.000312107
0.000395457
0.000193909
0.000281345
0.000132464
0.00018859
0.000132337
0.00013617
9.74446e-05
6.68637e-05
0.000117601
5.84463e-05
5.20349e-05
0.000106852
0.000330324
0.000372666
0.000286481
0.000312541
0.000304063
0.0002791
0.000290369
0.000297086
0.000323133
0.000490283
0.000467456
0.000356365
0.000425783
0.000314766
0.000983724
0.000671966
0.000525959
0.000716478
0.000755488
0.000789178
0.000759145
0.000732343
0.000601838
0.000424462
0.000490038
0.000898434
0.00029949
0.000246974
0.000296415
0.00020879
0.00028999
0.000186833
0.000279965
7.98687e-05
0.000253766
0.000707061
0.00048179
0.000608889
0.000420126
0.000530161
0.00039225
0.00033108
0.000396772
0.000377091
0.00388582