/*--------------------------------*- C++ -*----------------------------------*\
  =========                 |
  \\      /  F ield         | OpenFOAM: The Open Source CFD Toolbox
   \\    /   O peration     | Website:  https://openfoam.org
    \\  /    A nd           | Version:  8
     \\/     M anipulation  |
\*---------------------------------------------------------------------------*/
FoamFile
{
    version     2.0;
    format      ascii;
    class       volScalarField;
    location    "14460";
    object      Hclip;
}
// * * * * * * * * * * * * * * * * * * * * * * * * * * * * * * * * * * * * * //

dimensions      [0 1 0 0 0 0 0];

internalField   nonuniform List<scalar> 
526318
(
0.838771
0.801191
0.867558
0.785921
0.857783
0.809763
0.823376
0.736735
0.804997
0.67843
0.662122
0.789564
0.731838
0.768755
0.726989
0.753549
0.731505
0.928842
0.829547
0.882019
0.871804
0.83292
0.591489
0.830366
0.719087
0.582365
0.854128
0.855502
0.852888
0.862715
0.894081
0.939454
0.919813
0.806263
0.801838
0.765762
0.781275
0.869174
0.794877
0.75214
0.808257
0.780373
0.448392
0.498293
0.393601
0.455806
0.418766
0.5436
0.719797
0.627824
0.710868
0.716396
0.676372
0.631982
0.128593
0.365055
0.372941
0.154366
0.882148
0.891599
0.917076
0.864191
0.808847
0.942494
0.933054
0.891115
0.888183
0.880133
0.784118
0.779422
0.888066
0.664822
0.717179
0.6233
0.567965
0.566917
0.656278
0.656699
0.57112
0.607133
0.687884
0.695274
0.647629
0.602408
0.629925
0.699292
0.694569
0.679821
0.628536
0.701793
0.601802
0.551671
0.545578
0.478777
0.474511
0.477975
0.477837
0.472758
0.473779
0.470881
0.001
0.001
0.001
0.001
0.023227
0.001
0.386047
0.197324
0.51176
0.468485
0.514987
0.630451
0.856842
0.747848
0.850505
0.87183
0.931866
0.906461
0.946106
0.469812
0.464688
0.469309
0.475345
0.429711
0.467128
0.376656
0.424291
0.330437
0.380233
0.329407
0.332082
0.321957
0.295373
0.287636
0.313293
0.258842
0.311563
0.260718
0.279324
0.227828
0.232031
0.251272
0.282193
0.266239
0.22575
0.223572
0.238294
0.225759
0.224215
0.228661
0.243031
0.228646
0.232655
0.232512
0.233635
0.196541
0.235096
0.234344
0.199205
0.158713
0.234909
0.182256
0.241583
0.739472
0.83081
0.775586
0.760573
0.556166
0.636302
0.569167
0.558227
0.560998
0.564758
0.586067
0.559702
0.499917
0.469908
0.43618
0.374932
0.436263
0.4785
0.477797
0.478642
0.364352
0.415151
0.302201
0.311917
0.319903
0.312204
0.311842
0.315892
0.305838
0.308675
0.305075
0.293302
0.275597
0.297516
0.289346
0.265642
0.245932
0.270399
0.252937
0.246545
0.263427
0.255504
0.260615
0.221335
0.239884
0.271151
0.267662
0.723976
0.729043
0.759675
0.729926
0.719874
0.720569
0.714405
0.594782
0.645762
0.39054
0.34647
0.359612
0.479011
0.615803
0.491693
0.536308
0.533251
0.485057
0.463727
0.00111741
0.001
0.0476215
0.320376
0.001
0.001
0.001
0.001
0.001
0.001
0.930211
0.916952
0.962429
0.957127
0.921273
0.920766
0.827452
0.907868
0.74827
0.706244
0.69818
0.691077
0.702903
0.700476
0.681478
0.687584
0.606397
0.668967
0.486384
0.536542
0.470237
0.480917
0.00100536
0.001
0.001
0.00100202
0.001
0.001
0.001
0.107258
0.486175
0.285237
0.530422
0.527959
0.642748
0.747869
0.860151
0.869627
0.907657
0.881059
0.946036
0.976308
0.448394
0.448173
0.411189
0.377813
0.279363
0.314001
0.241347
0.250299
0.24061
0.236112
0.223542
0.230665
0.153562
0.181314
0.211351
0.251997
0.304235
0.272859
0.23913
0.228042
0.167904
0.157929
0.207555
0.263377
0.187522
0.226083
0.223193
0.194383
0.190502
0.158072
0.152273
0.115058
0.114672
0.121294
0.108276
0.22558
0.264536
0.226882
0.281037
0.632667
0.58842
0.490942
0.575843
0.492696
0.550762
0.561993
0.548483
0.562784
0.565039
0.479707
0.386404
0.317105
0.301254
0.376936
0.319062
0.301581
0.415684
0.307075
0.354621
0.294196
0.295668
0.304199
0.293298
0.307652
0.300937
0.300191
0.303257
0.302442
0.303474
0.313246
0.305794
0.323116
0.317011
0.319226
0.302996
0.310918
0.299089
0.269417
0.269798
0.297161
0.322672
0.320685
0.295561
0.279091
0.303341
0.34338
0.339909
0.353823
0.315629
0.350344
0.36276
0.40373
0.354971
0.366264
0.389303
0.428285
0.531742
0.613269
0.541911
0.577195
0.644262
0.717793
0.617936
0.485798
0.599694
0.491365
0.523195
0.250842
0.21735
0.216027
0.209403
0.325144
0.446759
0.388698
0.45374
0.462124
0.474615
0.455501
0.001
0.001
0.0259907
0.001
0.0911303
0.006582
0.001
0.00100998
0.001
0.00100962
0.001
0.00100889
0.001
0.001
0.001
0.001
0.957134
0.949288
0.984136
0.972868
0.954973
0.924839
0.847943
0.769055
0.691364
0.711124
0.688192
0.688214
0.658514
0.67098
0.649731
0.648347
0.597188
0.638509
0.560569
0.506991
0.45065
0.407336
0.001
0.00107322
0.00107322
0.001
0.001
0.001
0.001
0.00107322
0.00107334
0.00107324
0.00100999
0.00100984
0.001
0.00100942
0.001
0.001
0.001
0.001
0.001
0.001
0.001
0.001
0.0177344
0.00104183
0.183249
0.0296085
0.38966
0.55381
0.566067
0.659852
0.880112
0.768998
0.888202
0.895535
0.895961
0.940984
0.96103
0.981797
0.369932
0.366018
0.322102
0.346942
0.286271
0.252966
0.242611
0.242828
0.235914
0.242475
0.192977
0.182146
0.134346
0.148099
0.206123
0.176221
0.140776
0.197923
0.190569
0.203515
0.117867
0.107943
0.13303
0.142728
0.141986
0.0982489
0.105032
0.101097
0.107628
0.0868937
0.090303
0.390753
0.366875
0.362903
0.36439
0.385232
0.489651
0.452057
0.428395
0.308809
0.356217
0.338211
0.341106
0.241033
0.171928
0.357734
0.469253
0.357457
0.359965
0.342493
0.427256
0.404136
0.477715
0.511372
0.436511
0.415098
0.455564
0.333885
0.298106
0.301229
0.299973
0.21293
0.271235
0.19408
0.148608
0.127207
0.245748
0.246364
0.294884
0.294827
0.293194
0.296004
0.291999
0.300124
0.29558
0.308108
0.30163
0.320449
0.313362
0.318914
0.318925
0.342947
0.329133
0.354542
0.358409
0.304493
0.290267
0.353075
0.338734
0.327692
0.341061
0.323983
0.311265
0.365475
0.343209
0.445677
0.454129
0.407143
0.447622
0.459286
0.419103
0.510664
0.488311
0.557161
0.574218
0.601217
0.504197
0.518808
0.507752
0.476019
0.451005
0.424193
0.510564
0.382819
0.341359
0.394569
0.418632
0.0991902
0.148162
0.231066
0.345604
0.388135
0.413726
0.319229
0.288261
0.228379
0.184914
0.001
0.001
0.001
0.001
0.0268735
0.102886
0.001
0.001
0.00100979
0.001
0.001
0.001
0.001
0.001
0.001
0.001
0.001
0.001
0.001
0.001
0.001
0.00101
0.001
0.001
0.001
0.001
0.0011895
0.001
0.0010727
0.001
0.00118931
0.00118932
0.001
0.001
0.001
0.001
0.001
0.001
0.001
0.001
0.00100959
0.001
0.00100965
0.001
0.001
0.001
0.946215
0.966941
0.987741
0.969544
0.953906
0.877319
0.693676
0.78388
0.666397
0.671739
0.655634
0.637515
0.640094
0.64334
0.631221
0.63253
0.576981
0.549236
0.448425
0.490675
0.346462
0.386583
0.001
0.001
0.001
0.001
0.001
0.001
0.001
0.001
0.00101
0.001
0.001
0.001
0.001
0.001
0.001
0.001
0.001
0.00100737
0.001
0.001
0.001
0.001
0.001
0.001
0.001
0.001
0.00101
0.001
0.001
0.001
0.0380451
0.001
0.0819031
0.0621287
0.361209
0.202229
0.570521
0.533043
0.601757
0.706649
0.809128
0.893705
0.911374
0.883703
0.922341
0.967658
0.947573
0.947891
0.00115578
0.001
0.001
0.001
0.001
0.001
0.001
0.001
0.001
0.001
0.001
0.001
0.001
0.001
0.001
0.00101
0.001
0.346662
0.346277
0.346706
0.311588
0.233129
0.270334
0.197866
0.187572
0.149478
0.146326
0.101819
0.0970698
0.128146
0.13058
0.0859464
0.118549
0.109734
0.165685
0.148257
0.148923
0.0661494
0.0402635
0.0385931
0.0806774
0.0898011
0.0889378
0.0634866
0.0711419
0.0296382
0.0173783
0.001
0.001
0.582152
0.554837
0.592751
0.604702
0.556085
0.511334
0.679289
0.696939
0.759709
0.769705
0.319438
0.363623
0.413292
0.497546
0.310249
0.266385
0.297392
0.297448
0.143956
0.185284
0.239839
0.122728
0.338437
0.342952
0.338172
0.345395
0.367722
0.341409
0.359273
0.371757
0.253367
0.242717
0.144573
0.228787
0.225113
0.183341
0.13071
0.153478
0.0970198
0.10832
0.0946009
0.180558
0.240805
0.177328
0.241871
0.293978
0.295189
0.293509
0.298469
0.30224
0.320386
0.315507
0.327656
0.323495
0.344949
0.336037
0.361795
0.359879
0.361513
0.358035
0.365481
0.364984
0.404296
0.375661
0.341411
0.342377
0.40664
0.375151
0.384228
0.427994
0.465208
0.464983
0.462579
0.465093
0.498006
0.550227
0.611937
0.62933
0.639689
0.618211
0.760888
0.695558
0.834106
0.870601
0.856893
0.899828
0.955147
0.813125
0.904003
0.930204
0.993976
1.04448
1.07981
1.09288
1.12455
1.0727
1.12996
1.0857
1.16393
1.16501
1.21696
1.1846
1.24193
1.27586
1.26127
1.21397
1.27183
1.29865
1.26401
1.26185
1.32497
1.30219
1.33303
1.27501
1.27437
1.33872
1.30577
1.25969
1.25779
1.29159
1.32364
0.318433
0.268978
0.448557
0.450202
0.410649
0.402175
0.412434
0.169112
0.317641
0.0173568
0.0429604
0.149474
0.137841
0.00460764
0.0994847
0.0754608
0.252398
0.145299
0.147698
0.0567992
0.0521715
0.0628833
0.0810553
0.001
0.00101
0.001
0.001
0.001
0.001
0.00101
0.001
0.001
0.001
0.001
0.00168986
0.001
0.001
0.001
0.001
0.001
0.001
0.001
0.001
0.0013673
0.001
0.001
0.001
0.001
0.001
0.001
0.001
0.001
0.001
0.00100829
0.001
0.001
0.001
0.00100928
0.001
0.001
0.00104763
0.001
0.00100665
0.001
0.001
0.00101
0.001
0.0010556
0.001
0.00105546
0.001
0.00100234
0.001
0.00101
0.00101
0.001
0.001
0.001
0.001
0.001
0.001
0.001
0.001
0.0010078
0.001
0.001
0.001
0.001
0.001
0.001
0.001
0.001
0.00101
0.001
0.001
0.940284
0.924974
0.903234
0.900527
0.813986
0.891601
0.713964
0.645032
0.641935
0.633325
0.638572
0.641591
0.576027
0.583553
0.427938
0.385578
0.346619
0.520025
0.51865
0.466843
0.468932
0.467406
0.001
0.001
0.00109478
0.00109458
0.001
0.001
0.001
0.001
0.00109449
0.001
0.001
0.00100893
0.001
0.001
0.001
0.001
0.001
0.001
0.001
0.001
0.001
0.001
0.00139736
0.00139748
0.001
0.001
0.001
0.0767113
0.194602
0.0627383
0.357246
0.528773
0.560424
0.59289
0.672973
0.787227
0.860054
0.827849
0.878344
0.80758
0.8602
0.904972
0.854828
0.855404
0.00102323
0.001
0.00101
0.001
0.001
0.0011935
0.001
0.001
0.0011935
0.001
0.001
0.001
0.001
0.001
0.001
0.001
0.001
0.001
0.00101
0.001
0.001
0.001
0.001
0.001
0.00205608
0.00101119
0.319024
0.321113
0.238574
0.258053
0.13841
0.160633
0.0956291
0.0931108
0.0940137
0.0953355
0.0685596
0.0699172
0.0440467
0.0421647
0.018758
0.0607097
0.133139
0.101449
0.126412
0.142944
0.001
0.001
0.0191196
0.001
0.00891952
0.0118027
0.001
0.001
0.001
0.001
0.00120925
0.001
0.812426
0.805798
0.638431
0.550733
0.541245
0.52768
0.799473
0.719983
0.963022
1.03733
0.940422
0.855522
1.04948
1.03371
1.10108
1.15166
1.18225
1.18283
1.20944
1.18428
1.23791
1.26507
1.25844
1.25979
1.27416
1.25723
1.25921
1.30573
1.25066
1.24678
0.370611
0.294487
0.446591
0.513984
0.297765
0.241371
0.297382
0.297059
0.130467
0.187135
0.0166627
0.181326
0.0690936
0.342815
0.283247
0.346396
0.337961
0.343865
0.231862
0.14325
0.0600531
0.0458747
0.0602142
0.0963578
0.024173
0.0122423
0.001
0.0243234
0.10585
0.101105
0.0233235
0.119618
0.186383
0.138668
0.244237
0.189243
0.233517
0.29017
0.323641
0.301498
0.334242
0.333312
0.34365
0.333582
0.36798
0.376915
0.376622
0.39195
0.396496
0.395148
0.431422
0.442128
0.431048
0.427652
0.433671
0.421452
0.441979
0.456088
0.503156
0.497082
0.465101
0.495815
0.492265
0.522035
0.555291
0.616335
0.650196
0.651023
0.662543
0.732202
0.814775
0.888163
0.897365
1.02921
0.901394
0.946056
1.10268
1.12868
1.12875
1.16615
1.21107
1.2632
1.26782
1.27392
1.30107
1.32827
1.35733
1.35557
1.35779
1.35811
1.35658
1.34216
1.27429
1.3388
1.3114
1.26098
1.26231
1.2965
1.32375
1.33451
1.2615
1.32405
1.2852
0.104731
0.0936599
0.162138
0.261092
0.138033
0.199739
0.34886
0.272735
0.29912
0.145987
0.0368128
0.001
0.00618999
0.108054
0.0931559
0.001
0.001
0.0524213
0.001
0.0582568
0.0533418
0.0707289
0.0655284
0.0726527
0.0951389
0.001
0.001
0.001
0.001
0.00148706
0.00148561
0.001
0.001
0.001
0.00168973
0.001
0.001
0.001
0.001
0.001
0.00101
0.001
0.00136691
0.001
0.00101
0.001
0.001
0.001
0.001
0.001
0.001
0.00105199
0.001
0.001
0.001
0.001
0.001
0.001
0.001
0.001
0.001
0.001
0.001
0.001
0.001
0.001
0.00102298
0.001
0.001
0.001
0.001
0.001
0.001
0.001
0.00101
0.001
0.00100962
0.001
0.001
0.001
0.001
0.001
0.001
0.001
0.001
0.849148
0.848277
0.833452
0.836287
0.762928
0.836586
0.637159
0.70397
0.596929
0.599261
0.544003
0.527337
0.468939
0.468302
0.384926
0.279425
0.253033
0.42426
0.468905
0.467577
0.46981
0.469019
0.00109414
0.001
0.00109413
0.001
0.001
0.001
0.001
0.001
0.00100548
0.001
0.001
0.001
0.001
0.001
0.001
0.00100999
0.001
0.001
0.001
0.001
0.001
0.001
0.001
0.00101
0.001
0.001
0.0371735
0.0713891
0.266323
0.0929618
0.396554
0.530875
0.508822
0.611568
0.788353
0.688002
0.764379
0.769116
0.758305
0.790055
0.838959
0.836372
0.850243
0.812576
0.001
0.001
0.001
0.001
0.001
0.001
0.001
0.001
0.001
0.001
0.001
0.001
0.001
0.001
0.001
0.001
0.001
0.001
0.001
0.00100999
0.001
0.001
0.00193352
0.001
0.00101
0.001
0.001
0.001
0.001
0.001
0.001
0.194413
0.200039
0.158167
0.139456
0.095626
0.118372
0.0834685
0.0816413
0.239493
0.181877
0.155784
0.0107053
0.001
0.001
0.001
0.0203818
0.0197824
0.0112724
0.0544485
0.115616
0.0616201
0.101204
0.0836586
0.001
0.001
0.001
0.001
0.001
0.00100971
0.001
0.001
0.001
0.001
0.001
0.001
1.38586
1.39157
1.42336
1.39935
1.44178
1.43045
1.45119
1.44053
1.49438
1.4794
1.44814
1.49882
1.45948
1.51508
1.34876
1.30124
1.32387
1.37137
1.35358
1.32185
1.32656
1.37937
1.38627
1.35737
1.33837
1.39357
1.37658
1.38533
1.41419
1.25677
1.25975
1.26272
1.25592
1.27671
1.3041
0.854772
0.798874
0.698966
0.597504
0.512235
0.588782
0.786413
0.772206
1.00666
1.03512
0.918387
1.00841
1.04139
1.08827
1.13715
1.18193
1.17924
1.18327
1.17768
1.2106
1.22231
1.24968
1.23542
1.23878
1.23598
1.2446
1.22774
1.22764
0.41847
0.350935
0.293417
0.28582
0.33987
0.516674
0.494086
0.21397
0.279753
0.151288
0.082932
1.36812
1.38589
1.40459
1.41199
1.41634
1.43185
1.43445
1.46525
1.4484
1.4675
1.46219
1.50944
1.52738
1.55013
1.55099
1.554
1.57078
1.5953
0.0624689
0.00691729
0.00445863
0.270595
0.155499
0.329416
0.226695
0.152344
0.0436641
0.0471286
0.0483377
0.0487774
0.001
0.001
0.001
0.001
0.001
0.001
0.114525
0.0428281
0.001
0.136405
0.13698
0.137549
0.194247
0.150998
0.273495
0.223096
0.306675
0.275028
0.311066
0.331334
0.358161
0.378171
0.406695
0.401913
0.412906
0.402041
0.464726
0.446454
0.44651
0.439831
0.491601
0.467828
0.536276
0.501079
0.478637
0.523788
0.568103
0.558118
0.58001
0.616083
0.618309
0.561919
0.677031
0.6999
0.670956
0.663909
0.741726
0.828423
0.896264
0.966616
0.912444
0.929457
1.06491
1.12156
1.16698
1.14599
1.20745
1.2405
1.27957
1.29145
1.28677
1.30672
1.36494
1.34895
1.3594
1.36905
1.35956
1.35892
1.36049
1.35573
1.36087
1.35401
1.35343
0.0940739
0.0886575
0.108239
0.0319132
0.0476033
0.0666625
0.00154162
0.142934
0.0509841
0.001
0.0048401
0.001
0.001
0.001
0.00335857
0.001
0.001
0.001
0.001
0.055306
0.001
0.001
0.001
0.001
0.001
0.001
0.001
0.001
0.0011254
0.00112539
0.00148662
0.001
0.00101
0.001
0.001
0.001
0.001
0.001
0.001
0.001
0.00100984
0.001
0.00112532
0.001
0.001
0.001
0.00101
0.001
0.001
0.001
0.001
0.00241335
0.001
0.001
0.001
0.001
0.001
0.001
0.00100993
0.001
0.001
0.001
0.001
0.001
0.00101592
0.001
0.001
0.001
0.001
0.00101385
0.001
0.001
0.001
0.001
0.001
0.001
0.001
0.001
0.00101
0.001
0.001
0.001
0.001
0.001
0.001
0.001
0.001
0.001
0.001
0.00209084
0.001
0.001
0.001
0.001
0.0020908
1.54944
1.51048
1.47318
1.58829
1.62418
1.6181
0.828177
0.832936
0.82105
0.81223
0.737263
0.802458
0.637949
0.56007
0.485916
0.499602
0.468021
0.471396
0.471071
0.466711
0.34768
0.260649
0.352556
0.433562
0.43402
0.001
0.001
0.001
0.001
0.001
0.001
0.001
0.001
0.001
0.001
0.00100943
0.001
0.001
0.0325365
0.0767154
0.0913208
0.00100998
0.001
0.001
0.001
0.001
0.001
0.001
0.001
0.001
0.001
0.001
0.236192
0.372733
0.485156
0.489527
0.811425
0.7225
0.744838
0.530689
0.614267
0.705699
0.757572
0.764835
0.752684
0.765774
0.809379
0.796292
0.001
0.00115969
0.001
0.001
0.001
0.001
0.00100904
0.001
0.001
0.001
0.001
0.001
0.001
0.001
0.001
0.001
0.001
0.00100504
0.001
0.001
0.001
0.001
0.001
0.001
0.001
0.001
0.001
0.001
0.001
0.001
0.00101
0.001
0.001
0.001
0.001
0.001
0.001
0.192967
0.23378
0.218376
0.162181
0.16021
0.131087
0.15456
0.0189743
0.0486362
0.001
0.001
0.164987
0.154331
0.001
0.001
0.001
0.001
0.0010021
0.001
0.00100005
0.001
0.0555872
0.0109039
0.0551935
0.0690065
0.001
0.001
0.001
0.001
0.001
0.001
0.001
0.001
0.001
0.001
0.001
0.001
1.38192
1.401
1.42235
1.44182
1.44443
1.44912
1.48877
1.46606
1.3173
1.31364
1.29783
1.31914
1.35
1.31394
1.35362
1.33135
1.24417
1.2319
1.23223
1.26609
1.29842
1.26894
0.86041
0.780406
0.674352
0.770653
0.610154
0.525716
0.773804
0.783519
1.01716
1.02513
1.03531
0.933
1.01248
1.12314
1.06809
1.01345
1.05617
1.15204
1.16926
1.15647
1.16572
1.172
1.19806
1.22762
1.21283
1.22514
1.22609
1.21996
1.2247
1.22887
1.22443
0.266106
0.26944
0.402356
0.490603
0.266944
0.346421
0.506274
0.524544
0.247926
0.215132
0.108751
0.177591
1.39866
1.35702
1.3737
1.42337
1.42199
1.42599
1.43466
1.45963
1.47944
1.48733
1.49185
1.49324
1.51485
1.55142
1.53503
1.55366
1.57061
1.62487
1.59395
1.4305
1.44321
1.4561
1.62858
1.61966
1.63022
0.00335896
0.00205513
0.00241946
0.001
0.0764452
0.0935179
0.001
0.00101685
0.001
0.001
0.001
0.001
0.001
0.00101
0.001
0.00100987
0.001
0.001
0.001
0.001
0.00188128
0.0648174
0.147524
0.04841
0.212736
0.233634
0.169718
0.211024
0.269899
0.243481
0.3622
0.310078
0.379338
0.39271
0.40358
0.391723
0.439927
0.483498
0.514429
0.519008
0.527321
0.511904
0.535947
0.518403
0.567159
0.569496
0.595448
0.594602
0.567485
0.572808
0.692105
0.742358
0.637937
0.703779
0.746973
0.71098
0.809763
0.855268
0.952098
0.994892
0.970729
1.06684
1.11835
1.21999
1.20369
1.26125
1.23352
1.32517
1.33392
1.32574
1.3545
1.38608
1.38336
1.44118
1.40463
1.43019
1.39526
1.39462
1.42668
1.36217
1.39458
1.35894
0.001
0.001
0.001
0.001
0.02029
0.001
0.00341643
0.001
0.00114159
0.001
0.001
0.001
0.001
0.001
0.001
0.001
0.001
0.001
0.001
0.001
0.001
0.001
0.001
0.001
0.001
0.00102985
0.001
0.001
0.00112538
0.00112538
0.001
0.001
0.001
0.001
0.00101
0.001
0.0010004
0.001
0.001
0.001
0.001
0.001
0.00219489
0.001
0.001
0.001
0.001
0.001
0.00101
0.001
0.001
0.00220201
0.001
0.001
0.001
0.00100982
0.00130352
0.001
0.00100983
0.001
0.001
0.001
0.00101
0.001
0.00101463
0.00101307
0.001
0.001
0.00101257
0.00101211
0.001
0.001
0.001
0.001
0.00159773
0.001
0.0015976
0.001
0.001
0.001
0.001
0.00100984
0.00101
0.00100994
0.001
0.001
0.001
0.001
0.001
0.001
0.001
0.001
0.001
0.001
0.00130346
0.001
0.00100958
0.00100997
0.001
0.001
0.001
0.001
0.00101
1.52605
1.50417
1.52176
1.52064
1.56429
1.67075
1.64364
1.63772
1.67554
1.60481
0.734271
0.728969
0.667162
0.662512
0.621043
0.649862
0.56673
0.517778
0.505213
0.466605
0.441296
0.446244
0.355153
0.366423
0.227836
0.280958
0.275527
0.001
0.001
0.001
0.00101
0.001
0.001
0.001
0.0625739
0.200265
0.0717849
0.001
0.001
0.001
0.001
0.001
0.001
0.00101
0.001
0.001
0.00102153
0.001
0.001
0.001
0.001
0.001
0.602475
0.601823
0.657439
0.354874
0.483563
0.489352
0.517539
0.649141
0.714166
0.677872
0.589238
0.675445
0.693286
0.706486
0.62093
0.651214
0.001
0.001
0.00115972
0.00101
0.001
0.001
0.00101
0.00117473
0.001
0.001
0.001
0.001
0.001
0.001
0.001
0.00102788
0.001
0.001028
0.00102791
0.00101
0.001
0.001
0.001
0.001
0.001
0.00100577
0.001
0.001
0.001
0.001
0.00108603
0.001
0.00100563
0.001
0.001
0.001
0.001
0.001
0.001
0.001
0.001
0.001
0.001
0.001
0.00102794
0.21411
0.222351
0.239608
0.0977259
0.124764
0.0809415
0.0808853
0.001
0.001
0.00143627
0.001
0.001
0.00147203
0.0122733
0.00839395
0.001
0.001
0.001
0.001
0.001
0.00102568
0.001
0.001
0.0570577
0.0166849
0.0818146
0.0374153
0.001
0.00119824
0.001
0.00102564
0.001
0.001
0.001
0.001
0.00101
0.001
0.001
0.00119823
1.39496
1.33986
1.43234
1.38207
1.39424
1.43762
1.41125
1.47788
1.42193
1.49991
1.44876
1.44158
1.50879
1.46617
1.28257
1.28118
1.27335
1.285
1.29868
1.30861
1.30794
1.32172
1.21882
1.22269
1.24357
1.22968
1.26283
1.26877
0.862983
0.780317
0.701099
0.783286
0.574078
0.661897
0.776785
0.789314
1.01207
1.01204
1.01011
0.939056
1.09736
1.14616
1.05925
1.01145
1.1511
1.14934
1.16332
1.1488
1.18714
1.20813
1.22005
1.22331
1.23031
1.21718
1.22731
1.21952
1.22588
1.21949
0.26672
0.259233
0.420537
0.505823
0.406855
0.31717
0.56069
0.506525
0.237423
0.255202
0.234735
0.141439
1.39755
1.43366
1.41953
1.44351
1.46479
1.45346
1.48851
1.49833
1.47302
1.48538
1.47716
1.48556
1.48927
1.51095
1.53296
1.55255
1.55519
1.60903
1.58752
1.6335
1.63821
1.50829
1.51979
1.6401
1.64967
0.001
0.001
0.001
0.001
0.001
0.001
0.001
0.001
0.00101
0.001
0.001
0.001
0.001
0.001
0.001
0.001
0.00188123
0.001
0.001
0.001
0.001
0.001
0.135849
0.0429492
0.229554
0.229053
0.19326
0.146458
0.26179
0.309153
0.365778
0.355164
0.377413
0.369626
0.482904
0.436979
0.537888
0.527175
0.554006
0.558714
0.534013
0.591906
0.633943
0.607804
0.592956
0.617269
0.670704
0.655081
0.634729
0.684269
0.764065
0.759888
0.758424
0.774679
0.905819
0.822776
0.993653
1.01834
1.02237
1.08749
1.16452
1.23819
1.24431
1.25749
1.30198
1.35031
1.38825
1.38445
1.42347
1.40288
1.4544
1.46625
1.46573
1.46617
1.46248
1.46654
1.43528
1.46427
1.43323
0.001
0.001
0.00735678
0.00102497
0.001
0.001
0.001
0.001
0.001
0.001
0.00101
0.00144812
0.001
0.00144932
0.00144805
0.00144803
0.00144944
0.001
0.00144732
0.00697283
0.001
0.001
0.001
0.00102999
0.001
0.00102985
0.00102985
0.001
0.001
0.00100217
0.001
0.001
0.001
0.001
0.00101
0.00128815
0.001
0.001
0.00100986
0.001
0.001
0.001
0.00186699
0.001
0.001
0.001
0.001
0.001
0.001
0.001
0.001
0.001
0.00100941
0.001
0.001
0.001
0.00100992
0.001
0.001
0.001
0.00101
0.001
0.001
0.001
0.001
0.001
0.001
0.0010008
0.001
0.001
0.001
0.00100949
0.001
0.001
0.001
0.001
0.001
0.001
0.001
0.001
0.001
0.001
0.00101
0.001
0.001
0.001
0.001
0.001
0.001
0.001
0.001
0.001
0.001
0.001
0.001
0.001
0.001
0.001
0.001
0.001
0.001
0.001
0.001
0.001
0.001
0.001
0.001
0.001
0.001
0.001
0.001
0.001
0.00106373
0.001
0.001
0.001
0.001
1.68989
1.68111
1.70116
1.68622
1.69965
1.69383
1.53964
1.51417
1.61725
1.56939
1.67253
1.70666
1.65613
1.58449
1.51935
0.604714
0.6014
0.60461
0.590559
0.605563
0.531932
0.584199
0.36518
0.423474
0.289233
0.282495
0.233365
0.236062
0.232266
0.001
0.001
0.001
0.001
0.0429091
0.227807
0.071276
0.001
0.001
0.0169296
0.001
0.001
0.001
0.001
0.001
0.001
0.001
0.00102967
0.0010298
0.001
0.00102971
0.001
0.001
0.001
0.60756
0.607654
0.609176
0.61085
0.605247
0.319899
0.427032
0.375119
0.492846
0.556581
0.574495
0.511766
0.594889
0.543362
0.547361
0.528698
0.001
0.0010976
0.001
0.001
0.001
0.001
0.001
0.00101458
0.001
0.001
0.00101252
0.001
0.001
0.001
0.00102008
0.001
0.001
0.001
0.001
0.001
0.001
0.001
0.001
0.001
0.001
0.00100955
0.001
0.001
0.001
0.001
0.001
0.001
0.001
0.001
0.001
0.001
0.00108628
0.001
0.00108598
0.001
0.001
0.001
0.001
0.001
0.00100037
0.001
0.001
0.001
0.001
0.001
0.00101
0.001
0.001
0.001
0.001
0.001
0.001
0.21641
0.145565
0.123923
0.0575958
0.0491204
0.001
0.001
0.001
0.001
0.001
0.00100956
0.001
0.001
0.001
0.001
0.001
0.001
0.001
0.001
0.001
0.001
0.0154135
0.0799879
0.001
0.001
0.001
0.001
0.001
0.001
0.001
0.001
0.001
0.001
0.00184452
0.00184422
0.001
0.001
0.001
0.001
0.00100972
0.001
1.32989
1.33604
1.35419
1.35384
1.36868
1.36251
1.44883
1.44322
1.42366
1.39356
1.4888
1.44835
1.44134
1.27151
1.2699
1.29956
1.28593
1.30663
1.31105
1.33414
1.31688
1.22396
1.22481
1.25098
1.23555
1.24873
1.25732
0.89862
0.821112
0.746486
0.778288
0.727109
0.633835
0.818012
0.78389
1.01466
1.01311
0.973169
1.01684
1.10567
1.15585
1.01696
1.0652
1.15614
1.15352
1.17502
1.15819
1.19587
1.21467
1.21378
1.20415
1.22358
1.21182
1.22053
1.22349
1.22203
1.22053
0.250786
0.318694
0.497749
0.481226
0.400006
0.484186
0.511353
0.581074
0.252136
0.242683
0.24621
0.157561
0.001
0.038139
0.116941
1.47058
1.47369
1.49998
1.49422
1.51627
1.52452
1.52922
1.52444
1.56053
1.5377
1.55021
1.51718
1.54927
1.55721
1.58436
1.60416
1.61835
1.61481
1.66883
1.66863
1.69085
1.67265
1.57573
1.58433
1.70068
1.69623
0.001
0.001
0.00101
0.001
0.001
0.00124865
0.00124893
0.001
0.001
0.001
0.001
0.00207556
0.00102841
0.001
0.001
0.001
0.00100232
0.001
0.001
0.001
0.001
0.0308384
0.0739205
0.089306
0.0711211
0.174989
0.250476
0.12721
0.353771
0.280671
0.359453
0.363827
0.45118
0.392885
0.51262
0.550689
0.542485
0.543598
0.671281
0.631134
0.600111
0.657737
0.685712
0.678876
0.676181
0.663797
0.677849
0.678901
0.758349
0.801936
0.836294
0.796033
0.83719
0.865285
1.00651
0.940131
1.03393
1.0199
1.10113
1.17352
1.26091
1.25517
1.2921
1.32778
1.40214
1.39638
1.41375
1.42671
1.45385
1.45774
1.47819
1.46961
1.47998
1.47602
1.46793
1.48036
1.46848
1.47089
0.001
0.001
0.00101
0.001
0.001
0.001
0.001
0.001
0.001
0.00144715
0.001
0.001
0.001
0.00144633
0.00144804
0.00144646
0.00144803
0.0014482
0.00144639
0.001
0.001
0.00100126
0.001
0.001
0.001
0.00100179
0.001
0.001
0.001
0.001
0.001
0.00101
0.001
0.001
0.00100863
0.00129025
0.001
0.001
0.001
0.00377828
0.001
0.001
0.001
0.00100989
0.001
0.001
0.001
0.00100983
0.001
0.001
0.00100647
0.001
0.00100976
0.001
0.001
0.001
0.001
0.00100032
0.003518
0.001
0.001
0.001
0.001
0.001
0.00125442
0.00125433
0.00125435
0.001
0.001
0.001
0.001
0.001
0.001
0.001
0.001
0.001
0.001
0.001
0.001
0.001
0.001
0.001
0.001
0.001
0.001
0.001
0.001
0.001
0.001
0.001
0.001
0.001
0.001
0.001
0.001
0.001
0.001
0.001
0.001
0.001
0.001
0.001
0.001
0.001
0.001
0.001
0.00101
0.001
0.00143596
0.001
0.00111408
0.001
0.00110843
0.001
0.001
0.001
1.70826
1.73591
1.74769
1.69636
1.70477
1.68526
1.7011
1.58378
1.62261
1.62674
1.61648
1.65601
1.69006
1.69755
1.53525
1.54432
1.48381
1.55947
1.5371
0.602544
0.593587
0.501189
0.465565
0.562292
0.491551
0.502497
0.371402
0.399187
0.258391
0.238974
0.228969
0.233196
0.211698
0.001
0.001
0.15737
0.262578
0.0467984
0.001
0.001
0.00113064
0.001
0.001
0.001
0.001
0.001
0.001
0.001
0.001
0.001
0.00101
0.001
0.001
0.001
0.001
0.001
0.001
0.565006
0.606796
0.580295
0.559239
0.323193
0.320469
0.347355
0.413849
0.533884
0.533859
0.488035
0.532211
0.531523
0.00100999
0.001
0.001
0.001
0.001
0.001
0.00113243
0.00113429
0.001
0.001
0.00101
0.00100946
0.001
0.001
0.00100846
0.001
0.0010099
0.00386177
0.001
0.001
0.001
0.001
0.001
0.001
0.001
0.00108578
0.001
0.001
0.00105156
0.001
0.001
0.001
0.001
0.001
0.001
0.001
0.001
0.001
0.001
0.001
0.001
0.001
0.001
0.001
0.001
0.001
0.001
0.001
0.001
0.001
0.001
0.00203327
0.001
0.001
0.001
0.001
0.001
0.001
0.001
0.001
0.001
0.001
0.001
0.126626
0.0452943
0.0468039
0.001
0.00101016
0.001
0.001
0.001
0.001
0.001
0.001
0.001
0.001
0.001
0.001
0.001
0.001
0.001
0.001
0.001
0.001
0.001
0.001
0.001
0.001
0.001
0.001
0.001
0.001
0.043211
0.001
0.001
0.001
0.001
0.00122523
0.00101
0.001
0.001
0.001
0.001
0.00100999
0.001
0.001
1.41115
1.34643
1.3942
1.37626
1.31661
1.39354
1.40238
1.40838
1.4173
1.46361
1.40252
1.48941
1.46529
1.52656
1.25034
1.27434
1.27071
1.29316
1.27735
1.30194
1.30603
1.29212
1.21878
1.2233
1.2353
1.24136
1.23635
1.23863
0.954607
0.874047
0.763306
0.779814
0.687335
0.775363
0.785269
0.844544
1.02098
1.01777
1.02249
0.994662
1.11313
1.15999
1.07767
1.03011
1.1622
1.16063
1.16601
1.18332
1.22238
1.21099
1.22445
1.20943
1.20679
1.21723
1.22
1.21773
1.21647
1.22128
0.336138
0.242084
0.508538
0.509908
0.423893
0.523482
0.521982
0.619596
0.238129
0.241265
0.218777
0.20929
0.141676
0.236897
1.48552
1.50244
1.52281
1.55209
1.54807
1.56654
1.57951
1.59102
1.59267
1.58154
1.59495
1.61522
1.63905
1.6495
1.65023
1.66054
1.67841
1.69953
1.70784
1.71577
1.72268
1.59341
1.58869
1.73755
1.76408
0.001
0.001
0.001
0.001
0.001
0.001
0.001
0.001
0.001
0.00207548
0.001
0.001
0.001
0.001
0.001
0.00105237
0.00105237
0.001
0.001
0.001
0.001
0.0274069
0.113048
0.102377
0.0167408
0.168327
0.179313
0.269778
0.327952
0.300689
0.377611
0.320353
0.511685
0.433633
0.546013
0.54947
0.559613
0.623176
0.749537
0.757802
0.697344
0.724196
0.760773
0.706004
0.810623
0.737934
0.714376
0.750542
0.882514
0.893809
0.960706
1.01397
0.896304
0.988627
1.13353
1.08031
1.14674
1.12078
1.30997
1.27831
1.34382
1.36049
1.43379
1.44118
1.5073
1.46847
1.51993
1.49916
1.51801
1.55377
1.52366
1.55525
1.56578
1.52183
1.51147
1.55812
1.55794
1.52424
0.001
0.001
0.00101
0.001
0.001
0.001
0.001
0.001
0.001
0.00107513
0.001
0.001
0.001
0.001
0.001
0.001
0.001
0.00144682
0.001
0.00100043
0.00142967
0.00101612
0.001
0.001
0.00120384
0.001
0.001
0.001
0.001
0.001
0.00149597
0.00100995
0.001
0.001
0.001
0.001
0.001
0.001
0.001
0.001
0.001
0.001
0.001
0.001
0.001
0.001
0.00101349
0.00101353
0.00101364
0.001
0.001
0.001
0.001
0.00120976
0.001
0.001
0.00120968
0.001
0.001
0.001
0.00100996
0.00143589
0.001
0.00115644
0.001
0.001
0.001
0.001
0.00101
0.001
0.001
0.001
0.001
0.001
0.001
0.001
0.001
0.001
0.001
0.001
0.001
0.001
0.001
0.001
0.001
0.001
0.001
0.001
0.001
0.001
0.001
0.001
0.001
0.001
0.001
0.001
0.001
0.001
0.001
0.001
0.001
0.001
0.001
0.001
0.001
0.001
0.001
0.001
0.001
0.001
0.001
0.001
0.001
0.001
0.001
0.001
0.001
0.00111408
0.001
0.001
0.001
0.00115644
0.001
0.001
1.76882
1.75074
1.7644
1.73704
1.73122
1.75475
1.74208
1.7181
1.7367
1.60147
1.62069
1.62459
1.64274
1.69398
1.73533
1.75763
1.6533
1.53629
1.58659
1.53334
1.5164
1.53035
1.57263
1.45079
0.365002
0.463479
0.366377
0.401761
0.406081
0.316192
0.307801
0.312157
0.314641
0.310573
0.289375
0.205829
0.181009
0.0938096
0.105321
0.213332
0.322057
0.001
0.001
0.001
0.001
0.001
0.00100999
0.001
0.001
0.00100155
0.001
0.00104293
0.001
0.001
0.001
0.001
0.00103125
0.001
0.00102719
0.001
0.00100507
0.471733
0.398955
0.370907
0.459906
0.325658
0.34504
0.482561
0.417037
0.45942
0.534988
0.532766
0.00110073
0.001
0.001
0.00115001
0.001
0.001
0.00113346
0.001
0.001
0.001
0.00100995
0.001
0.001
0.001
0.001
0.001
0.00386062
0.00386082
0.001
0.001
0.00386165
0.001
0.0020333
0.001
0.001
0.001
0.001
0.00360324
0.001
0.00105163
0.00360768
0.001
0.001
0.001
0.001
0.001
0.001
0.001
0.001
0.001
0.001
0.001
0.001
0.00101
0.001
0.001
0.001
0.001
0.001
0.00118668
0.001
0.001
0.001
0.00101
0.001
0.001
0.001
0.001
0.001
0.001
0.001
0.001
0.001
0.001
0.001
0.001
0.001
0.001
0.001
0.001
0.001
0.001
0.001
0.001
0.001
0.0174773
0.00100163
0.001
0.001
0.001
0.001
0.001
0.001
0.001
0.001
0.001
0.00162047
0.001
0.001
0.001
0.001
0.001
0.001
0.00162047
0.001
0.001
0.001
0.001
0.001
0.001
0.001
0.001
0.001
0.001
0.120783
0.046041
0.001
0.00101
0.00101
0.001
0.00101
0.001
0.001
0.001
0.001
0.001
0.001
0.001
1.31391
1.31781
1.32089
1.3526
1.33362
1.36698