/*--------------------------------*- C++ -*----------------------------------*\
  =========                 |
  \\      /  F ield         | OpenFOAM: The Open Source CFD Toolbox
   \\    /   O peration     | Website:  https://openfoam.org
    \\  /    A nd           | Version:  8
     \\/     M anipulation  |
\*---------------------------------------------------------------------------*/
FoamFile
{
    version     2.0;
    format      ascii;
    class       volScalarField;
    location    "14460";
    object      nut;
}
// * * * * * * * * * * * * * * * * * * * * * * * * * * * * * * * * * * * * * //

dimensions      [0 2 -1 0 0 0 0];

internalField   nonuniform List<scalar> 
526318
(
0.000338219
0.000266005
0.00018186
9.71713e-05
0.00027396
0.000127941
0.000507242
0.000433254
0.000221791
0.000550039
0.000374768
0.000493779
0.000310701
0.000217257
0.000264719
0.000122334
0.000123693
0.000420879
0.000187867
8.72964e-05
0.00025862
7.09867e-05
0.000672838
0.000169664
0.000740657
0.000293122
0.000152593
5.14539e-05
0.000330498
0.000158476
0.000262592
0.000152468
0.000164918
0.00011522
0.000186438
0.000136148
0.000294563
7.87656e-05
0.000206691
0.000126482
5.44917e-05
0.00023261
0.000557747
0.00106978
0.000394144
0.000788036
0.000254789
0.000538445
0.00032528
0.000316567
2.10021e-05
0.000140696
8.07387e-05
0.000101536
0.000567114
0.0012677
0.000810882
0.000689808
0.000154366
0.000214425
0.000152609
0.000101988
0.00014177
0.000111464
0.000241617
8.81416e-05
0.000180659
5.24536e-05
0.000160115
0.000256231
0.000105559
6.4848e-05
8.23373e-05
0.000127024
3.1108e-05
0.000125458
0.000101362
3.2716e-05
0.000111392
7.28686e-05
4.15119e-05
0.000149935
0.000161537
6.14749e-05
0.000166658
0.000156822
4.19732e-05
0.00013321
0.000122927
0.000161392
8.00351e-05
0.000147698
0.00012757
7.312e-05
0.000222731
0.000157829
9.80496e-05
0.000131832
0.000168202
0.00016478
0
0
0
0
9.89915e-05
0
0.000715692
0.000287114
0.00079689
0.000193183
0.00067997
0.000614075
0.00029685
0.000666849
0.000339726
0.000102606
0.000181091
7.05808e-05
0.000254891
0.000148071
0.000149346
0.000132586
8.73873e-05
0.000145125
0.000145504
0.000155799
0.000133531
0.000149501
0.000156027
0.00013817
0.000154389
0.000166954
0.000110163
0.000150509
0.000144754
0.00011708
0.000167465
9.9286e-05
0.000127547
0.000102451
0.000108468
6.67392e-05
0.000116142
0.000102464
9.97062e-05
0.000120902
6.8691e-05
8.87558e-05
7.5676e-05
8.34869e-05
9.94293e-05
7.32696e-05
6.54523e-05
9.14964e-05
7.2901e-05
7.28182e-05
7.09907e-05
0.000103956
5.14502e-05
6.23478e-05
7.70291e-05
6.0516e-05
9.13936e-05
6.21798e-05
0.000119816
0.000118753
0.000132367
7.01416e-05
0.000113359
5.49869e-05
0.000128385
3.19224e-05
6.87203e-05
7.46466e-05
8.28107e-05
0.000133842
0.000116461
0.000128621
9.29474e-05
7.31009e-05
0.00013869
4.82475e-05
0.000119281
0.000156526
9.44938e-05
0.000141832
0.000152532
0.000168041
0.000151899
0.000137845
0.000173525
8.87038e-05
0.000135084
0.000106767
9.93087e-05
9.78109e-05
0.000117431
9.76431e-05
0.000111197
0.000106624
0.000120132
0.00012987
0.000115781
9.04639e-05
0.000118552
0.00010698
7.5544e-05
0.000112226
9.49053e-05
7.30365e-05
0.000138224
0.000250081
0.000295246
8.79902e-05
0.0002105
9.73431e-05
4.69784e-05
0.000102866
6.97108e-05
0.000797119
0.000146267
0.000382768
0.000365333
0.00020795
9.93467e-05
0.000103183
0.000194199
9.09223e-05
5.87422e-05
1.882e-06
0
0.000355649
0.00123253
0
0
0
0
0
0
0.000112403
0.000193996
0.000143126
0.000203875
8.207e-05
0.000121612
0.000190211
0.000141906
0.000120296
0.000132371
0.00019581
4.1049e-05
0.000131766
0.000124799
0.000100247
0.000237271
0.000183563
0.000111444
0.000158882
0.000135679
0.000177397
0.000151425
0
0
0
0
0
0
0
0.000151795
0.000326239
0.000259436
0.000639942
0.000288851
0.000648713
0.000402088
0.000469453
0.000162491
0.000100647
0.000258951
0.000110497
0.00011998
0.000132751
0.000163599
0.000149511
0.000130091
0.00012784
0.000117237
0.000105017
8.20989e-05
7.4093e-05
6.19644e-05
0.000108414
7.43335e-05
5.6204e-05
2.259e-05
6.10135e-06
9.64055e-05
7.4752e-05
5.25273e-05
7.63821e-05
5.32718e-05
8.09921e-05
5.61602e-05
1.94456e-05
3.00336e-05
6.13721e-05
8.59443e-05
0.000125299
5.85902e-05
6.75643e-05
4.11839e-05
4.26513e-05
2.33122e-05
6.21036e-05
4.581e-05
1.1865e-05
1.86488e-05
5.84218e-05
2.44409e-06
0.000104728
2.85893e-05
0.000148041
5.90454e-05
1.91851e-05
3.16887e-05
3.80861e-05
3.33804e-05
3.10795e-05
5.85512e-05
7.16771e-05
0.000132021
9.89049e-05
9.63027e-05
8.64011e-05
0.000104838
7.44082e-05
0.000109506
6.07988e-05
5.40383e-05
0.000128295
0.000107966
0.000160124
0.000167201
0.000148876
0.000143813
0.000154693
0.000126874
7.54619e-05
7.37617e-05
0.00011098
0.000112846
0.000124824
0.000138597
0.000137153
0.000153502
0.000119976
0.000134251
8.9163e-05
0.000109656
0.000110071
0.000103222
9.11651e-05
0.000102588
0.000100726
0.000120655
8.68753e-05
5.60617e-05
6.25369e-05
0.000113113
4.05277e-05
6.0871e-05
3.5369e-05
8.41162e-05
8.45191e-05
3.35319e-05
5.09807e-05
0.000145259
0.000196518
6.34261e-06
0.000111972
7.33477e-05
0.00024011
0.000149708
6.61011e-05
9.25089e-05
0.00012719
0.000136664
5.07775e-05
8.13423e-05
0.000183906
0.000432852
0.000242216
0.000491388
0.000410278
8.49887e-05
0.000164325
0.000244066
0.000156442
0.00022391
0
0
8.41814e-05
0
0.000247725
1.19653e-05
0
0
0
0
0
0
0
0
0
0
0.00016706
0.000103095
0.000161192
0.000108774
0.000162839
0.00017529
0.000179943
0.000162268
0.000120883
0.000196757
0.000233034
3.4763e-05
0.000121495
0.000254351
0.000147281
0.000160569
0.000199059
0.000101155
0.000100723
0.000181075
0.000124848
0.000135376
0
7.84505e-10
5.98899e-11
0
0
0
0
1.66589e-10
8.23706e-10
7.44963e-10
0
0
0
0
0
0
0
0
0
0
0
0
2.14592e-05
0
0.00013474
4.43025e-05
0.000226711
0.000309202
0.000223228
0.000430742
0.000209187
0.000466368
0.000362545
2.14217e-05
0.000191115
4.27186e-05
5.43355e-05
0.000109469
0.000140482
8.06753e-05
0.000110334
0.000144279
8.52717e-05
0.000111894
9.40516e-05
9.32813e-05
4.73997e-05
6.24595e-05
3.9503e-05
9.61991e-05
2.95804e-05
1.83393e-05
7.91118e-05
8.43169e-05
7.88702e-05
5.04832e-05
2.85467e-05
1.362e-05
3.5354e-05
2.74753e-05
4.22119e-05
4.9489e-05
4.68437e-05
2.65953e-05
3.62362e-05
3.05681e-05
3.72006e-05
8.04931e-06
1.51024e-05
0.000129586
8.74363e-05
3.14708e-05
3.80561e-05
4.35745e-05
4.25833e-05
4.16255e-05
6.66423e-05
3.17679e-05
8.93946e-05
9.35611e-06
4.55228e-05
6.14817e-05
4.70592e-05
9.15097e-05
4.89809e-05
4.48992e-05
2.19636e-05
1.68691e-05
2.14804e-05
4.30436e-05
3.41492e-05
6.33816e-05
6.91736e-05
4.86756e-05
0.000113336
0.00010839
9.67324e-05
8.59429e-05
7.7844e-05
0.000112399
7.51121e-05
5.8178e-05
8.7778e-05
7.08873e-05
0.000120395
7.79069e-05
0.000152175
0.000130344
0.000132147
7.73252e-05
0.000113232
7.02065e-05
0.000109985
0.000113611
0.000141517
0.000154018
0.000130285
0.000114561
0.000110217
9.57791e-05
0.000103587
8.97411e-05
0.000112936
0.000132881
0.000102916
0.000115275
0.000125146
8.32075e-05
7.78822e-05
7.88128e-05
8.15297e-05
9.97057e-05
5.88195e-05
0.000126945
0.00010161
0.000112696
0.000105419
9.99212e-05
7.656e-06
2.09908e-05
7.73286e-05
7.15118e-05
5.14192e-05
5.68493e-05
0.000144791
0.000131011
0.000192271
0.000116466
0.000133038
5.98054e-05
0.000147643
0.000131093
6.1058e-05
0.000171741
0.000141585
0.000189752
0.000200021
0.000201018
0.000227325
0.000326384
0.000179119
0.000102887
0.000159518
0.000170053
6.10272e-05
0
0
0
0
1.96203e-05
0.000201232
0
0
0
0
0
0
0
0
0
0
0
0
0
0
0
0
0
0
0
0
2.03101e-09
0
1.58194e-10
0
7.73495e-10
2.18489e-09
0
0
0
0
0
0
0
0
0
0
0
0
0
0
0.000121655
0.000141691
7.10045e-05
0.000134512
0.00014761
0.000131137
7.36042e-05
0.000162855
0.000166713
0.000264196
0.000190937
0.000113339
0.000120999
0.000150812
0.000151014
0.000132497
7.56548e-05
0.000195144
0.00013641
5.89625e-05
5.29578e-05
8.13591e-05
0
0
0
0
0
0
0
0
0
0
0
0
0
0
0
0
0
0
0
0
0
0
0
0
0
0
0
0
0
0
0.00015823
0
2.23516e-05
0.000123714
0.000274051
3.34144e-05
0.000307269
0.000208152
0.000203454
0.000315058
0.000370495
0.000145835
8.6737e-05
0.00021131
0.000144623
5.5143e-05
0.000197331
6.14904e-05
8.27291e-10
0
0
0
0
0
0
0
0
0
0
0
0
0
0
0
0
0.000131637
7.16713e-05
6.92929e-05
0.000103264
7.28172e-05
7.73944e-05
5.02419e-05
8.02104e-05
4.1424e-05
5.29797e-05
1.56008e-05
4.07959e-05
8.29512e-05
7.40721e-05
2.90373e-05
3.36941e-05
9.80319e-06
2.84247e-05
4.11661e-05
5.4574e-05
3.53696e-05
3.79571e-05
2.6315e-05
5.14288e-06
3.10245e-05
3.5009e-05
3.41186e-05
6.57097e-06
4.28447e-06
8.71204e-06
0
0
0.000140969
6.05058e-05
9.28811e-05
0.000103882
5.00664e-05
2.4922e-05
8.82785e-05
0.00013101
0.000133327
0.000147091
3.94083e-05
8.2234e-05
0.000129049
1.76196e-05
1.1991e-05
3.25572e-05
8.64949e-05
3.19481e-05
8.1251e-05
7.40233e-05
4.31457e-05
6.08417e-05
2.89812e-05
8.98297e-06
4.44721e-05
5.27582e-05
6.85606e-05
5.90328e-05
7.72363e-05
3.33587e-05
0.000101731
7.84512e-05
6.19264e-05
6.99556e-05
7.47874e-05
2.90201e-05
0.00021716
8.82504e-05
0.000238023
5.71333e-05
8.2725e-05
0.000113342
0.000143432
6.69658e-05
0.000116405
8.01976e-05
7.59308e-05
9.95089e-05
0.000148866
0.000120358
0.000114111
0.000142378
0.000101054
8.1404e-05
0.000122892
9.04807e-05
0.000130104
9.70384e-05
9.54503e-05
0.000106146
0.00012295
0.000105756
0.000128898
0.000112482
7.38778e-05
8.60375e-05
7.56363e-05
9.79659e-05
9.25378e-05
0.000138635
0.000102925
5.22709e-05
9.63403e-05
0.000148993
7.87088e-05
7.43993e-05
8.17187e-05
4.46253e-05
0.000105768
9.35197e-05
9.59156e-05
0.000151152
0.000158056
0.000140372
0.000185116
0.000204755
0.000219586
0.000204706
0.000166003
0.000210458
0.000212154
0.000266022
0.000212344
0.000277118
0.000254702
0.000219963
0.000242768
0.000263663
0.000306997
0.000293082
0.000278269
0.000309223
0.000276436
0.000258541
0.000272509
0.000318341
0.000226943
0.000287577
0.000269457
0.000349288
0.000207976
0.000296879
0.000277904
0.000322686
0.000368976
0.000260927
0.000298649
0.000349793
0.000371989
0.000283312
0.00026653
0.000109018
0.000134017
0.000102248
0.000107147
8.66869e-06
2.70013e-05
0.00014206
8.62957e-05
3.3543e-05
7.32936e-06
2.46669e-05
5.09114e-05
0.000118814
1.55775e-06
5.95691e-05
0.000195154
0.000159681
4.73704e-05
0.000106543
9.48152e-06
3.01106e-05
4.67881e-05
4.86611e-05
0
0
0
0
0
0
0
0
0
0
0
3.67246e-09
0
0
0
0
0
0
0
0
4.42125e-09
0
0
0
0
0
0
0
0
0
0
0
0
0
0
0
0
1.7254e-09
0
0
0
0
0
0
1.43696e-09
0
1.06215e-09
0
0
0
0
0
0
0
0
0
0
0
0
0
0
0
0
0
0
0
0
0
0
0
0
0
0.000116481
8.46411e-05
9.90935e-05
8.28391e-05
9.7549e-05
0.000175806
0.000190856
9.78475e-05
0.000144378
2.00302e-05
7.98721e-05
0.000168823
0.000141621
0.000145813
5.46681e-05
0.000102083
4.70548e-05
0.000124409
9.79334e-05
0.000102448
6.73225e-05
5.56386e-05
0
0
1.35764e-09
1.40652e-09
0
0
0
0
2.63537e-09
0
0
0
0
0
0
0
0
0
0
0
0
0
3.49798e-09
2.95849e-09
0
0
0
3.96246e-05
0.000168184
0.000103251
0.000223285
0.000241764
0.00022103
0.000150726
0.000183375
0.000298189
0.000179847
0.000266904
1.26898e-05
0.000145864
0.000203573
0.00015423
8.96093e-05
0.000199686
1.08688e-09
0
0
0
0
2.90154e-11
0
0
1.0614e-11
0
0
0
0
0
0
0
0
0
0
0
0
0
0
0
4.98471e-07
6.615e-07
8.0772e-05
5.4516e-05
5.47331e-05
3.34428e-05
3.60134e-05
1.74831e-05
2.12939e-05
1.58791e-05
2.10751e-05
4.15558e-05
7.76318e-06
2.90717e-05
1.76294e-05
2.13701e-05
1.15152e-05
7.12088e-06
2.82632e-05
5.26953e-05
9.62855e-05
3.01229e-05
0
0
7.69318e-06
0
2.0185e-06
4.08076e-06
0
0
0
0
3.88579e-10
0
0.000203077
0.000152474
6.29771e-05
7.37247e-05
7.05478e-05
2.72326e-05
0.00018573
9.58746e-05
0.000241392
0.000320927
0.000236295
0.000231165
0.00033995
0.000267013
0.000305135
0.000318841
0.000320294
0.000344626
0.000314451
0.000387135
0.000402943
0.000352279
0.000426183
0.000362153
0.000305017
0.000399189
0.000363166
0.000296071
0.00037762
0.000446951
3.62181e-05
2.02585e-05
9.59126e-05
3.71551e-05
7.02056e-05
9.66156e-05
2.92973e-05
3.40471e-05
8.05307e-05
2.40452e-05
8.67436e-06
5.54445e-05
3.68918e-05
7.69593e-05
0.0001148
0.000105991
0.000110444
5.20539e-05
4.5308e-05
2.94523e-05
2.83025e-05
1.6629e-05
3.31522e-05
4.34254e-05
1.47978e-05
1.22279e-05
0
0.00013558
1.83138e-05
8.06143e-05
4.25676e-05
7.17987e-05
0.000133489
7.36149e-05
8.60243e-05
0.000119962
0.000127645
0.000104077
7.73534e-05
0.000131106
0.000103762
7.1538e-05
0.000127961
9.92957e-05
0.000102432
0.000129171
0.000126219
8.06932e-05
0.000111249
0.000103968
0.000114319
0.00013335
0.00012635
0.000123032
0.000141943
7.40925e-05
0.000104425
0.000114854
0.000103758
0.000104171
6.31465e-05
0.000123345
0.000100557
8.64598e-05
7.87382e-05
0.000111081
7.98776e-05
0.000119798
0.000116894
0.00011212
0.000149123
0.000169391
0.000186278
0.000200384
0.0002212
0.000237453
0.000268114
0.000215977
0.000273983
0.000239184
0.000253629
0.000208131
0.000216197
0.000193386
0.000187383
0.000209767
0.000197179
0.000209162
0.000220624
0.000226411
0.000222069
0.000209866
0.000269696
0.000226746
0.000222914
0.000306032
0.000260816
0.000231847
0.000202364
0.00019888
0.000322717
0.000252236
0.000244376
9.69711e-05
6.3253e-05
7.12981e-05
3.56998e-05
0.000119461
6.38949e-05
6.11307e-05
6.75809e-05
0.000139224
8.75638e-05
7.55274e-06
0
2.81227e-06
2.42194e-05
6.13917e-05
0
0
5.78546e-05
0
6.21834e-05
7.40124e-05
2.79808e-05
6.67151e-05
8.70843e-05
6.28577e-05
0
0
0
0
1.39102e-09
6.14328e-09
0
0
0
4.35584e-09
0
0
0
0
0
0
0
6.57797e-09
0
0
0
0
0
0
0
0
2.20278e-11
0
0
0
0
0
0
0
0
0
0
0
0
0
0
1.60866e-09
0
0
0
0
0
0
0
0
0
0
0
0
0
0
0
0
0
0
0.000161348
7.41263e-05
6.21947e-05
0.000127219
9.1919e-05
0.000147829
7.78924e-05
0.000163518
0.000109203
0.00019665
0.000120372
8.27392e-05
8.52873e-05
8.32138e-05
3.09897e-05
4.19972e-05
4.59114e-05
4.12048e-05
4.08023e-05
5.89096e-05
4.97182e-05
3.66459e-05
7.96965e-10
0
7.62131e-10
0
0
0
0
0
0
0
0
0
0
0
0
0
0
0
0
0
0
0
0
0
0
0
4.73344e-05
7.39208e-05
2.4277e-05
3.61557e-05
0.000139885
0.000142387
0.000140257
3.08033e-05
0.000209801
0.000101434
0.000199162
8.838e-05
0.000112201
4.79154e-05
8.05183e-05
0.000174359
6.31617e-05
0.00020075
0
0
0
0
0
0
0
0
0
0
0
0
0
0
0
0
0
0
0
0
0
0
4.03134e-07
0
0
0
0
0
0
0
0
2.82617e-05
5.36007e-05
1.82391e-05
1.30083e-05
8.86168e-06
1.66625e-05
2.71035e-05
1.78873e-05
4.44313e-06
3.23388e-05
4.64815e-05
1.02298e-06
0
0
0
7.24463e-06
8.2316e-06
3.59228e-06
1.83613e-05
9.22029e-06
3.82576e-05
2.80749e-05
5.01997e-05
0
0
0
0
0
0
0
0
0
0
0
0
0.000133208
6.25503e-05
0.000112037
8.4598e-05
8.2645e-05
6.71595e-05
0.000209545
9.19648e-05
0.000117124
0.000179006
9.69995e-05
0.000292509
0.00025465
0.000322265
0.00021081
0.000287837
0.000225379
0.000180926
0.000145796
0.000246014
0.000192567
0.000197304
8.37398e-05
0.000193253
0.00015088
0.000164227
0.000165414
8.30284e-05
0.000111493
0.000404853
0.000360706
0.000334888
0.000393049
0.000362093
0.000259708
0.000176285
0.000148135
5.28516e-05
0.000100995
8.43307e-05
9.40563e-05
0.000221158
0.000186025
0.000291476
0.000331231
0.000249942
0.000197941
0.000308074
0.000364733
0.000345069
0.000325365
0.000347322
0.00034723
0.000361586
0.000390387
0.000429559
0.000381169
0.000443966
0.000390897
0.00045879
0.000415322
0.000456321
0.000424378
3.42767e-05
0.000102866
7.64493e-05
6.55658e-05
2.84225e-05
7.89333e-05
6.9388e-05
0.000142745
9.19125e-05
2.72507e-05
5.51074e-05
0.000196785
0.000176908
0.000176567
0.000140061
0.000146885
0.00012463
9.85285e-05
0.000105373
0.000127226
5.55619e-05
1.91523e-05
0.000135976
0.000198768
0.000309242
0.000206688
0.000354639
0.000181948
0.000149252
2.86626e-06
5.22819e-06
2.79128e-06
9.37808e-05
0.000108416
0.000132044
1.44895e-05
8.22413e-05
2.10861e-05
1.78684e-05
1.30119e-05
2.67603e-05
0
0
0
0
0
0
6.89188e-05
9.01594e-06
0
4.60915e-05
0.000148699
6.93576e-05
7.67154e-05
0.000107976
7.18961e-05
9.96702e-05
9.02545e-05
9.59403e-05
0.000120679
0.000115921
8.2251e-05
8.87683e-05
0.00013486
8.845e-05
0.000120698
0.000128298
0.000111797
8.79627e-05
0.000132334
9.54358e-05
9.843e-05
8.9811e-05
7.0708e-05
8.71439e-05
7.13269e-05
7.77911e-05
0.000161744
0.000113812
9.85944e-05
0.000113213
8.1648e-05
0.000142055
0.000164761
0.00015657
0.00019221
0.000171272
0.000163601
0.000189077
0.000221155
0.000191178
0.000224265
0.000242677
0.000266143
0.000192331
0.000260802
0.000195494
0.000221999
0.000185057
0.000137865
0.000193053
0.00016733
0.000129896
0.000159295
0.000216897
0.000170856
0.000229347
0.000204006
0.000184069
0.000188898
0.000192836
0.000194983
0.000183635
0.000172555
1.353e-05
4.25619e-05
0.000119624
1.72257e-05
2.81508e-05
5.8044e-05
6.98123e-07
0.000128129
4.38574e-05
0
3.5634e-06
0
0
0
1.513e-06
0
0
0
0
2.34157e-05
0
0
0
0
0
0
0
0
6.76694e-10
7.84757e-10
1.11248e-08
0
0
0
0
0
0
0
0
0
0
0
2.57434e-09
0
0
0
0
0
0
0
0
2.76419e-07
0
0
0
0
0
0
0
0
0
0
0
0
1.21966e-09
0
0
0
0
1.87673e-09
0
0
0
0
0
0
0
0
0
0
0
0
0
0
0
0
0
0
0
2.29948e-09
0
0
0
0
2.58135e-09
0.00019312
0.000378108
0.000276422
0.000102116
0.00012175
0.000195703
0.000112383
9.27124e-05
3.2865e-05
8.54959e-05
4.06026e-05
0.000193624
0.000122218
8.50312e-05
4.3325e-05
9.30611e-05
1.70141e-05
6.98165e-05
3.39126e-05
3.70487e-05
4.76393e-05
3.93966e-05
2.50941e-05
3.12613e-05
2.25201e-05
0
0
0
0
0
0
0
0
0
0
0
0
0
2.10895e-05
7.30554e-05
6.3469e-05
0
0
0
0
0
0
0
0
0
0
0
1.14149e-05
4.92341e-05
4.45492e-05
9.94506e-05
0.000130983
1.50358e-05
4.9305e-05
7.12274e-05
5.62024e-05
4.27546e-05
8.42525e-05
4.9001e-05
0.000189268
6.31167e-05
2.39768e-05
7.21888e-05
0
2.80053e-10
0
0
0
0
0
0
0
0
0
0
0
0
0
0
0
0
0
0
0
0
0
0
0
0
0
0
0
0
0
0
0
0
0
0
0
1.6081e-05
3.51567e-05
2.07464e-05
3.81371e-05
4.44395e-05
1.74308e-05
1.19613e-05
2.62095e-05
5.23968e-05
0
0
1.32592e-05
3.30484e-05
0
0
0
0
0
0
0
0
2.56416e-05
7.93335e-07
3.42726e-05
6.73009e-06
0
0
0
0
0
0
0
0
0
0
0
0
2.06003e-05
8.97798e-05
5.87425e-05
0.000131899
0.000133985
8.74254e-05
0.000306058
0.000367425
0.000230662
0.000309136
0.000238676
0.000226387
0.000194953
0.000208055
0.000173215
0.000173743
0.000429015
0.000437579
0.000413077
0.000354076
0.000323833
0.000331203
0.000205153
0.000233177
0.000108547
5.47044e-05
0.000139638
9.96203e-05
0.000221146
0.000200962
0.000283635
0.000303654
0.000289639
0.00026102
0.000233256
0.000388168
0.000413777
0.000334847
0.00039182
0.000409353
0.00042616
0.000432196
0.000450786
0.000446951
0.000498148
0.000517143
0.000458404
0.000441395
0.000502813
0.000413917
0.000467973
0.000492603
0.000417084
3.90699e-05
4.49736e-05
0.000132216
6.66806e-05
2.2488e-05
5.15658e-05
0.000113641
9.43699e-05
8.36609e-05
9.85121e-05
4.88837e-05
4.69875e-05
0.000133938
0.000152683
0.00013373
0.000108355
0.000154392
0.000121632
0.000128601
0.000107631
0.000119013
1.66573e-05
3.8324e-05
0.000157926
0.000178823
0.00015427
0.000214219
0.000228383
0.000129987
7.79285e-05
7.82629e-05
0.000132333
0.000121732
8.9304e-05
0.000171218
7.97973e-05
5.23385e-05
1.8343e-06
5.15328e-07
7.27011e-07
0
8.48489e-06
8.2018e-05
0
0
0
0
0
0
0
0
0
0
0
0
0
0
2.84264e-09
9.46846e-05
0.000111078
0.000126428
2.33549e-05
9.12006e-05
4.29813e-05
6.32546e-05
0.000128922
5.71951e-05
7.62607e-05
8.56226e-05
0.000111888
4.92037e-05
0.000141121
0.000128043
0.000114237
0.000137328
9.65276e-05
0.000165056
0.000107684
0.000106715
0.000136485
0.000108926
0.00014104
0.000135985
0.000153944
0.000160139
0.000154333
0.000122819
0.000220243
0.00015733
0.000244107
0.000202649
0.000247312
0.00012948
0.000208578
0.000162008
0.000194036
0.000217748
0.000183907
0.00023378
0.000209619
0.000230642
0.000195471
0.000169862
0.000179243
0.000147185
0.000123447
0.000114452
0.000167286
0.0002234
0.000115056
0.000234532
0.000127641
0.000170356
0.000146903
0.00014266
0.000172288
0.000168508
0.000146598
0.000141438
0
0
0
0
1.43674e-05
0
8.39386e-07
0
8.65772e-09
0
0
0
0
0
0
0
0
0
0
0
0
0
0
0
0
6.33065e-11
0
0
1.90816e-09
5.19164e-10
0
0
0
0
0
0
0
0
0
0
0
0
3.0396e-07
0
0
0
0
0
0
0
0
2.27343e-07
0
0
0
0
1.28273e-09
0
0
0
0
0
0
0
2.017e-09
4.62029e-09
0
0
1.33655e-08
5.59498e-09
0
0
0
0
3.09255e-09
0
4.13654e-09
0
0
0
0
0
0
0
0
0
0
0
0
0
0
0
0
0
1.42547e-09
0
0
0
0
0
0
0
0
0.000202665
0.00024648
6.40641e-05
0.000371705
0.000234987
0.000147372
6.19766e-05
0.00016597
3.8827e-05
0.00017869
0.000123162
8.74198e-05
9.24035e-05
0.000128117
3.27667e-05
6.67176e-05
6.1718e-05
3.72504e-05
6.06487e-05
7.48941e-05
7.49248e-05
3.51704e-05
5.50376e-05
3.53995e-05
4.85548e-05
2.72106e-05
3.88653e-05
0
0
0
0
0
0
0
7.40639e-05
0.000170686
6.7416e-05
0
0
0
0
0
0
0
0
0
1.66923e-11
0
0
0
0
0
8.43787e-05
9.06228e-05
1.8251e-05
8.08102e-05
0.000125709
0.000112718
1.75308e-05
8.62559e-05
0.000101176
8.05862e-05
6.22949e-05
0.000110662
0.000107657
9.32302e-05
9.72269e-05
6.12999e-05
0
0
2.64285e-10
0
0
0
0
1.49376e-10
0
0
0
0
0
0
0
2.09076e-09
0
9.15405e-10
1.57728e-09
0
0
0
0
0
0
0
0
0
0
0
2.00483e-09
0
0
0
0
0
0
0
0
0
0
0
0
0
7.82241e-10
5.11686e-05
3.75914e-05
1.45872e-05
1.01889e-05
2.55632e-05
2.87073e-05
3.90877e-05
0
0
1.87369e-07
0
0
1.90302e-08
3.98534e-06
3.79962e-06
0
0
0
0
0
6.4837e-10
0
0
1.77067e-05
3.20959e-06
3.76301e-05
1.37078e-05
0
8.13634e-10
0
9.16742e-10
0
0
0
0
0
0
0
1.06524e-09
0.000195546
0.000171655
0.000149093
0.000228821
0.000212589
0.000214176
4.73803e-05
6.04429e-05
0.000242976
0.000293585
0.000417251
0.000372259
6.34711e-05
8.44892e-05
0.000268449
0.000273697
0.000257388
0.000261975
0.000249681
0.000243378
0.000236226
0.000126471
0.000433676
0.000453279
0.000385126
0.000394551
0.000367077
0.000351497
0.000261751
0.000281093
7.74832e-05
6.81575e-05
0.000118221
0.000172108
0.000146162
0.000127886
0.000285584
0.000310418
0.000316904
0.000337273
0.000441536
0.000463892
0.000397116
0.000373722
0.000509332
0.000474963
0.000570521
0.000469861
0.00050113
0.000552213
0.00051148
0.000550648
0.000539774
0.000436954
0.000439438
0.000437346
0.000424219
0.000458324
8.05437e-05
4.97179e-06
4.89036e-05
3.30272e-05
0.000116134
1.34895e-05
5.94835e-05
0.000153876
0.000120821
8.77726e-05
8.06555e-05
2.9485e-05
0.00011021
0.00017544
0.00012789
0.000140566
0.000194433
0.000131716
0.000154488
0.000107166
6.14929e-05
1.52394e-05
3.23901e-05
0.000151102
6.49248e-05
0.00018901
0.00011955
0.000188067
5.86644e-05
5.07412e-05
0.000136376
0.000121073
0.000205793
3.47693e-05
7.44628e-05
0.000132803
0.000198377
0
0
0
0
0
0
0
0
0
0
0
0
0
0
0
0
2.83076e-09
0
0
0
0
0
5.27783e-05
1.97028e-05
9.97941e-05
3.63687e-05
2.62227e-05
5.42438e-05
8.13986e-05
7.75672e-05
8.71434e-05
0.000121608
9.12158e-05
0.000127687
8.27268e-05
0.00011881
0.000120612
0.000148957
0.000207301
0.000142544
0.000104047
0.000168172
0.000153515
0.000113935
0.000194198
0.000153128
0.000177785
0.000226335
0.0002256
0.000257329
0.000257512
0.000147916
0.00021845
0.000206757
0.0001397
0.000217788
0.000229055
0.000223562
0.000230996
0.000241994
0.000222146
0.000232158
0.000156834
0.000197329
0.000108141
0.000156256
0.000139523
0.000112949
0.000125956
0.000205846
0.000194544
0.000131336
0.00013799
0.000107553
0.000111062
0.000104654
9.57629e-05
0.0001595
8.46423e-05
0
0
2.29682e-06
3.9235e-11
0
0
0
0
0
0
0
1.40366e-09
0
4.23057e-09
5.66598e-09
5.30474e-09
4.71688e-09
0
6.47837e-09
7.48233e-07
0
0
0
1.05102e-09
0
9.07515e-10
8.7693e-11
0
0
0
0
0
0
0
0
3.38705e-09
0
0
0
0
0
0
5.37659e-07
0
0
0
0
0
0
0
0
0
0
0
0
0
0
0
0
0
0
0
0
0
0
0
0
0
0
0
0
0
0
0
0
0
0
0
0
0
0
0
0
0
0
0
0
0
0
0
0
0
0
0
0
0
0
0
0
0
0
0
0
0
0
0
0
0
0
0
0
0
2.35184e-11
0
0
0
0
7.70865e-05
0.000117611
9.95075e-05
0.00012111
0.000141449
0.000104691
0.000295997
0.00034362
0.000240031
0.000225082
0.000112136
5.27542e-05
0.000363107
0.000558692
0.000369322
8.11583e-05
6.00574e-05
9.04698e-05
0.000119202
7.99595e-07
0.000120462
8.16644e-05
6.14444e-05
6.60264e-05
3.50428e-05
5.59727e-05
3.38915e-05
2.55972e-05
5.30729e-05
0
0
0
0
6.27921e-05
0.000127131
1.44916e-05
0
0
2.81848e-05
0
0
0
0
0
0
0
2.76341e-09
1.72449e-09
0
1.58554e-09
0
0
0
0.000112342
5.5571e-05
6.36254e-05
4.68224e-05
5.30753e-05
0.000119945
4.59799e-05
3.43751e-05
4.98034e-05
0.000119337
3.72733e-05
1.53755e-05
4.18544e-05
4.76065e-05
4.16054e-05
6.52423e-05
0
8.28187e-10
0
0
0
0
0
2.26909e-11
0
0
8.82374e-11
0
0
0
1.74794e-10
0
0
0
0
0
0
0
0
0
0
0
0
0
0
0
0
0
0
0
0
0
1.21626e-09
0
2.55788e-09
0
0
0
0
0
0
0
0
0
0
0
0
0
0
0
0
0
0
2.30536e-05
2.72159e-05
2.55205e-05
5.5166e-06
1.92492e-05
0
0
0
0
0
0
0
0
0
0
0
0
0
0
0
0
4.59921e-07
5.79498e-05
0
0
0
0
0
0
0
0
0
0
1.27598e-09
2.5181e-09
0
0
0
0
0
0
0.000159325
0.000131991
0.000271496
0.000303676
0.000233016
0.000617302
0.00069471
0.000640441
0.000420568
0.000232743
0.000280967
8.4124e-05
0.000130073
0.000357378
0.000279802
0.000285959
0.000279636
0.000247405
0.000264042
0.000493052
0.000327344
0.000460846
0.000411433
0.000420117
0.000426204
0.000380597
0.000399478
0.000248645
0.000286391
0.000202219
9.20037e-05
0.000166822
0.000131874
0.000166358
0.000229104
0.000367375
0.000352275
0.000419108
0.00037491
0.000426409
0.000425571
0.000387493
0.000339931
0.00043185
0.000434394
0.000508468
0.000441756
0.000426546
0.000619139
0.000486443
0.000485759
0.000562718
0.00039722
0.000394023
0.000482786
0.000439942
0.000475961
3.48353e-05
7.57017e-05
6.70481e-05
7.24502e-05
7.43799e-05
9.67022e-05
0.000206963
0.000164329
9.69158e-05
3.69764e-05
0.000142044
6.913e-05
0
2.36511e-05
3.90773e-05
0.000186079
0.000186261
0.000161527
0.000207475
0.000133111
9.26584e-05
0.000156679
0.000141389
9.73281e-05
6.08829e-05
0.000115659
8.80786e-05
0.000100432
0.000142059
3.77747e-05
0.000101141
0.000125857
7.34974e-05
0.000224791
0.00014652
0.000200321
0.000136112
0.000108961
0.000118369
0.000204679
0.000277517
0
0
0
0
0
2.45543e-09
1.08818e-09
0
0
0
0
3.63737e-09
1.16906e-09
0
0
0
0
0
0
0
0
6.75509e-06
2.10558e-05
1.61524e-05
2.24101e-05
2.70882e-05
5.16102e-05
2.3881e-05
7.24473e-05
2.58175e-05
0.000100969
6.70934e-05
1.67217e-05
8.71898e-05
0.000126168
9.90349e-05
0.000113563
0.000142717
0.000134286
0.000156533
0.000120244
0.000152268
0.000162599
0.000205184
0.000288094
0.000258965
0.000278562
0.000298599
0.00023487
0.000249161
0.000217023
0.000193348
0.000255304
0.000196797
0.000270416
0.000234312
0.000271688
0.000333037
0.000239945
0.000297624
0.000166175
0.00021876
9.98342e-05
0.000158591
0.000153844
0.000131141
0.00015194
0.000201518
0.000163886
0.00016429
0.000115729
0.000165057
0.000107173
0.000187869
0.000208073
0.000185843
0.000262064
0.000279245
0
0
0
0
0
0
0
0
0
8.70263e-09
0
0
0
1.29046e-08
8.32714e-09
8.29165e-09
5.39263e-09
5.4763e-09
7.20909e-09
0
0
0
0
0
0
0
0
0
0
0
0
0
0
0
0
1.8421e-09
0
0
0
7.50261e-07
0
0
0
0
0
0
0
0
0
0
0
0
0
0
0
0
0
0
3.39138e-07
0
0
0
0
0
7.5323e-10
6.94056e-10
1.43365e-09
0
0
0
0
0
0
0
0
0
0
0
0
0
0
0
0
0
0
0
0
0
0
0
0
0
0
0
0
0
0
0
0
0
0
0
0
0
0
0
0
0
2.80294e-09
0
6.99626e-10
0
2.66934e-09
0
0
0
0.000174991
0.000269019
7.94772e-05
0.000139427
0.000106328
0.000231884
0.000261036
0.000381193
0.000625828
0.000253771
0.000166329
0.000284636
0.000483106
4.55804e-05
0.000415659
6.10539e-05
0.000164823
0.000548544
0.000253877
9.8294e-05
8.91334e-05
2.87095e-05
3.19311e-05
6.76002e-05
3.34304e-05
5.78759e-05
4.77162e-05
5.27076e-05
4.67962e-05
6.88919e-05
1.61395e-05
3.42527e-05
4.33177e-05
0
0
7.22439e-05
5.80777e-05
1.97615e-05
0
0
6.50718e-07
0
0
0
0
0
0
0
0
0
0
0
0
0
0
0
0
5.71842e-05
4.00669e-05
4.57665e-05
9.38173e-05
5.44803e-05
7.99071e-05
2.433e-05
5.20321e-05
5.82848e-05
5.32056e-05
3.57423e-05
5.8516e-05
3.97788e-05
0
0
0
0
0
0
2.82796e-09
1.29585e-09
0
0
0
0
0
0
0
0
0
6.52229e-09
0
0
0
0
0
0
0
3.42687e-10
0
0
3.3305e-09
0
0
0
0
0
0
0
0
0
0
0
0
0
0
0
0
0
0
0
0
0
0
2.1537e-09
0
0
0
0
0
0
0
0
0
0
0
1.14739e-05
4.90938e-05
3.26572e-05
0
6.14672e-07
0
0
0
0
0
0
0
0
0
0
0
0
0
0
0
0
0
0
0
0
0
0
0
0
1.86039e-05
0
0
0
0
1.22812e-09
0
0
0
0
0
0
0
0
0.000862217
0.000455935
0.000750258
0.000281509
0.000573437
0.000182734
0.00046139
0.000183878
0.000281274
0.000132638
0.000158394
0.000199285
4.14112e-05
0.000107682
0.000353014
0.00034744
0.000328719
0.000303566
0.000318124
0.000230971
0.000186333
0.000287819
0.000446297
0.000404946
0.000481413
0.000413215
0.000392034
0.000419572
0.000325831
0.000336174
0.000237834
0.000189665
0.000198578
0.000215283
0.00026476
0.000257302
0.000368495
0.000407097
0.000374838
0.000432198
0.000342262
0.000285595
0.000288833
0.000309025
0.000288204
0.000370251
0.000316955
0.000369065
0.000415441
0.000404312
0.000482653
0.000390378
0.000309072
0.000418748
0.000395538
0.000422191
0.00045435
0.000479353
1.10837e-05
7.93609e-05
7.88892e-05
8.74663e-05
0.000132694
0.000192646
0.000250586
0.000245989
7.90935e-05
8.40443e-05
6.88731e-05
0.000105781
4.91964e-05
0.000123497
0.000261616
0.000270072
0.00019907
0.000120177
0.000221039
0.000149558
0.000181339
0.000177538
0.000103865
9.07904e-05
0.000146886
7.9938e-05
0.000145735
0.00014608
0.000176323
0.000246713
0.000105719
0.000228907
0.00022272
0.000189603
0.000197213
0.000110408
0.000214381
0.000175387
0.000182636
0
0
0
0
0
0
0
0
0
3.9772e-09
0
0
0
0
0
2.57946e-11
2.32638e-11
0
0
0
0
5.9786e-06
3.43666e-05
4.80444e-05
2.81636e-06
1.76617e-05
4.2547e-05
2.81306e-05
3.00564e-05
0.000103992
5.62375e-05
5.79158e-05
8.50515e-05
8.20261e-05
0.000100719
0.000136402
0.00015229
0.000144335
0.000231441
0.000210446
0.000189931
0.000267419
0.000268372
0.000292391
0.000282686
0.000300103
0.000300944
0.000313387
0.00027833
0.000299975
0.000222482
0.000352981
0.000299679
0.000375917
0.000279118
0.000385015
0.000308018
0.000251139
0.000221698
0.000194018
0.000152913
0.000131993
0.000143233
0.000147052
0.000200693
0.000162192
0.000187474
0.000174569
0.000200638
0.000128342
0.000248202
0.000134828
0.00023821
0.000297725
0.000340433
0.000362823
0.000366285
0.000290851
0
0
0
0
0
0
0
0
0
4.94455e-11
0
0
0
0
0
0
0
2.00355e-08
0
0
6.41616e-07
2.41889e-08
0
0
2.32087e-09
0
0
0
0
0
6.34931e-09
0
0
0
0
0
0
0
0
0
0
0
0
0
0
0
9.53286e-10
1.60864e-09
1.64024e-09
0
0
0
0
1.00425e-09
0
0
1.17734e-09
0
0
0
0
2.6926e-09
0
5.92955e-10
0
0
0
0
0
0
0
0
0
0
0
0
0
0
0
0
0
0
0
0
0
0
0
0
0
0
0
0
0
0
0
0
0
0
0
0
0
0
0
0
0
0
0
0
0
0
0
0
0
0
0
0
0
7.7095e-10
0
0
0
3.21651e-09
0
0
0.00018566
0.0003148
0.000145173
5.96918e-05
0.000100174
6.12626e-05
0.000228805
0.000172055
8.78257e-05
0.000621545
0.000127621
7.95631e-05
0.000672388
9.9441e-05
6.9212e-05
0.000300773
0.0001657
0.000211566
0.000340698
0.000383089
0.000106479
0.000189418
0.000462536
0.000145019
3.07535e-05
5.31073e-05
3.03756e-05
6.64154e-05
1.64497e-05
2.66529e-05
2.62851e-05
8.38605e-05
1.91897e-05