/*--------------------------------*- C++ -*----------------------------------*\
  =========                 |
  \\      /  F ield         | OpenFOAM: The Open Source CFD Toolbox
   \\    /   O peration     | Website:  https://openfoam.org
    \\  /    A nd           | Version:  8
     \\/     M anipulation  |
\*---------------------------------------------------------------------------*/
FoamFile
{
    version     2.0;
    format      ascii;
    class       volScalarField;
    location    "21120";
    object      nut;
}
// * * * * * * * * * * * * * * * * * * * * * * * * * * * * * * * * * * * * * //

dimensions      [0 2 -1 0 0 0 0];

internalField   nonuniform List<scalar> 
526318
(
0.00049057
0.00036066
0.000284695
0.000571233
0.000271253
0.000674689
0.000280301
0.000525359
7.48917e-05
0.000495599
0.000334402
0.000576247
0.000295417
0.000470137
0.000396575
0.000467711
0.000393337
0.000510964
0.000421908
0.000375607
0.000965216
1.32926e-05
0.000156046
0.000213469
0.000437268
5.18211e-05
0.0005318
0.000405
0.000167236
0.000392789
0.000460142
0.000388718
8.04734e-05
0.000253192
0.000232221
0.000570544
0.000590188
0.000407444
0.000799476
0.000426786
0.000633073
0.000499959
0.000356695
0.000350108
0.000218287
0.000353806
0.000132485
0.000413239
0.000403612
0.000465682
0.000355358
0.000358321
0.000601175
0.000429628
0.000106759
0.000236344
0.000233028
7.73023e-05
0.000245217
0.000343947
0.000601901
0.000378761
0.000325359
0.000236945
0.000498362
0.000475801
0.000224088
0.00044722
0.000272594
6.08412e-05
9.14345e-05
0.000383041
9.71412e-05
0.000255903
0.000183954
0.000462544
0.000329177
0.000658551
0.00039335
0.000362163
0.000281375
5.84507e-05
0.000194364
0.000351389
0.000416174
0.000211639
0.000492201
0.000187368
0.000388224
5.53993e-05
0.000375506
0.000182478
0.000144286
0.000334872
0.0003311
1.76333e-05
0.000441365
0.000289795
0.000298194
0.000185704
0.000192592
0.000168826
0.000200684
0.000100887
0.000115156
0.000130696
0.000216522
0.000230565
0.000307476
0.000270603
0.000131732
0.000371753
0.000460533
0.000548189
0.000372159
0.000448591
0.000153722
0.000359296
0.000339161
0.00017592
0.000253818
8.47688e-05
0.000264502
0.000236191
0.000131554
0.000156244
0.000243225
0.000111388
7.82541e-05
2.53916e-05
6.59933e-05
5.76127e-05
8.13102e-05
6.1227e-05
3.99276e-05
9.09574e-05
6.15527e-05
6.71038e-05
6.74846e-05
0.000116335
9.99349e-05
0.000108042
0.000101275
0.000147018
0.000108889
0.000137629
0.00011529
0.000106093
0.000158788
4.77994e-05
0.000143956
1.84435e-05
0.000270223
0.000218324
0.000127044
0.000300958
0.000290049
5.02624e-05
0.00025572
0.000145118
0.000222112
0.000229374
0.000496005
0.000508423
0.000165626
0.000525118
0.00026583
0.000253209
0.00039384
0.000177487
0.000335243
0.000305693
8.67955e-05
0.000266449
0.000436992
0.000455671
0.000136926
0.000144206
0.000360533
0.000331478
0.00013514
0.000354293
0.000159022
0.000128516
0.000249426
0.000126123
5.48071e-05
4.34075e-05
0.000115015
5.5744e-05
5.04002e-05
8.44568e-05
6.10186e-05
0.000135257
9.20198e-05
7.67151e-05
0.000143072
0.000102869
0.00011912
0.000183181
0.000116839
0.000145279
6.64114e-05
6.45872e-05
5.15271e-05
0.000294412
0.000146802
0.000171469
0.000169681
0.000168859
0.000673781
0.000442916
0.000379335
0.000217061
0.000638894
0.000319802
0.000208411
0.000590836
0.00061966
0.000439368
4.9636e-05
0.000113081
0.000287076
0.000498531
0.000160217
0.00049546
0.000414444
0.000304044
0.000158634
0.000129148
9.39764e-05
4.19517e-05
0.00025838
0.000170446
0.000241816
0.000356991
0.000223169
0.000120434
0.000183625
0.000365635
0.00022375
0.000271076
0.000321594
0.00037826
0.000279615
0.000355531
0.000594838
0.000220285
0.00016882
0.000187519
0.000367379
0.000306964
0.000416464
0.000408121
7.33872e-05
0.000239522
0.000266418
0.00018442
0.000203418
0.000266531
0.000216417
5.4871e-05
0.000110746
0.000231827
0.00014258
0.000132975
0.000378318
0.000282738
0.000168192
0.000222454
0.000273502
0.000192338
0.00039852
0.000348707
0.000572549
0.00020422
0.000400942
0.000204313
0.000360062
0.000411268
0.000281028
0.000199769
0.000169256
0.000176972
0.000137997
0.000107388
9.95206e-05
9.23905e-05
0.000104244
9.3074e-05
0.000115527
0.000102716
0.00012178
5.55594e-05
0.000118707
0.000109893
6.88676e-05
0.000162791
0.000158402
0.000162248
0.00010299
5.01828e-05
6.40283e-05
6.49802e-05
0.000145159
6.50238e-05
9.80463e-05
0.000129708
7.45722e-05
0.000200629
0.00019651
4.8661e-05
5.79725e-05
0.000178239
3.00654e-05
0.000101028
0.000118111
0.000163939
0.000130151
0.000167707
0.000297937
0.000204679
0.000389346
0.000372864
0.000381348
0.00029226
0.00019753
0.000566723
0.000198995
0.00042321
0.000377391
0.000155818
0.00014492
0.000375363
8.52844e-05
0.000379751
7.85823e-05
0.000263613
0.00032177
4.85758e-05
0.000195879
0.000121069
0.000153132
0.000150495
5.66157e-05
0.000127205
0.000105173
6.16826e-05
7.82776e-05
0.000102367
5.8547e-05
0.000109676
1.81819e-05
7.15073e-05
3.20849e-05
9.16498e-05
2.85584e-05
0.000106473
6.77639e-05
0.000181615
7.00806e-05
6.33529e-05
0.000106736
9.45311e-05
0.000118337
0.000121819
0.000174478
0.000148882
0.000194979
0.000195074
0.000200371
0.000198619
0.000186872
0.000216721
0.000231202
0.000215681
0.000224766
0.000106689
0.000159768
0.000156398
0.000731286
0.000519705
0.000312867
0.000506591
0.00075475
0.000713248
0.000464047
0.000391006
0.000227961
8.3631e-05
0.000322583
0.000165688
0.000243135
0.000291686
0.000232578
0.000472472
0.000206336
0.000458715
0.000443591
0.000113212
0.000220018
0.0002173
0.000198604
0.00020171
0.000136693
7.34516e-05
5.21584e-05
2.59309e-05
2.8434e-05
4.86726e-06
0.000250044
0.000404857
0.000167366
0.000215874
7.49418e-05
0.000304852
0.000180522
0.000119039
0.000329876
0.000332509
0.000159745
0.000387057
0.000409197
0.000338603
0.000220087
0.000349371
0.000261779
0.000422444
0.000103455
0.000257341
0.00020701
0.000284245
0.000201938
0.000242135
0.000225715
0.000238874
0.000166949
0
4.12819e-10
6.27088e-11
0
0
0
0
9.90493e-11
3.72009e-10
2.49035e-10
7.36988e-05
0
0
0
2.28199e-05
0
7.41554e-05
3.05257e-05
9.32206e-05
6.66066e-05
0.000223627
0.000218394
0.000341895
0.000205207
0.000183948
0.000294167
0.000277077
0.000304901
0.000281467
0.000223025
0.000111157
0.000366481
0.000305995
0.000300902
0.000118913
0.000160431
0.000254524
0.000362251
0.000162594
0.000158375
0.000112688
0.000178178
0.000153485
6.8417e-05
9.78178e-05
0.000120821
0.000135322
0.000114952
0.000137938
8.71852e-05
0.00011621
9.43714e-05
9.5955e-05
4.76894e-05
0.000158468
0.000117027
0.000117408
0.000104149
9.44783e-05
7.41271e-05
1.36521e-05
0.000119994
0.00012655
0.000164932
3.45485e-05
0.000154154
0.000112676
8.18415e-05
0.000127199
0.000245383
0.000250332
0.000229786
0.00027154
0.000242728
0.000255985
0.000297757
0.00029173
0.000197926
0.000198052
0.000245663
0.000223324
0.000138029
0.000162568
0.000337777
0.000201347
0.000450348
0.000486762
0.000396228
0.00037646
0.000361805
0.000307996
0.000212941
0.000317639
0.000186683
0.000470144
0.000413692
0.000133128
0.000390627
9.64125e-05
7.61319e-05
0.000377923
0.000222485
0.000251759
1.70481e-05
0.000116823
0.000143089
0.000196987
0.000200684
0.000171313
0.000131588
0.000159434
1.92572e-05
0.0001358
3.73155e-05
9.94357e-05
2.14695e-05
7.05903e-05
3.80479e-05
6.6723e-05
2.26723e-05
1.97605e-05
0.000151062
1.43628e-05
4.76733e-05
0.000141582
3.52955e-05
0.000153474
0.000202952
0.000154238
0.000187199
0.000108097
0.000198993
0.000187574
0.000205369
0.000193528
0.000200357
0.000182979
0.000236863
0.000214322
0.000262335
0.000269746
0.000321399
0.000283524
0.000291236
0.000508361
0.000168898
0.000519662
0.000339918
0.000549357
0.000264012
0.000392812
0.000315529
0.00034754
0.000373027
0.000361407
0.000140769
0.000177108
7.94014e-05
0.000185134
0.000183041
0.00023172
0.000281321
0.000217174
0.000266356
0.000282764
0.000121002
0.000104709
7.24354e-05
9.87792e-05
0.000160404
0.000161022
1.01815e-05
0
7.34006e-06
1.52763e-05
0.000201275
0
0.000262564
0.000243541
0.000125525
4.11159e-05
0
0
0
0
0
0
0
0
0
0
1.51412e-09
0
2.14462e-10
0
5.31342e-10
1.63335e-09
0
0
0
0
0
0
0
0
0
0
0
0
0
0
0.000324181
5.9385e-05
0.000173426
0.000177647
0.000396029
0.000110331
0.000450824
0.000219008
0.000485528
8.10421e-05
8.87789e-05
0.000248205
0.000218171
0.000290349
0.000286377
0.000227428
0.000244812
0.000189895
0.000193848
0.00020546
0.000138305
0.000211617
0
0
0
0
0
0
0
0
0
0
0
0
0
0
0
0
0
0
0
0
0
0
0
0
2.0933e-05
3.02361e-05
8.7707e-05
3.83659e-05
9.34756e-05
6.79484e-05
0.000222565
0.000182188
0.000246326
0.000231441
0.000190919
0.000249198
0.000251254
0.000165075
0.000202488
0.000297215
0.000603173
0.000183171
0.000152765
0.000399079
0.000354279
0.000406149
0.000281754
0.000464041
7.77526e-10
0
0
0
0
0
0
0
0
0
0
0
0
0
0
0
0
0.000205929
0.000105673
0.000197663
7.60487e-05
4.90106e-05
0.000158822
0.000100124
0.000118934
0.000130957
0.000123809
0.000127757
9.77891e-05
8.99507e-05
0.000104567
0.000111682
0.000105997
0.000150402
8.24731e-05
0.000112607
0.000135483
9.31221e-06
9.46778e-05
7.32469e-05
2.23626e-05
0.000117744
0.000131883
0.00014576
0.000117099
0.000101404
0.000149648
0.000133816
7.52367e-05
0.000303798
0.000285421
0.000334902
0.000317948
0.000313742
0.000258016
0.000316496
0.000320501
0.000352977
0.00031285
0.000278401
0.00024916
0.000264074
0.000278538
0.000173514
0.000212636
0.000213464
0.000266089
0.000183609
0.000140879
0.000257944
0.000256039
0.000505435
0.000200438
0.000131345
0.000215079
0.000237157
0.000362951
0.000412696
0.000237897
0.000363943
0.000133352
0.00034685
9.20994e-05
0.000113378
0.000381164
8.24917e-05
0.000348558
0.000278713
0.000214218
0.000188793
0.000194536
0.000245855
0.00013461
0.000185395
0.000223217
9.32637e-05
0.000185852
6.89388e-05
5.95027e-06
3.15217e-05
0.000105302
0.000105754
2.85999e-05
7.46652e-06
6.27765e-05
3.68878e-05
0.000106514
2.4858e-06
0.000116849
6.62226e-05
0.00014637
0.000174147
5.07171e-05
0.000179319
0.000205263
0.000130181
0.000192902
0.000195405
0.000181277
0.00021759
0.000198789
0.000213928
0.000186615
0.000252315
0.000234617
0.000257396
0.000282752
0.000267481
0.000318178
0.000319693
0.000290048
0.000335319
0.000307456
0.000324867
0.000373861
0.000372533
0.000335541
0.000332602
0.000353743
0.000362177
0.000385203
0.000390761
0.000421997
0.000400146
0.00041391
0.000425457
0.000461408
0.000481366
0.00043574
0.000454382
0.000496422
0.000535758
0.000483995
0.000486271
0.000554834
0.000535927
0.000545632
0.000600276
0.000626406
0.00060439
0.000670137
0.000615797
0.000688495
0.0006464
0.000658894
0.000657712
0.000653214
0.00062605
0.000647344
0.000671875
0.000339196
0.000470193
0.000396509
0.000301288
0.000100756
0.000352893
0.000299593
0.00034727
0.000287339
0.000221591
0.000206412
0.000199416
0.000325015
0.000161515
5.98357e-05
9.61083e-05
7.8346e-05
0.000147454
9.34486e-05
0.000169202
0.000123177
0.000210507
0.000153051
1.52739e-05
0.000124274
7.27471e-05
0.000152103
0.000116567
0.000183806
0
0
0
0
0
0
7.22476e-05
0.000259701
0.000189525
0.000127775
0
0
0
0
4.88425e-09
0
0
0
0
0
0
0
0
0
0
0
0
0
0
0
0
7.67435e-11
0
8.26125e-11
0
0
0
0
1.11001e-09
0
1.91502e-09
1.73938e-09
0
1.33302e-09
3.57949e-09
5.11346e-09
0
0
0
0
0
0
0
0
0
0
0
0
0
0
0
0
0
0
0
0
0.000318133
0.000315939
0.000171362
0.000404742
0.000372295
0.000431122
0.00023459
4.50715e-05
0.000164882
0.000226853
0.000271933
0.000287081
0.000329042
0.000194805
0.000164155
0.000173106
0.000121867
0.000195078
0.000265733
0.000237498
0.000267369
0.000198762
0
0
9.93932e-10
7.37161e-10
0
0
0
0
1.7654e-09
0
0
0
0
0
0
0
0
0
0
1.43597e-05
5.78259e-05
6.9422e-05
3.74635e-05
3.71735e-05
0.000141401
4.73254e-05
0.000107986
0.000268853
0.000252456
0.00017067
0.00025639
0.000261413
0.000366066
0.000274521
0.000382952
0.000444894
0.000209479
0.000178734
0.000309068
0.000440015
0.000185195
0.000444483
9.1724e-05
0.000136565
0
0
0
0
0
1.60517e-11
0
0
1.01099e-11
0
0
0
0
0
0
0
0
0
0
0
0
0
0
0
5.95837e-07
6.58933e-07
9.76542e-05
0.000192248
5.91142e-05
0.00017293
5.25158e-05
0.00012082
0.000112036
9.46114e-05
0.000106178
0.000113805
0.000102206
0.000104265
0.000107331
7.05543e-05
8.49193e-05
0.000144527
0.000132987
0.000126845
0.000147889
0.00014164
8.32253e-05
3.56761e-06
3.01572e-05
6.31887e-05
0.00012077
0.00010009
0.000146406
0.000112792
0.000144108
0.000154416
9.82069e-05
0.000129385
0.000367234
0.000313725
0.000359098
0.0002911
0.000304457
0.000277741
0.000382277
0.000322129
0.000382076
0.000413569
0.00040413
0.000343246
0.000453572
0.000447851
0.000508375
0.000527818
0.0005898
0.000560632
0.000663709
0.000631031
0.000659189
0.00068707
0.000620188
0.000645335
0.000614401
0.000591604
0.00059869
0.000640883
0.000592233
0.0005744
0.000253785
0.000276604
0.000290806
0.000272323
0.000197948
0.000232055
0.000230656
0.000251203
0.000175024
0.000164471
0.000305608
0.00012057
0.000204948
0.00052026
0.000266685
0.00022524
0.000206189
0.000433247
0.000381715
0.000162524
0.000104939
0.000330646
0.000346353
0.000143745
0.000207095
0.000338636
0.000280029
0.000186412
7.14867e-05
0.00020834
8.2956e-05
0.000215155
0.000244937
0.000122736
0.000204753
0.000195678
6.29921e-05
6.28037e-05
0.000123844
7.44999e-05
8.96907e-05
6.94547e-05
1.99431e-05
0.000129239
7.57504e-05
2.26824e-05
9.31865e-05
4.75174e-05
3.01544e-05
0.000173508
5.03183e-05
0.000163489
0.000141997
6.15079e-05
0.000182869
0.000161399
0.000128617
0.000155135
0.000218606
0.000173527
0.00024007
0.000210688
0.000198261
0.000237798
0.000235151
0.000253196
0.000301629
0.000227833
0.00024765
0.000326007
0.000290977
0.000328146
0.000313982
0.000373057
0.000343084
0.000356782
0.000385605
0.000388107
0.000399608
0.000413236
0.00044618
0.000433118
0.000492266
0.000476694
0.000548061
0.000543812
0.000598873
0.000608779
0.000652055
0.000626261
0.000630969
0.000657184
0.000591291
0.000610042
0.000625264
0.000579754
0.000567484
0.000593895
0.00059436
0.000598092
0.000557117
0.000586723
0.000573475
0.00030959
0.000136562
0.000458351
0.000374528
0.000259912
0.000256218
0.000357336
0.000331138
0.000214848
0.000162642
0.000299046
0.000177661
0.000249428
0.000153796
0.000231664
0.00017198
0.000180127
0.000134732
5.54136e-05
9.1797e-05
0.000111163
8.22862e-05
0.000136827
0.000131185
1.72548e-05
0.000242549
0.000161115
0.000162232
5.59743e-05
0.000203309
0.000357108
0
0
0
0
0
0
7.34257e-06
0
5.59677e-05
0
0
7.55419e-09
0
0
0
0
0
0
0
0
1.41939e-11
0
0
0
0
0
0
0
0
0
0
0
0
0
0
0
0
0
0
0
0
0
0
0
0
0
0
0
0
0
0
0
0
0
0.000318788
0.000281223
0.000288253
0.000680585
0.000364276
0.000160383
0.00037377
0.000227764
0.000357836
0.000196576
0.000226266
0.000208188
0.000315204
0.000290039
0.000184732
0.000148077
0.000128215
0.000175885
0.000153409
0.000349875
0.000208908
0.000210494
5.89247e-10
0
3.45358e-11
0
0
0
0
0
0
0
0
0
0
0
0
0
0
0
0
0.000161528
0.000183094
0.000109459
0.000126719
4.79637e-05
4.80584e-05
0.000249121
0.000105211
0.000306548
0.000269357
0.000168993
0.000172298
0.000265827
4.64816e-05
0.000222788
0.000281358
0.000155578
0.000340296
0.000313276
9.60975e-05
0.000250338
0.000265222
0.000131998
0.000140436
0.000291979
0
0
0
0
0
0
0
0
0
0
0
0
0
0
0
0
0
0
0
0
0
0
4.8088e-07
0
0
0
0
0
0
0
0
0.000102384
0.000136309
0.000106892
6.61251e-05
5.63496e-05
7.77716e-05
0.000102164
8.03226e-05
0.000166079
0.000103784
0.000139735
8.86393e-05
9.87483e-05
8.65005e-05
0.000105114
7.25922e-05
5.91773e-05
9.53528e-05
0.00014381
0.000174383
0.000142921
0.000175543
0.000164472
5.50264e-05
9.41699e-05
5.82247e-05
6.1946e-05
0.000121814
8.59829e-05
0.000108778
0.00014351
0.00016763
0.000156579
0.000152997
0.000142241
0.000470951
0.000637483
0.000553458
0.000590169
0.000645825
0.000605033
0.000606391
0.00060441
0.000604401
0.000670809
0.0005016
0.000725579
0.000549334
0.000692974
0.000603173
0.00055762
0.000593085
0.000613422
0.000628035
0.000562452
0.000629127
0.000647508
0.000601928
0.000631524
0.000585306
0.000671849
0.00048855
0.000640511
0.000712494
0.000573349
0.000563964
0.000556855
0.000557982
0.000536159
0.000559149
0.000398114
0.000333814
0.000359662
0.000319621
0.000304682
0.000308922
0.000387889
0.000361235
0.0003888
0.000439136
0.000360914
0.000424404
0.000525835
0.000503983
0.000583201
0.000591019
0.000646946
0.000662635
0.000672638
0.00068192
0.00063711
0.000636783
0.000579072
0.000580192
0.000566042
0.000568677
0.000570072
0.000562869
0.000252553
0.000280213
0.000251837
0.000243409
0.000234827
0.000262264
0.000289162
0.000231587
0.000212794
0.000191495
0.000198772
0.000618145
0.000627285
0.000631386
0.000655284
0.000651588
0.000699739
0.000674748
0.000702828
0.000677264
0.000682804
0.00069453
0.000747865
0.000723695
0.000733836
0.000742729
0.000676381
0.00074257
0.00078154
0.000405774
0.00023808
0.000274431
0.00030227
0.000173586
0.000234607
0.00039508
0.000166118
0.000106341
0.000313136
0.000127414
0.000315274
0.000210121
0.000295208
0.000241861
0.000212742
0.000213268
0.000167232
0.000100558
0.000264448
0.000119361
0.000251076
0.000154336
0.000228474
0.000135832
0.000106496
0.000130895
0.000166012
7.52092e-05
8.33231e-05
0.000124583
0.000123139
0.000121531
4.2527e-05
4.78686e-05
0.000105676
5.30662e-05
3.93767e-05
0.000150756
2.73671e-05
8.23504e-05
0.000148445
8.76636e-05
9.55827e-05
0.000164987
0.00018669
0.000152353
0.000129508
0.000231836
0.000175802
0.000241953
0.000235694
0.000200304
0.000235245
0.000271031
0.000205444
0.000224164
0.000312307
0.000280319
0.000334353
0.000320385
0.000369424
0.000332776
0.00036552
0.000389437
0.000378718
0.000392746
0.00038955
0.000418551
0.000403885
0.000426682
0.000461547
0.000501077
0.00048092
0.000537832
0.000543102
0.000595945
0.000565809
0.000591819
0.000632066
0.000643796
0.000602324
0.000624019
0.000599036
0.000605158
0.000176468
0.000299765
0.000300864
0.00044455
0.000151939
0.000242048
0.000286827
0.000347862
4.93343e-05
0.000105159
0.000341704
0.000318318
0.000143879
0.000249355
0.000316781
5.61673e-05
0.000197843
3.70378e-05
0.000220858
0.000206696
0.000179398
0.000242606
6.21842e-05
0.000234531
4.53796e-05
7.47851e-05
4.16094e-05
5.06762e-05
0.000268407
0.000256373
0.000171018
0.000517828
0.000307388
0.000223188
0
0
0
0
0
0
0
0
0.00012673
0
0
0
0
0
0
0
0
2.79825e-07
0
0
0
0
0
0
0
0
0
0
0
0
2.41077e-10
0
0
0
0
2.83592e-09
0
0
0
0
0
0
0
0
0
0
0
0
0
0
0
0
0
0
0
2.0865e-09
0
0
0
0
2.2748e-09
0.000656327
0.000743625
0.000642268
0.00085211
0.000734601
0.000742657
0.00016823
0.00062451
0.000114098
0.000288688
0.000106667
0.000209232
0.000259916
0.000215772
0.000294774
0.000328396
0.000464024
0.000127544
0.000355403
0.000165257
0.000176378
0.000137205
0.000182306
0.000310357
0.000248818
0
0
0
0
0
0
0
0
0
0
0
0
0
0.000231015
0.000148378
0.000289994
0
0
4.09641e-07
6.44439e-06
0.000160926
7.30032e-05
0.000105526
9.51565e-05
0.000115075
4.27383e-05
6.49477e-05
0.000218507
0.000310648
0.000410841
0.000242337
0.000522736
0.000209292
0.00010367
0.000238918
0.000287626
0.000548868
0.000345675
0.000239841
0.000386357
0.000416061
0.000277459
0.000831242
0
2.71942e-10
0
0
0
0
0
0
0
0
0
0
0
0
0
0
0
0
0
0
0
0
0
0
0
0
0
0
0
0
0
0
0
0
0
0
0
0.00016575
0.000190112
0.000106339
9.52091e-05
7.8085e-05
6.25284e-05
7.71641e-05
5.8066e-05
6.8364e-05
8.36754e-05
5.82816e-05
8.45502e-05
0.000132814
5.29398e-05
8.08471e-05
9.28248e-05
5.83921e-05
0.000101861
6.25691e-05
0.000173196
9.13084e-05
0.000211625
0.000155377
0.000171578
0.000192123
0.000116892
0.000117743
8.93143e-05
0.000102306
0.000105762
8.18695e-05
9.8643e-05
0.000119431
0.00014762
0.000124795
0.000148608
0.00013262
0.000606285
0.000599667
0.000561641
0.000528746
0.000605482
0.000625567
0.000723715
0.000821858
0.000582152
0.000540875
0.000526442
0.000608239
0.000604786
0.000563575
0.000602055
0.000554879
0.00055629
0.00057066
0.000550387
0.000547725
0.000555641
0.000533611
0.000416122
0.000385316
0.000373654
0.000359452
0.000323814
0.000316999
0.000411767
0.00038149
0.000439151
0.00057047
0.000434115
0.000450483
0.000488472
0.000586266
0.000567298
0.000532168
0.000586016
0.000655652
0.000678098
0.000684229
0.000696057
0.000644966
0.00064626
0.000590676
0.000598467
0.000577694
0.000594841
0.000560683
0.000584539
0.00059952
0.000575062
0.00024246
0.000230587
0.000271894
0.000242859
0.000251001
0.000247159
0.000283924
0.000262743
0.00021818
0.000247094
0.000214919
0.000208483
0.000656803
0.000643168
0.000633835
0.00067537
0.000658411
0.000683837
0.000699512
0.000716256
0.000710705
0.000729435
0.000748305
0.000700034
0.000758106
0.000778529
0.000756471
0.00081826
0.000798418
0.000831604
0.00077779
0.000710897
0.000718034
0.000737503
0.00096378
0.000672478
0.000827021
0.000418865
0.000405687
0.000287121
0.000155189
0.00045747
0.000107375
0.000377607
3.71122e-05
0.000108001
0.000323612
0.000280964
0.000186826
0.000234437
0.000268435
0.000242928
0.000207867
9.44691e-05
0.000194182
0.000195734
0.000238599
0.000151014
0.000248323
0.000151196
0.000128325
0.000136868
6.96477e-05
0.000135539
0.000119017
0.00014316
6.54282e-05
0.000114422
0.000123773
0.000174071
7.41064e-05
2.79536e-05
0.000118969
7.70591e-05
1.70584e-05
3.45065e-05
0.000136281
0.000156336
8.58146e-05
7.30502e-05
2.47592e-05
0.000209344
0.000142558
9.86315e-05
0.00016712
0.000225794
0.000165481
0.000203323
0.000232862
0.000204459
0.000192884
0.000205187
0.000274011
0.000283738
0.000331957
0.000328728
0.000314909
0.000368919
0.000373355
0.000385938
0.000391642
0.000383852
0.000386823
0.000396243
0.000432946
0.000398323
0.000441274
0.000468548
0.000502338
0.000492275
0.000522178
0.00054498
0.000544214
0.000593862
0.00062806
0.000579287
0.000635305
0.000592159
0.000611853
0.000270186
0.000320615
8.63483e-05
0.000171792
0.000279681
0.000352531
0.00025409
0.000510791
0.000486526
0.00017059
0.000327169
0.000299927
5.82127e-05
0.000297102
0.000139202
0.000260574
0.000310799
4.76453e-06
0.000105697
7.04123e-05
0.000227153
0.00026486
0.000181869
8.59977e-05
0.000184902
1.51353e-05
4.36479e-05
4.44371e-05
0.00025109
0.000206405
0.000110389
0.000318738
0.000236994
0.000433146
0.000188595
0.000147851
0
0
0
0
0
0
3.33219e-07
0
0
1.67979e-05
0
0
0
0
0
1.20048e-07
0
0
0
0
1.21294e-09
0
0
0
0
0
0
0
1.57759e-10
9.32105e-10
0
0
2.32971e-09
1.45507e-09
0
0
0
0
2.77029e-09
0
3.56995e-09
0
0
0
0
0
0
0
0
0
0
0
0
0
0
0
0
0
1.31557e-09
0
0
0
0
0
0
0
0
0.00061594
0.000692216
0.000903347
0.000758783
0.000757998
0.00137159
0.000842983
0.000640994
0.000948892
0.000537051
0.0003459
0.000258524
0.000224062
0.000569438
0.000311929
0.000291518
0.000176556
0.000407004
0.000378615
0.000138486
0.00046459
0.000290327
0.000163903
0.000268051
0.000168847
0.000202483
0.000237897
0
0
0
0
0
0
0
0.000203621
0.000277526
0.000160289
0
0
0
0
0.000139745
8.93967e-05
4.3952e-05
7.66307e-06
6.68757e-05
7.93891e-05
8.69293e-05
0.000145155
6.12569e-05
4.61577e-05
9.19123e-05
0.00025465
0.000129339
0.000169078
0.000195665
0.000279444
0.000156839
0.000277585
0.000250524
0.000422114
0.000530451
0.000371361
0.000141137
0.000167016
0.000467039
0.000474374
0.000126336
0
0
2.57467e-10
0
0
0
0
7.57126e-10
0
0
0
0
0
0
0
0
0
0
0
0
0
0
0
0
0
0
0
0
0
0
0
0
0
0
0
0
0
0
0
0
0
0
0
0
0
0.000173608
0.00015679
0.000195431
0.000156789
0.000102569
9.37637e-05
6.22861e-05
5.60994e-05
5.83466e-05
4.59089e-05
5.98092e-05
2.67937e-05
7.41571e-05
9.6078e-05
0.000128709
1.78775e-05
9.4889e-05
2.38524e-05
7.67312e-05
0.000109956
0.000106318
0.000102143
0.000168051
0.000208823
0.000124352
0.000211588
0.000183915
0.00014911
0.0001129
0.000136858
0.00012654
6.7221e-05
6.79823e-05
6.76033e-05
0.000102405
0.000111051
9.07363e-05
0.000108121
0.000113408
0.000437736
0.000559396
0.000712334
0.000620593
0.000248738
0.000509128
0.000815039
0.00103563
0.000855263
0.000674591
0.00103233
0.000816738
0.000836238
0.000546346
0.00053493
0.00055982
0.000529901
0.000569164
0.000550689
0.00057574
0.000575136
0.000456536
0.000535305
0.000566944
0.000542566
0.000566822
0.000557526
0.00054502
0.000424441
0.000434191
0.000391637
0.000354387
0.000336945
0.000327129
0.000414122
0.000366257
0.000522381
0.00055867
0.000502527
0.000506884
0.000644037
0.000676468
0.000655151
0.000617111
0.00070729
0.00068307
0.000657375
0.00064033
0.000602725
0.000601486
0.000616297
0.000594429
0.000599449
0.000634597
0.000569406
0.000536618
0.000554721
0.000590039
0.000241221
0.000254738
0.000284784
0.000250353
0.000277006
0.00027981
0.000299158
0.000315449
0.000239061
0.000225009
0.00022472
0.000243503
0.00064749
0.000639727
0.000671613
0.00069076
0.000666838
0.00068181
0.000724042
0.000715567
0.000744472
0.000757562
0.000742438
0.000749683
0.000760984
0.00081406
0.000781364
0.000789103
0.000833592
0.000889843
0.000838912
0.000901281
0.000838181
0.000759852
0.000750652
0.000941967
0.000872871
0.000362837
0.000448955
0.0001674
0.000470898
0.000150982
4.92097e-05
9.85132e-05
0.000401602
0.000365868
0.000156253
0.000257691
0.000229213
0.000293491
0.00018398
0.000175929
0.000405857
0.000214757
0.000269116
8.95387e-05
9.922e-05
8.71746e-05
0.000126365
0.000132876
0.000121157
4.95289e-05
5.44257e-05
9.20281e-05
0.000131234
3.62838e-05
0.000140181
0.000149351
0.000148138
8.83719e-05
0.000168427
7.62994e-05
9.23706e-05
6.53847e-05
4.5526e-05
8.62604e-05
0.000126983
2.83605e-05
0.000116318
6.05437e-05
9.14897e-05
0.000130104
0.000201856
0.000131116
8.99522e-05
0.000185707
0.000160468
0.00019105
0.000229093
0.000184413
0.000193953
0.00026606
0.000246477
0.000310466
0.000334171
0.000342402
0.000376591
0.000364766
0.000378669
0.000371716
0.000376176
0.000403005
0.000375429
0.000431227
0.000404087
0.000454717
0.000447541
0.000462386
0.000486903
0.000483006
0.000530276
0.000519378
0.000587835
0.000639721
0.000561697
0.0005928
5.70281e-05
1.82396e-05
4.66439e-05
2.62601e-05
0.000140018
0.000348091
0.000193466
8.77308e-05
0.000461189
0.000365922
0.000263194
0.000336069
0.000113791
0.000232827
9.05453e-05
0.000163127
0.000253505
0.000171666
0.000347324
3.09677e-05
4.39789e-05
0
8.29214e-06
2.11409e-05
1.45492e-05
6.16539e-05
4.49533e-05
3.10305e-05
2.68402e-05
0
0
0
0
0
0
2.26155e-07
0
0
0
0
0
0
5.11892e-07
0
0
0
0
0
0
0
0
0
0
0
0
0
0
0
0
0
0
0
0
0
0
0
0
0
0
0
0
0
0
0
0
0
0
0
0
0
0
0
0
0
0
0
0
0
0
0
0
0
0
0
0
0
0
0
0
0
0
0
0
0
0
0
0
0
0
0
0
0
1.39512e-11
0
0
0
0
0.00101998
0.00098672
0.000994685
0.000740303
0.000267413
0.000696324
0.00063944
0.000699115
0.000779924
0.00103414
0.000872816
0.000972787
0.000665601
0.000745172
0.000369688
0.000702593
0.000169791
0.000454769
0.00024543
0.00040112
0.000429726
0.000186434
0.000140387
0.000278956
0.000291297
0.000281062
0.000229632
0.000231354
0.0002112
0
0
0
0
0.000198913
0.000267331
0.000162604
0
0
0.000121303
0.000106183
0
2.5642e-05
0
0
4.91609e-05
0.000111243
2.59193e-05
1.50413e-05
1.12272e-05
2.82534e-05
4.16991e-05
0.000108274
0.000111261
0.000437484
0.000416332
0.000347572
0.000461999
0.000160678
0.000221454
0.000327481
0.000211006
0.000212526
0.000325777
0.000264479
0.000350424
0.000307732
0.000438125
0.000292582
0.000294526
0
0
0
0
0
0
0
0
0
0
0
3.02127e-06
0
0
0
0.000106774
0.000139005
9.71765e-05
0
0
5.59912e-05
0
0
0
0
0
0
0
0
0
0
0
0
0
0
0
2.05969e-09
0
1.17603e-09
0
0
0
0
0
0
0
0
0
6.06611e-07
0
0.000131767
0
0
0
0
0
0
0.000213256
0.000193024
0.000182736
0.000132485
0.000149995
8.8231e-05
0.000124062
9.01057e-05
8.25046e-05
7.23684e-05
6.72091e-05
4.87825e-05
8.03465e-05
0.000120869
4.35464e-05
0.000110091
8.47873e-05
5.71857e-05
0.000107694
6.98051e-05
5.64851e-05
0.000206114
0.00022169
0.000206942
0.000109444
0.000168964
0.000158583
0.000158726
0.000144198
0.000142508
0.000124943
0.000141318
0.000185797
9.34838e-05
6.45109e-05
8.41016e-05
0.000107031
7.42945e-05
0.000116865
8.99185e-05
0.000119149
0.000564188
0.000348868
0.000408011
0.000610802
0.0014775
0.00144497
0.000828763
0.000833553
0.00114176
0.000809755
0.000608712
0.000486688
0.000767392
0.000536699
0.000544843
0.000541449
0.000548168
0.000555852
0.000539599
0.000998273
0.00063566
0.000575572
0.000539613
0.000538878
0.000569938
0.000561684
0.000543752
0.000418508
0.000425166
0.000389315
0.00034701
0.000343143
0.000361284
0.000349007
0.00038773
0.000589822
0.000595123
0.000529716
0.000522787
0.000687261
0.000698845
0.000673897
0.000663518
0.000641407
0.000644499
0.000588731
0.00058678
0.000616592
0.000598187
0.000655543
0.000621167
0.000622031
0.000576504
0.000536099
0.000575833
0.00061533
0.000569769
0.000244971
0.000262261
0.000288715
0.000298984
0.000288393
0.000287962
0.000305249
0.000324041
0.000251221
0.000230277
0.00025109
0.000250646
0.000194755
0.000212332
0.000244216
0.000644608
0.000644972
0.000679309
0.000650937
0.000681253
0.000720251
0.000688244
0.00069526
0.000764941
0.000729547
0.00079618
0.000800637
0.000822577
0.00078982
0.000815328
0.000828012
0.00087477
0.000886968
0.000913738
0.000926687
0.000918278
0.000990001
0.000764109
0.000786632
0.000980202
0.00094666
0.000240757
0.000276452
1.06181e-05
0.000429757
6.00327e-05
0.000122864
0.000424198
0.000189024
0.000328516
0.000206791
0.00019543
0.000208141
0.000184159
0.000298278
0.000352049
0.000407066
6.35475e-05
0.000237705
0.00012739
0.000360469
0.000214698
0.000126122
0.000105455
0.000158685
0.000137374
7.61105e-05
4.68053e-05
8.4767e-05
0.000127018
8.42578e-05
0.000151896
0.000140838
0.000105142
0.000104653
3.93694e-05
9.98642e-05
0.000111461
1.49787e-05
0.000132337
7.69917e-05
2.82867e-05
0.000118039
4.48233e-05
5.95421e-05
0.000119703
0.000135806
0.000101907
7.16086e-05
0.000151731
0.000167955
0.000246936
0.000211409
0.000209341
0.000186702
0.000301549
0.000274821
0.000312098
0.000348689
0.000356697
0.000363997
0.00035819
0.000359134
0.000368333
0.000358915
0.000366479
0.000396626
0.000405958
0.000403049
0.000407508
0.000441043
0.000423492
0.00046467
0.000463641
0.000509868
0.000562867
0.000510672
0.000595705
0.000559344
1.96706e-05
9.51272e-07
5.09291e-05
1.52835e-05
1.63413e-05
4.53336e-05
4.47355e-06
0.000179627
2.80682e-05
0.000482401
0.000197768
0.000119433
0.000205831
0.000159435
0.000287254
6.22828e-05
0.000323386
0.000262119
0.000202161
0.000284798
7.73397e-05
0
0
0
0
0
1.7395e-05
0
0
0
0
0
0
0
0
5.29302e-07
0
0
0
5.08943e-07
0
0
0
0
0
0
0
0
0
0
0
0
0
0
0
0
0
0
9.54058e-08
0
0
0
0
0
6.18339e-10
9.0872e-10
1.38424e-09
0
0
0
0
0
0
0
0
0
0
0
0
0
0
0
0
0
0
0
0
0
0
0
0
0
0
0
0
0
0
0
0
0
0
0
0
0
0
0
0
0
3.08634e-09
0
6.28858e-10
0
2.1099e-09
0
0
0
0.000853059
0.000912474
0.00101312
0.000926751
0.00101385
0.000926311