/*--------------------------------*- C++ -*----------------------------------*\
  =========                 |
  \\      /  F ield         | OpenFOAM: The Open Source CFD Toolbox
   \\    /   O peration     | Website:  https://openfoam.org
    \\  /    A nd           | Version:  8
     \\/     M anipulation  |
\*---------------------------------------------------------------------------*/
FoamFile
{
    version     2.0;
    format      ascii;
    class       volScalarField;
    location    "15420";
    object      alpha;
}
// * * * * * * * * * * * * * * * * * * * * * * * * * * * * * * * * * * * * * //

dimensions      [0 0 -1 0 0 0 0];

internalField   nonuniform List<scalar> 
526318
(
0.000187644
0.000550082
0.000654557
0.000329567
0.000430473
0.000187357
0.000468535
0.000379363
4.62895e-05
0.000324103
0.000254494
0.000607373
0.000223287
0.000432848
0.000590361
0.000654836
0.000658176
0.000202224
9.9787e-05
0.000305056
0.000669728
0.00104478
0.000441334
0.000151028
0.000402847
0.000597371
0.000296466
0.000578153
0.000191672
0.000252735
0.000293539
0.000194108
0.000420537
0.000465726
0.000971759
0.00103635
0.000761205
0.000211838
0.001064
0.00107281
0.000165407
0.000397133
0.000236778
0.000202415
0.000583496
0.000374553
0.000622717
0.000750713
0.000791515
0.000336336
0.000397089
0.00066434
0.000559498
0.000569996
0.00119564
0.00121491
0.000948872
0.00382494
9.56314e-05
0.000426576
0.000629807
0.000197089
0.000521005
9.18413e-05
0.000311126
0.000545416
0.000498405
0.000273252
0.000446127
0.000336393
0.000442607
0.000850996
0.000175726
0.000471287
0.000485852
0.000397574
0.000363324
0.00059901
0.000586869
0.000848183
0.00053099
0.000227436
0.000464794
0.000263527
0.000629671
0.000928863
0.000760366
0.000438673
0.00071819
0.000619071
0.00032448
0.000798015
0.00106541
0.000921914
0.00102914
0.000828125
0.000366624
0.00126213
0.000927887
0.000465554
0.0338072
0.208632
0.0169684
0.0114279
0.00617542
0
0.000473396
0.00097985
0.000133966
0.00058133
0.00044668
0.000324262
0.000231144
0.000345401
0.000271044
0.00035689
9.09515e-05
0.000155989
0.000344919
0.000595512
0.00112946
0.000808813
0.000592741
0.00108943
0.00107922
0.0015368
0.00114007
0.00159403
0.00161958
0.00161232
0.0014753
0.00164565
0.00189077
0.00168722
0.00145329
0.00167222
0.00166799
0.00162112
0.00164522
0.00202182
0.00188261
0.00187074
0.0017762
0.00189466
0.00196131
0.00201421
0.00213663
0.00224176
0.00197121
0.00233327
0.00236958
0.00152028
0.00234492
0.00205039
0.00238259
0.00204148
0.00204782
0.00178123
0.00159233
0.00248647
0.00144855
0.00162702
0.00170983
0.000670429
0.000312297
0.000315001
0.000712775
0.000340764
0.000736228
0.000692032
9.4893e-05
0.000354362
0.000192793
0.000167098
0.000353456
0.000323315
0.00044523
0.000712921
0.000639173
0.000551573
0.000588747
0.000975861
0.000622576
0.00128173
0.00104221
0.00161851
0.00145679
0.00156769
0.00174468
0.00162396
0.00183952
0.00154818
0.00190073
0.00173977
0.00159235
0.00175348
0.00196514
0.00184064
0.00150768
0.00155457
0.00169861
0.0015205
0.00154885
0.00150194
0.00162248
0.00140309
0.00187933
0.00166215
0.00145364
0.00122713
0.00014742
0.000649383
0.000812372
0.000617198
0.00132065
0.000661702
0.000733227
0.000790754
0.00100948
0.000592909
0.00149575
0.00135683
0.000561792
0.00083439
0.000594814
0.0011869
0.00124612
0.00100356
0.000741644
0.0105854
0
0.00365128
0.000801205
0
0
0
0
0
0
0.000232048
0.00049986
0.000391857
0.000417782
0.00017823
0.000410531
0.000392342
0.000311132
0.000491458
0.000414444
0.000643344
0.000135599
9.80517e-05
0.000828639
0.000378744
0.00077035
0.000922796
0.000189857
0.000597591
0.000744774
0.000872244
0.000686357
0
0
0
0
0.00346423
0.0347128
0.015536
0.00392531
0.000288336
0.00162719
0.00051941
0.000280563
5.29678e-05
0.000641617
0.000256896
0.000368944
0.000325421
0.000107977
0.000404747
0.000179275
0.000842899
0.000944105
0.00118417
0.00113713
0.00187147
0.00185674
0.00156881
0.00201148
0.00185011
0.00177036
0.00192414
0.00195666
0.00185558
0.0021794
0.000455687
0.000804649
0.000887936
0.00131089
0.0012444
0.00125617
0.00173466
0.00274244
0.00100783
0.000316648
0.000762123
0.00185985
0.00180389
0.00230382
0.00222631
0.00245168
0.00246482
0.00304053
0.00321173
0.00334461
0.0032873
0.0010191
0.000786481
0.00125938
0.00122457
0.000414372
9.57741e-05
0.00128358
0.000713912
0.000848991
0.000161773
0.000505563
0.000374393
0.000147355
0.000357453
0.000375941
0.000125874
0.000715339
0.000415289
0.000822274
0.000450842
0.000738729
0.000778868
0.000912482
0.000927579
0.00165962
0.00148769
0.00172714
0.0021069
0.00171913
0.00214784
0.00202552
0.00157578
0.00152741
0.0016907
0.0017442
0.0017433
0.00143636
0.00181512
0.00162879
0.00133194
0.00140288
0.00112055
0.00143634
0.00141576
0.00122646
0.00122873
0.000614572
0.000851191
0.00117684
0.00104506
0.000540148
0.000898224
0.00102133
0.000928839
0.000626903
0.000862696
0.00090326
0.000767464
0.000627099
0.000489515
0.000441124
0.000423643
0.000447057
0.000892542
0.00184831
0.00250631
0.00139174
0.00154569
0.000297101
0.000540541
0.000578988
0.000386809
0.00014775
0.00583961
0.00376162
0.00115906
0.00216068
0.00130872
0.00246292
0.000525516
0.0010734
0.000469359
0.000273754
0
0.0719682
0.0101985
0.144065
0.00561651
0.0244394
0
0
0
0
0
0
0
0
0
0
9.70666e-05
0.000560938
0.000148623
0.000349838
0.000339745
0.000183849
0.000241231
0.000505327
0.000238722
0.000953153
0.000368042
0.000656333
0.000352111
0.000466181
0.000410463
0.00081118
0.000286705
0.000447163
0.000607642
0.000936747
0.000770093
0.000851989
0
0.00120656
0.000336887
0
0
0
0
0.000366209
0.00098615
0.000390552
0
0
0
0
0
0
0
0
0
0
0.0320554
0
0.00308317
0.00184682
0.00142617
0.00241666
0.000652511
0.000369946
0.000426615
0.000131631
0.00044235
0.00039803
0.000115711
0.00054982
0.000129233
0.000423003
6.05983e-05
0.000117612
0.000980535
0.00105901
0.0014184
0.00120601
0.00179739
0.00169696
0.00133891
0.00170506
0.0017167
0.00194479
0.00233952
0.00191566
0.00126698
0.00156655
0.0012671
0.00135358
0.00272083
0.00106982
0.00108669
0.00111644
0.00263709
0.00459162
0.00206095
0.00228012
0.00261653
0.00302625
0.00315933
0.00204997
0.00301567
0.00404828
0.0023687
0.000317355
0.000745439
0.00084988
0.000820138
0.00103253
0.000777835
0.000635093
0.00046269
0.000851337
0.000616286
0.000678488
0.000512449
0.00116114
0.00147795
0.000864406
0.00053357
0.000662743
0.000385851
0.00205063
0.000577855
0.000307343
6.25799e-05
7.42739e-05
0.000609219
0.000224981
0.000589628
0.000427744
0.000290917
0.000238789
0.000597662
0.00146562
0.000773554
0.00192984
0.00147426
0.00117755
0.00151045
0.00272916
0.001604
0.00180166
0.00223836
0.00160105
0.00182045
0.00156672
0.00156343
0.00180027
0.00154189
0.00161727
0.00179093
0.00173815
0.00129375
0.000968187
0.00124458
0.000970186
0.000952665
0.00119278
0.00142341
0.000955837
0.00118104
0.00064819
0.000863011
0.000967717
0.00111752
0.00105114
0.00114615
0.000495658
0.000470741
0.000585519
0.000519988
0.0003766
0.000513343
0.000479682
0.000384347
0.000416845
0.000385168
0.00026712
0.00070245
0.000467019
0.000682614
0.00113616
0.0028874
0.00159235
0.00216073
0.00116144
0.00012697
0.000359663
0.00108156
0.00556175
0.00387139
0.00135429
0.00230778
0.00249971
0.000514623
0.00122042
0.00206927
0.00103046
0.00198997
0
0
0.0675646
0
0.00700573
0.00449228
0
0
0
0
0
0
0
0
0
0
0
0
0
0
0
0
0
0
0
0
0.00683253
0
0
0
0.0024982
0.00729733
0
0
0
0
0
0
0
0
0
0
0
0
0
0
0.000117267
0.000314606
0.000267753
0.000374648
0.000379372
0.000288187
0.000978982
0.000706264
0.000838451
0.000567056
0.000385789
0.000409407
0.000642083
0.000532932
0.000458787
0.000516361
0.00057246
0.000679827
0.000773018
0.000637329
0.000888366
0.000942297
0
0
0
0
0
0
0
0
0
0
0
0
0
0
0
0
0
0
0
0
0
0
0
0
0
0
0
0
0
0
0.00617033
0.26052
0.00440542
0.00150962
0.00029311
0.000980621
0.000395436
0.000284989
0.000197345
0.000300493
0.000303869
0.000459538
0.000273269
9.13468e-05
0.000162338
0.000256341
0.000327945
0.000200422
0.002843
0
0
0
0
0
0
0
0
0
0
0
0
0
0
0
0
0.00105549
0.000999367
0.000999802
0.00120727
0.00144773
0.00149231
0.00180693
0.00159225
0.00207427
0.00255299
0.00336464
0.0024022
0.00175712
0.00179888
0.00303006
0.00210417
0.00182165
0.000939371
0.00140785
0.00199561
0.00381667
0.00449635
0.00414391
0.00290993
0.00278397
0.00300361
0.0038042
0.0034096
0.00402013
0.00329219
0.00508866
0.00359458
0.00021873
0.000490633
0.0002569
0.000281423
0.000332132
0.00079434
0.000396381
0.000230164
0.000275975
0.000226804
0.00106144
0.000760615
0.00101082
0.000491847
0.000607368
0.000924026
0.000955197
0.000866599
0.00272963
0.00118477
0.000854271
0.00210309
0.000685169
0.000707948
0.000492462
0.00056778
8.31977e-05
0.000557356
0.000739203
0.000407393
0.000945135
0.000713009
0.000229314
0.000275459
0.000816858
8.37815e-05
0.00157745
0.000756953
0.00295954
0.0038549
0.00172368
0.00254627
0.00195349
0.00386342
0.00197638
0.00155444
0.00168849
0.00141875
0.00149952
0.00173635
0.00170083
0.00157419
0.00155707
0.00158595
0.00123724
0.00120699
0.0010409
0.00111482
0.00122625
0.00116931
0.000845631
0.00101756
0.00101066
0.00104887
0.00118808
0.00106984
0.000793291
0.00107347
0.00055443
0.000654589
0.000221042
0.000459445
0.00041651
0.000457712
0.000343605
0.000413888
0.000176196
0.000231838
0.000147124
0.00019866
0.000184544
0.000101106
0.000175266
8.20792e-05
0.000225823
0.000134799
0.000219811
0.000293032
4.05906e-05
0.00019253
4.46043e-05
7.05653e-05
0.000139743
0.000152868
0.000100458
0.000164367
9.4883e-05
0.000163442
0.000170581
0.000132646
9.36154e-05
0.000166558
0.00013306
0.000121237
9.96794e-05
0.00018507
0.000101506
0.000123365
0.000119684
0.000193514
8.1448e-05
0.000119578
0.000105966
0.000127719
0.000134982
7.71994e-05
0.000122934
0.000109614
0.000167962
9.87618e-05
7.39406e-05
0.000886117
0.000287601
0.000418242
0.00056881
0.00123329
0.00175262
0.00067815
0.0016212
0.00312988
0.00198401
0.0022823
0.0028996
0.00096223
0.0116085
0.00581999
0.0139051
0.00111248
0.00376265
0.0043633
0.00563065
0.00678833
0.00666188
0.00441743
0
0
0.122354
0
0.181312
1.33129
0
0
0
0
0
0.00567153
0
0
0
0
0
0
0
0
0.0102417
0
0
0
0
0
0
0
0
0
0
0
0
0
0
0
0
0.00780346
0
0
0
0
0
0
0.00470668
0
0.00309815
0
0
0
0
0
0
0
0
0
0
0
0
0
0
0
0
0
0
0
0
0
0
0
0
0
0.000484512
0.000193906
0.000219834
0.000437378
0.000349671
0.000567655
0.000704311
0.000588756
0.000566908
0.000851471
0.000496626
0.000545553
0.000472536
0.000400835
0.000676463
0.00100544
0.000661454
0.000624003
0.000686215
0.000657086
0.000594582
0.000642995
0
0
0.00269865
0.0028194
0
0
0
0
0.00283576
0
0
0
0
0
0
0
0
0
0
0
0
0
0.00819659
0.00697675
0
0
0.0197677
0.0079711
0.00107702
0.00117128
0.00041624
0.000470033
0.000278796
0.000204424
0.000155885
0.000328479
0.000139366
0.000157896
0.000267947
0.000358602
0.000191444
0.000244812
0.000152263
0.000370786
0.00247462
0
0
0
0
9.15597e-05
0
0
3.57379e-05
0
0
0
0
0
0
0
0
0
0
0
0
0
0
0
0.528771
3.26591
0.000798484
0.00102174
0.00115153
0.000983748
0.0019474
0.00184793
0.00225242
0.00303739
0.00235254
0.00170743
0.00342392
0.00104875
0.00416985
0.00317617
0.00491967
0.00163281
0.00154809
0.00291136
0.00223911
0.00132759
0.00597938
0.00262623
0.0018346
0.00605215
0.00414917
0.003314
0.00405373
0.00469484
0.00847543
0.00640534
0.00718752
0.0045013
0.000269785
0.000321621
0.000306527
0.000588869
0.000324313
0.000739295
0.000316626
0.000496642
0.00028769
0.000163286
0.000235111
0.000390929
0.000247373
0.00023491
0.000217287
0.000193566
0.000181375
0.000236474
0.000228141
0.000219705
0.000247173
0.000199666
0.000176836
0.000227123
7.93652e-05
0.000117163
9.33507e-05
2.57011e-05
0.000210541
0.000176646
0.000720277
0.00135709
0.000797842
0.000426177
0.000990511
0.000918016
0.00116427
0.00100659
0.000924494
0.00155244
0.00593967
0.00186144
0.00329872
0.000283906
0.000949799
0.00043737
7.63249e-05
0.000493956
0.00105539
0.00109617
0.00209776
0.000837825
0.00145505
0.00136409
0.00227356
0.000401133
0.00619434
0.00431985
0.00398064
0.00303449
0.00236357
0.00311834
0.00238347
0.00273655
0.00199267
0.00216943
0.00196923
0.00175691
0.00163684
0.00147793
0.00130018
0.00172805
0.00151541
0.00125456
0.00126456
0.0013864
0.00146596
0.00171557
0.00155959
0.00118875
0.000797054
0.000908634
0.000892956
0.000987171
0.000640015
0.000614175
0.000729143
0.000701196
0.000480139
0.000550701
0.000425265
0.000437771
0.000459322
0.000405053
0.0002585
0.000341531
0.000259931
0.000188945
6.77034e-05
0.000192326
4.07926e-06
0.0001812
3.51244e-05
0.000126179
0.000149954
5.70476e-05
5.72229e-05
5.9412e-05
9.01308e-05
4.10862e-05
7.64787e-05
5.70292e-05
6.91761e-05
6.10639e-05
5.0701e-05
5.01056e-05
9.75854e-05
0.000110556
0.000164155
7.41921e-05
0.000113431
7.1615e-05
6.90885e-05
0.000148462
0.00015357
8.76746e-05
9.13879e-05
0.000121011
0.000109848
0.000114476
0.000127409
0.000145262
0.000104648
0.00183189
0.00675975
0.0014113
0.00194821
0.00206135
0.00292335
0.00311044
0.00340266
0.00517308
0.00909119
0.00472795
0.00527268
0.00497083
0.000996995
0.0065596
0
0.0504191
0.00964574
0.0305825
0.00720768
0.00423978
0.00733122
0.00413813
0.00779754
0.00693457
0
0
0
0
0.259427
0.281793
0
0
0
0.00669668
0
0
0
0
0
0
0
0.0148373
0
0
0
0
0
0
0
0
9.45747e-05
0
0
0
0
0
0
0
0
0
0
0
0
0
0
0.000911154
0
0
0
0
0
0
0
0
0
0
0
0
0
0
0
0
0
0
0.000181851
0.000524287
0.000399671
0.00032512
0.00014382
0.000534251
0.00036931
0.00071285
0.000397801
0.00028813
0.000739232
0.00041656
0.000525122
0.000532381
0.000574424
0.00131955
0.000849953
0.000668493
0.000562112
0.000693995
0.000516043
0.000504802
0.00130719
0
0.00192307
0
0
0
0
0
0
0
0
0
0
0
0
0
0
0
0
0
0
0
0
0
0
0.0891772
0.00276442
0.00100694
0.000470918
0.00138576
0.000419031
0.000202069
0.000429499
0.000367644
0.000219826
0.000367004
0.000162006
0.000175057
0.000301084
0.00059426
0.000301742
5.91597e-05
0.000191737
0.00041128
0
0
0
0
0
0
0
0
0
0
0
0
0
0
0
0
0
0
0
0
0
0
0.488576
0
0
0
0
0
0
0
0
0.00100247
0.00108991
0.00109564
0.00137284
0.00184056
0.00165614
0.0021671
0.00154193
0.000837384
0.0013677
0.00133763
0.00395391
0.00240065
0.0070155
0.00458647
0.0061506
0.00948417
0.00788646
0.00270076
0.00203471
0.000823695
0.00301544
0.00230008
0.00889639
0.0138556
0.0119033
0.00520141
0.0110856
0.00886566
0.0101387
0.0185653
0.0153143
0.0459256
0.0239313
0.0239971
0.000151037
0.000130972
0.000149449
0.000137422
0.00014564
0.000122505
0.000149874
0.000150373
0.000142347
0.000160956
0.000169425
0.000165139
0.000217896
0.000149347
0.00014315
9.86687e-05
9.22124e-05
0.000117226
0.000102854
0.000134058
0.000120985
0.000120064
0.000114
0.000133058
0.000128406
0.000109948
0.000111756
0.000173642
0.000129472
6.39719e-05
0.000105498
9.44364e-05
0.000100633
6.8942e-05
9.5154e-05
0.000331329
0.00049792
0.000309687
0.000615233
0.000712316
0.000361124
0.000387919
0.000518559
0.000401215
0.000278891
0.000528125
0.000305777
0.000292159
0.00027425
0.000263959
0.000245527
0.000256705
0.000270122
0.000283629
0.000298078
0.000233723
0.000320547
0.000259031
0.000288278
0.000192785
0.000180388
0.000209901
0.000253289
0.00042507
0.00117948
0.00130786
0.00187681
0.000825623
0.000483872
0.000657775
0.000739717
0.00125171
0.00142234
0.00273867
0.0001528
0.000133932
0.000126106
0.000141571
0.000110441
0.000131574
0.000108438
9.15233e-05
0.000102357
0.000131247
0.00012717
0.000121554
0.000142155
0.000139713
0.00017135
0.000160271
0.000168094
0.000153592
0.00165498
0.00333289
0.00256263
0.000384158
0.00149914
0.000296648
0.00159178
0.000454637
0.00151507
0.0012454
0.00342558
0.00248985
0.0173013
0.0051809
0
0.10765
0.000594571
0.123145
0.00280083
0.00447762
0.0103701
0.00321096
0.001863
0.00381265
0.00227062
0.00243875
0.00185631
0.00199923
0.00170881
0.00135194
0.00130132
0.00146156
0.00128797
0.000983662
0.000940198
0.0015204
0.00106156
0.00129897
0.00073888
0.00060938
0.0007889
0.00074343
0.00042856
0.000658385
0.000521125
0.000521514
0.000656891
0.000525926
0.000415162
0.000478953
0.000273986
0.000334029
0.000340458
0.000357098
0.000301951
0.000256921
0.000148832
0.000261604
7.29192e-05
0.0001571
8.26581e-05
6.4122e-05
4.26748e-05
9.97472e-05
6.62339e-05
4.56165e-05
2.71973e-05
2.236e-05
5.62176e-05
1.71371e-05
2.47916e-05
5.52858e-05
4.69854e-05
4.33731e-05
1.35553e-05
4.30099e-05
0.000143446
8.60996e-05
7.66125e-05
0.000192033
0.000213872
0.000229798
0.000100122
0.000162021
0.000164574
0.0118629
0.00862011
0.0107827
0.00573132
0.0089567
0.00670593
0.0112225
0.0186286
0.0170063
0.0585469
0.0270096
0.0140226
0.0652978
0.00495986
0.0111568
0
0
0
0.934811
0.0135203
0.0543364
0.0198197
0.012694
0
0
0
0
0
0.0024679
0.00289144
0.191563
0
0
0
0
0
0
0
0
0
0
0
0.00948708
0
0
0
0
0
0
0
0
0.19989
0
0
0
0
0
0
0
0
0
0
0
0
4.16383e-05
0
0
0
0
0.00457426
0
0
0
0
0
0
0
0
0
0
0
0
0
0
0
0
0
0
0
0.00227884
0
0
0
0
0.00254539
0.00016602
0.000150564
0.000173347
0.000208163
0.00016729
0.000168267
0.000576322
0.000210144
0.000419232
0.000256999
0.000622418
0.000406899
0.000641074
0.000631764
0.000248858
0.000400638
0.000566164
0.000338201
0.000445087
0.000558359
0.000573818
0.000983716
0.000550084
0.000631056
0.000302212
0
0
0
0
0
0
0
0
0
0
0
0
0
0.00177329
0.00180235
0.00065015
0
0
0
0
0
0
0
0
0
0
0.114844
0.000816548
0.000313201
0.000338504
0.000296128
0.000486171
0.000304255
0.000495453
0.000515879
0.000189389
0.000744968
0.0004698
0.000706076
0.000509531
0.000175015
0.000391653
0.000239606
0
0.00101741
0
0
0
0
0
0
0
0
0
0
0
0
0
0
0
0
0
0
0
0
0
0
0
0
0
0
0
0
0
0
0
0
0
0
0
0.000593024
0.000309603
0.000595272
0.00106175
0.00132013
0.000932779
0.00126317
0.00325921
0.00381667
0.00336485
0.00735232
0.00056982
0.00110295
0.00879005
0.00898336
0.0122
0.00779438
0.00924145
0.00399116
0.00829029
0.00581519
0.0031167
0.00160765
0.00369425
0.00180786
0.0197158
0.037605
0.0326577
0.0171855
0.0265068
0.0235196
0
0.230947
0
2.8957
0
0
0.000144632
0.000181337
0.000182519
0.000166509
0.000134299
0.000211164
0.000179469
0.000174224
0.000107308
0.000122013
6.22048e-05
0.000119686
0.000160513
0.000132443
0.000181323
0.000139754
0.000170059
0.000156312
0.000103579
0.000128155
0.000100321
0.00010781
0.000440127
0.00065457
0.000549559
0.00037486
0.000531911
0.000664028
0.000546929
0.00054848
0.000442158
0.000313136
0.000334961
0.000609629
0.000349976
0.000259504
0.000289173
0.000392624
0.000251621
0.000269376
0.000244304
0.000208983
0.000335699
0.000263271
0.000338525
0.000304538
0.00025098
0.00032749
0.000241988
0.000219762
0.000135971
0.000326506
0.000316622
0.00178673
0.00109435
0.00108888
0.000509664
0.00163192
0.000982575
0.000683863
0.000751351
0.0014243
0.00118336
0.0022723
0.00239759
0.000143751
0.000171216
0.000103069
9.11438e-05
0.000140714
0.000114009
0.000117058
0.00012121
9.60358e-05
0.000113547
0.00011321
0.000115884
0.000138057
0.000144787
0.000122503
0.000141238
0.000153403
0.000135495
0.000145643
6.08366e-05
0.000120171
8.7349e-05
0.000173216
0.000175853
0.000152334
0.00689318
0.00994188
0.00946597
0.0105685
0.00370502
0.00447408
0.0399933
0.0197503
0.0104951
0.126048
0.00786703
0.0270515
0
0
0
0
0.0803972
0.00679367
0.00695719
0.00508253
0.0114001
0.00495519
0.0027914
0.00360967
0.00227458
0.00261132
0.00171215
0.00306106
0.00186522
0.00211579
0.000856895
0.00154465
0.00128851
0.000552468
0.000911264
0.00111548
0.000535993
0.000885687
0.000244329
0.000739673
0.000444974
0.00062693
0.000339078
0.000441879
0.000479319
0.000530113
0.000454695
0.000514166
0.000453336
0.000441974
0.000295228
0.000239156
0.00031944
0.000252211
0.000215824
0.000256409
0.000164217
0.000148283
0.00010836
0.000164244
4.45297e-05
9.64921e-05
2.12424e-05
5.60074e-05
3.31534e-05
2.00563e-05
5.98936e-05
3.38992e-05
2.56287e-05
5.09959e-05
3.53307e-05
2.40244e-05
7.91856e-05
5.41791e-05
0.000131894
8.44666e-05
0.000149138
0.000240734
0.000246265
0.00015031
0.00027253
0.000278838
0
0
0
0
0.0114171
0.0061491
0.0324729
0.0191031
0.0311084
0.500608
0
7.60692
0
0.375861
0
0
0.165589
0
0
0
11.8221
0
0
0
0
0.000121921
0
0
0.00712531
0.00193294
0
0
0
0
0
0
0
0
0
0
0
0
0.303233
0
0
0
0
0
0
0
0
0.895067
0
0
0
0
0.00354896
0
0
0
0
0
0
0
0.00105197
0.000841791
0
0
0.00189964
0.00213983
0
0
0
0
0.00609468
0
0.00809758
0
0
0
0
0
0
0
0
0
0
0
0
0
0
0
0
0
0.00392767
0
0
0
0
0
0
0
0
0.000190733
0.000268642
0.000185261
0.00021041
0.000182795
0.00017665
0.000145501
0.000166158
0.000154133
0.000169615
0.000622871
0.000640853
0.000759335
0.000466237
0.000459514
0.00107434
6.96779e-05
0.000294932
0.000459692
0.000315621
0.000428613
0.000389972
0.000568722
0.000226235
0.000884583
0.000668787
0.000283751
0
0
0
0
0
0
0
0.00184067
0.000736037
0.00345257
0
0
0
0
0.0364325
0
0
0
0
7.48901e-05
0
0
0
0
0
0.000459137
0.00116394
0.000259939
0.000397139
0.000210529
0.000307953
0.00012631
0.000878827
0.000197766
0.000221506
0.000459783
0.000690274
0.000197443
0.000881821
0.000494161
0.000726791
0
0
0.000960641
0
0
0
0
0.000360914
0
0
0
0
0
0
0
0.00948291
0
0.00425563
0.00719632
0
0
0
0
0
0
0
0
0
0
0
0.0137105
0
0
0
0
0
0
0
0
0
0
0
0
0
0.00359461
0.000437825
0.00112991
0.000180429
0.000753788
0.00150067
0.00128338
0.00113241
0.00115229
0.00162672
0.00385064
0.0080827
0.00750244
0.00982411
0.00354849
0.002321
0.0185128
0.0629838
0
0
0.0118549
0.016359
0.0108089
0.0077769
0.00505004
0.00108832
0.00137783
0.00463772
0
0
0.0644767
0.0517361
0
0
0
0
0
0
0
0.0203702
0.000160931
0.000174643
0.000165251
0.000146819
0.000177897
0.000232355
0.000240075
0.000206883
0.000395028
0.000111348
4.47212e-05
0.000163074
0.000193318
0.000101757
6.48314e-05
8.26844e-05
0.000135022
0.000181787
0.000147017
0.000196098
0.00018565
0.000217138
0.000172882
0.000183946
0.000133536
0.000126198
0.000154835
0.000167492
0.000556454
0.00070714
0.000581023
0.000522095
0.000734355
0.000687147
0.000592749
0.000687771
0.000449595
0.000274654
0.000365009
0.000574381
0.000245337
0.000208904
0.000144673
0.000299921
0.000221219
0.000148912
0.000269877
0.000180602
0.000231247
0.000353008
0.000318973
0.000334278
0.00016798
0.00016481
0.000319246
0.000245076
0.000229695
1.54291e-05
0.000987181
0.00161126
0.000970154
0.000890546
0.00106167
0.00129395
0.000952628
0.000857469
0.00118567
0.00139926
0.00182346
0.00220453
0.000150192
0.000186998
0.000119389
0.000124066
9.35427e-05
0.000110191
8.75559e-05
0.000131013
0.000116766
0.000105011
0.000134094
0.000117909
0.000124556
0.000123456
0.000146986
0.00011299
0.000137468
0.000126623
0.000129817
0.000123093
0.000134451
9.22898e-05
0.000140622
0.000127984
0.000111737
0
0.0291074
0
0.0186755
0
0
0
0
0
0
0
0
0
0
0
0
0.0191677
0
0.0128989
0.00845773
0.0179679
0.00471046
0.00315213
0.000647301
0.00208966
0.00188563
0.000972229
0.000862276
0.00237211
0.000927853
0.000969963
0.00124249
0.00134185
0.00104267
0.000921514
0.000661372
0.000393759
0.000707431
0.000874029
0.000524433
0.000528112
0.000590827
0.000354299
0.000290906
0.0005563
0.000445827
0.00044032
0.000529706
0.000337531
0.000332389
0.00021857
0.000250781
0.00021374
0.000253362
0.000166651
0.000187999
0.000144295
0.000125181
0.00016702
6.93106e-05
0.00010391
4.9136e-05
6.52491e-05
4.86067e-05
4.45043e-05
5.0035e-05
4.68426e-05
5.63016e-05
7.00878e-05
1.94482e-05
3.19804e-05
8.71568e-05
5.79109e-05
9.33625e-05
0.00016101
0.000180941
0.000149119
0.000129854
0.000440322
0
0
0.0441732
0.000184696
0
0
0
0.272953
0
0
0
0.202749
0
0.173559
0.232377
0
0.399295
0
0.261507
0.0137097
0
0
0
0.00752141
0
0.00817898
0.00412535
0
0
0
0
0
0
0
0
0.0912628
0
0
0
0
0
0
0.26653
0
0
0
0
0
0
0
0
0
0
0
0
0
0
0
0
0
0
0
0
0
0
0
0
0
0
0
0
0
0
0
0
0
0
0
0
0
0
0
0
0
0
0
0
0
0
0
0
0
0
0
0
0
0
0
0
0
0
0
0
0
0
0
0
0
0
0
0
0
9.46172e-05
0
0
0
0
0.000162818
0.000133389
0.000120634
0.000174464
0.000160836
0.000145917
0.00022331
0.000184329
0.000191163
0.000157739
0.000191683
0.000164387
0.000168785
0.000243875
0.000186467
0.000430867
0.000585429
0.00083694
0.00074984
0.000511737
0.000123062
0.000667883
0.000365856
0.000513314
0.000307393
0.000503254
0.000207833
0.000681628
0.00050512
0
0
0
0
0.00206341
0.000623356
0.00359298
0
0
0.00708705
0.0358771
0
0
0
0
0
0
0.0123771
0.0077805
0
0.00707841
0
0
0
0.000128768
0.000370645
0.000179153
0.000409169
0.000648569
0.000302798
0.000581123
0.000368971
0.000117476
0.000977201
0.000481699
0.000366382
0.000363454
0.000103645
0.000899999
0.000413439
0
0.00338929
0
0
0
0
0
0.000100394
0
0
0.000308516
0
0
0
0.00088334
0
0
0
0
0
0
0
0
0
0
0
0
0
0
0
0
0
0
0
0
0
0.0286928
0
0.0369157
0
0
0
0
0
0
0
0
0
0
0
0
0
0
0
0
0
0
0.00032209
0.000260162
0.00128879
0.00285496
0.000890923
0.00176829
0.00302804
0.00336391
0.00599955
0.0032094
0.00568356
0.0134944
0.0203076
0
0
0.00240343
0.00275055
0
0
0
0
0.00580975
0.000695447
0.00343643
0.0180933
0.020089
0.00804853
0.0474788
0.00134379
0
0
0
0
0.0269424
0.039292
0
0
0
0
0
0
0.000291825
0.000298076
0.000101906
0.000429359
0.000563184
0.000345108
0.00013186
0.000381254
6.34422e-05
0.000348342
0.000272291
0.000240593
0.000265866
0.000169097
0.000131445
0.000219831
0.000211194
0.00026568
0.000225995
0.000310318
0.000263847
0.000209348
0.000201436
0.000140971
0.000168604
0.000164706
0.00014496
0.000581852
0.000665417
0.00066465
0.000682208
0.000780737
0.00082579
0.0007483
0.000727123
0.000365046
0.000211031
0.000505541
0.000371562
0.000153063
7.1756e-05
0.000183286
8.68046e-05
4.03879e-05
0.000166369
0.000266949
0.000185928
0.00025093
0.000221548
0.000361364
0.00035818
0.000361464
0.000408391
0.000241622
0.000250094
0.000437742
0.000273318
0.00158682
0.000947392
0.00112189
0.000838927
0.00102985
0.000961572
0.000997098
0.00101684
0.00108589
0.001641
0.00159169
0.00229965
0.0103604
0.00333911
0.00124409
4.96842e-05
0.000167517
0.000167083
0.000104607
9.36677e-05
0.000159352
0.000177653
0.000131842
8.31518e-05
0.000128727
0.000138387
0.00011229
0.000118673
0.000123567
0.000135319
0.000114787
9.87353e-05
0.000118458
9.70626e-05
8.64434e-05
8.64383e-05
9.14541e-05
0.000139335
0.000103032
7.88467e-05
0.000102358
0
0
0
0
0
0.0042547
0.00905476
0
0
0
0
0.00367338
0.0055018
0
0
0
0
0
0.0029528
0.0164692
0
0.00374951
0.00436622
0.00376894
0.0020463
0.0034572
0.000701638
0.000766252
0.00115044
0.00153709
0.000811018
0.00149016
0.000980817
0.000859694
0.000585017
0.000642756
0.000492349
0.000592313
0.000404694
0.000600962
0.000593102
0.000500361
0.000396533
0.000426576
0.000524606
0.00034768
0.000361384
0.000580355
0.000233068
0.000288313
0.000213932
0.000231513
0.000241239
0.000224128
0.000146724
0.000167325
0.000168546
0.000111738
0.000132687
9.57966e-05
7.92534e-05
8.58451e-05
8.06205e-05
4.89064e-05
8.82921e-05
5.36384e-05
6.99902e-05
4.39995e-05
6.1209e-05
0.000106717
5.8917e-05
8.49959e-05
8.10586e-05
0.000133935
6.53351e-05
0.000127812
0.000249668
0.000165777
0
0
0
0
0
0
0
0
0
0.0436396
0
0
0
0.0720447
0.192935
0.0729587
0.125994
0.249714
0.15331
0
0
0
0
0
0
0
0
0
0
0
0
0
0
0
0
0.119684
0
0
0
0.184096
0
0
0
0
0
0
0
0
0
0
0
0
0
0
0
0
0
0
0.138931
0
0
0
0
0
0.0022324
0.00220566
0.00434589
0
0
0
0
0
0
0
0
0
0
0
0
0
0
0
0
0
0
0
0
0
0
0
0
0
0
0
0
0
0
0
0
0
0
0
0
0
0
0
0
0
0.00624495
0
0.00281024
0
0.0106662
0
0
0
0.000132057
0.000101469
8.16093e-05
0.000141765
0.000131361
0.000162308
0.000144206
0.000245902
0.000184724
0.000207321
0.000203368
0.000178952
0.000167904
0.000172255
0.000216579
0.000172546
0.000149149
0.000198038
0.000172732
7.60815e-05
0.000292632
0.000400445
0.000259007
0.000462476
0.000286078
0.000239136
7.99361e-05
0.000215836
0.00057729
0.000186154
8.17603e-05
0.000588755
0.000545078
0
0
0.000394205
0.000614597
0.00166366
0
0
0.0122837
0.00204071
0
0
0
0.081952
0
0
0
0
0
0
0
0
0
0
0
0.000208492
0.000559797
0.000441727
0.000370931
0.000421738
0.000438075
0.000216348
0.000123362
0.000455752
0.000451418
0.000158002
0.000142513
0.00011978
0
0
0
0
0
0
0.00576198
0.00201174
0
0
0
0
0
0
0
0
0
0.00118369
0
0
0
0
0
0
0
0.0194186
0
0
0.0246163
0
0
0
0
0
0
0
0
0
0
0
0
0
0
0
0
0
0
0
0
0
0
0.00230782
0
0
0
0
0
0
0
0
0
0
0
0.00142058
0.00213489
0.00121826
0.00203695
0.00269549
0.000616548
0.00376271
0.00405712
0.00275291
0.0262367
0.0175121
0
0
0
0
0
0
0.0240728
0.634092
0
0
0
0
0.0128371
0.00206949
0
0
0.0709745
0.0118301
0.00674474
0.00140169
0
0
0
0.00395523
0
0
0
0
0
0
0
0
0.000147839
0.000264323
0.00062192
0.000155997
0.000630354
0.000280946
0.000303012
0.000187671
0.000250231
0.000176548
0.000226075
0.000211528
0.00020427
0.00023544
0.00015225
0.000225982
0.000193584
0.000213807
0.000190672
0.000227261
0.00029793
0.000230082
0.000252241
0.000221939
0.000239118
0.000251187
0.000173731
9.43491e-05
0.0006034
0.000686705
0.000760002
0.000772689
0.00075023
0.000777193
0.000830301
0.000768997
0.000210087
0.000304744
0.000412009
0.000539975
3.42263e-05
2.9975e-05
0.000167978
0.000154695
0.000107965
0.000121533
0.000211052
0.000318781
0.000348012
0.000279167
0.000124215
9.41411e-05
3.32026e-05
0.000276969
0.000234108
0.000313802
0.000367724
0.000143915
0.000857473
0.00148583
0.00122243
0.000928458
0.00098318
0.00091466
0.00108996
0.00101408
0.00108248
0.000593472
0.00165211
0.00193809
0.0024226
0.000922852
0.000136728
9.82515e-05
0.000120404
0.000118246
0.000155201
0.000127131
0.000131203
0.000102831
0.000130099
0.000127221
9.81791e-05
0.00011428
0.000110463
9.70622e-05
9.91512e-05
8.10696e-05
8.15986e-05
6.13741e-05
5.26966e-05
5.08227e-05
4.52119e-05
0.000141274
8.88388e-05
5.03323e-05
6.48053e-05
0
0
0
0
0
0
0
0
0
0.00400682
0
0
0
0
0
9.03148e-05
0.00011096
0
0
0.0131056
0.0465088
0.00371643
0.00114726
0.00300918
0.00190879
0.00170716
0.00205817
0.00164429
0.00182764
0.000448353
0.000815814
0.000713438
0.000499422
0.000968126
0.000639308
0.000483863
0.000671217
0.000416797
0.000425701
0.000375262
0.000519349
0.000379855
0.000434686
0.000494872
0.000374721
0.000263256
0.000339333
0.000457132
0.000237316
0.000258267
0.000197846
0.00016305
0.000261002
0.00019741
0.000149624
0.000161361
0.000142601
0.00014278
8.73186e-05
0.000107517
0.000110795
8.66912e-05
6.78468e-05
7.6927e-05
8.49858e-05
0.000118974
7.46966e-05
0.000122534
0.000143879
0.000114684
0.000154972
0.000129388
0.000159616
0.000194988
0.000175521
0.000169079
0.000167643
0.000164896
0
0
0
0
0
0
0
0
0
0.000176409
0
0
0
0
0
0
0
0.136708
0
0
0.0938883
0
0
0
0.00605434
0
0
0
0
0
0.002467
0
0
0
0
0
0
0
0
0
0
0
0
0
0
0
0.00208476
0.0339104
0
0
0
0
0
0.00327437
0
0
0.00382293
0
0
0
0
0.0059896
0
0.00191212
0
0
0
0
0
0
0
0
0
0
0
0
0
0
0
0
0
0
0
0
0
0
0
0
0
0
0
0
0
0
0
0
0
0
0
0
0
0
0
0
0
0
0
0
0
0
0
0
0
0
0
0
0