/*--------------------------------*- C++ -*----------------------------------*\
  =========                 |
  \\      /  F ield         | OpenFOAM: The Open Source CFD Toolbox
   \\    /   O peration     | Website:  https://openfoam.org
    \\  /    A nd           | Version:  8
     \\/     M anipulation  |
\*---------------------------------------------------------------------------*/
FoamFile
{
    version     2.0;
    format      ascii;
    class       surfaceScalarField;
    location    "15420";
    object      phi;
}
// * * * * * * * * * * * * * * * * * * * * * * * * * * * * * * * * * * * * * //

dimensions      [0 3 -1 0 0 0 0];

internalField   nonuniform List<scalar> 
788991
(
0.0160882
-0.0276559
-0.0347354
-0.0872729
0.010938
-0.0135062
-0.0246304
-0.00082716
0.00964802
0.0208979
0.0103301
0.0179645
0.000204761
0.0695325
-0.020575
0.0351604
-0.0746863
-0.00176727
0.020907
-0.0508364
-0.004567
-0.0263507
0.0382042
-0.0165259
0.0236749
-0.00412991
-0.00140377
-0.0426447
0.0274214
0.0029851
0.0277398
0.0053371
0.00202124
-0.0119385
0.0542461
0.0103058
0.0383065
-0.0240369
-0.0033474
0.0213157
-0.0502096
0.0525983
0.0139385
-0.0262574
0.00893681
0.022277
0.0216126
0.0701792
-0.0155203
0.094753
-0.176592
-0.0428436
0.0138619
-0.0672691
0.0226164
0.00208545
-0.0293143
0.00332187
0.00517061
-0.00535435
-0.0496174
-0.00236105
-0.0129707
-0.000805741
-0.0235721
-0.0507939
-0.0241947
0.00668779
0.0224929
-0.0173119
0.0549609
-0.0635741
-0.0257924
-0.0236655
0.0107246
0.0818574
-0.060551
-0.0856385
-0.0221714
-0.00480362
0.0256775
-0.000328964
-0.000457441
-0.00218274
-0.0122818
0.0509887
0.0192637
-0.0122161
-0.0144301
0.00220938
0.0244761
0.0290321
-0.0601451
-0.0691208
0.0135094
0.0429521
-0.000256248
0.0291939
0.00678983
-0.00563062
-0.00635969
0.00913197
-0.0597551
-0.0152058
-0.0396992
-0.0284631
-0.00622799
-0.0136407
-0.0228004
0.0217638
0.0012119
-0.03395
-0.0350664
-0.0315353
-0.0278606
-0.0373216
-0.0229934
-0.0135557
0.0709693
-0.00151181
0.00981644
-0.0555545
0.0247466
0.000436366
-0.0561764
-0.0222879
0.0370257
-0.0628731
0.0315813
0.0450537
-0.0859396
-0.0399268
-0.0440033
-0.0494667
0.042652
-0.0262917
-0.0511418
-0.0866891
-0.0329027
-0.0104417
-0.0182705
-0.0309097
-0.00721436
0.0338468
-0.00818361
-0.00757368
0.022761
-0.00503686
0.0100691
0.0236562
0.0242027
-0.0271503
-0.00855093
-0.0269789
0.00383896
0.0124094
-0.0413732
-0.0478129
-0.082468
0.0298568
-0.0404094
0.084977
-0.0632156
-0.0879106
0.0463295
-0.026902
0.0932194
-0.0543913
-0.109049
0.045475
-0.0403467
0.110386
-0.0444937
-0.105164
-0.0467857
-0.0497768
-0.102907
-0.0400692
-0.0973512
-0.0441417
-0.0451481
0.0777596
-0.0437834
-0.0888876
0.0410231
-0.0414978
0.0824872
-0.0509762
-0.0910456
-0.0452561
-0.0459836
-0.0896976
-0.0590323
-0.108744
0.0487823
-0.0468407
0.100694
-0.0664352
-0.112251
0.0406524
-0.0449882
-0.102182
-0.0595072
-0.103721
-0.0444274
-0.0550888
0.0926188
0.0256796
-0.0935822
0.0370121
-0.0527466
-0.0795878
0.0115025
-0.029498
-0.0309095
0.0259088
0.024828
0.0104048
-0.0383738
-0.0216014
0.0374894
0.0378921
0.00112293
-0.0144181
0.0213746
-0.00178939
0.00249363
-0.0413409
-0.0156602
-0.0185373
-0.0222365
-0.0234574
0.00184259
0.00338866
-0.0410422
0.0395947
-0.06522
-0.038648
-0.0336073
0.0151732
-0.024022
-0.0407742
-0.055893
-0.0721176
0.0422182
-0.0564614
-0.102689
-0.0478776
-0.0518517
-0.107807
0.0531276
-0.0545601
-0.110248
0.048951
-0.0479303
-0.107844
0.0421569
-0.0421268
-0.0907735
-0.0450116
-0.0475186
-0.0945784
0.0588465
-0.0430951
-0.0968777
-0.0519495
-0.0428734
-0.0866554
0.0431661
-0.0641622
-0.018874
-0.0660569
-0.0501648
-0.0879332
-0.0119386
-0.0510019
-0.0477738
-0.0616534
-0.0681076
0.00893087
-0.0549896
0.0362232
0.0213821
-0.0159151
0.049607
0.0601443
0.0272533
-0.0796214
0.118334
-0.0353369
-0.0608698
0.0323968
0.0774921
0.0384067
0.00833616
0.0719042
-0.0519879
-0.0365965
0.0624162
0.0148882
-0.0659517
-0.0365064
-0.0186332
1.21301e-05
-0.0410051
0.0813768
0.00758665
0.0220428
0.00669446
-0.0135773
0
0.00413618
0.00603019
-0.0358183
-0.0146823
0.0209935
0
-0.0522883
0
0
0
0
0
0.0137701
-0.0941138
-0.0230872
-0.0398015
-0.0492125
-0.00277217
-0.0183147
-0.0505797
-0.0334219
-0.0589968
-0.0270221
0.0204143
0.0235046
0.0117386
-0.0273879
-0.0151599
-0.0677284
-0.0312189
0.0553476
0.00330101
-0.0582164
-0.0202925
-0.0647527
0.0401967
0.0538941
-0.00746575
0.0494036
0.0345798
-0.0461533
0.0820444
0.056836
-0.0367509
0.0721945
0
0
0
0
0
0.0228047
0.0245226
-0.0606531
-0.0663405
-0.0575951
0.0108817
-0.0349565
-0.0506077
-0.00190736
0.00934484
-0.0217028
0.0274483
0.0259712
-0.00281411
-0.0328847
0.0246407
0.0276199
-0.0167371
0.0408778
-0.0189416
0.0218462
-0.0323803
0.00908709
0.0284528
0.0577726
-0.0349172
0.0828216
0.0560858
-0.0364124
-0.0892554
0.0505121
-0.0480946
0.107707
0.035431
-0.0568459
0.0825504
0.0340014
-0.0355468
-0.0772915
0.036945
-0.04286
0.0847304
0.0128658
-0.0394186
-0.0587816
0.0186308
0.0261555
-0.0240569
-0.0309798
-0.0548194
-0.0367485
0.0111052
-0.0480859
-0.0444911
0.064085
-0.0156552
0.0262339
0.0111647
-0.0344641
0.0384555
-0.0479462
-0.084051
0.0439606
-0.0461637
0.102521
0.0459866
-0.0472597
0.0978776
0.0290387
-0.0348803
0.0979158
-0.00617581
0.0649823
-0.0565431
-0.0548908
-0.0404404
-0.0473476
0.0222703
0.0292486
-0.0159318
0.0322582
-0.049531
0.0536241
0.0076788
0.0618911
0.0402156
-0.0269244
0.0036135
-0.00450833
-0.00631488
0.033334
-0.00807021
0.00921641
-0.00734072
-0.0130105
0.0125336
0.0109932
-0.0190922
-0.00560902
0.0131952
-0.0043421
-0.0355788
0.0301519
-0.0461251
-0.0482926
0.024624
0.0154492
-0.0381055
-0.0279638
-0.0603904
-0.081357
-0.0427061
-0.0656459
-0.115803
0.0520128
-0.0632351
-0.126702
0.0548767
-0.0601293
-0.114892
-0.0481608
-0.0463204
-0.0968879
0.0404647
-0.0431107
-0.0911553
0.054033
-0.0454201
-0.101373
0.0560089
-0.0440974
-0.0954403
-0.0488477
-0.0314819
-0.0856938
-0.0435674
-0.0647963
-0.00876697
-0.0440098
-0.0712234
-0.0233613
0.0390044
-0.0354248
0.00564519
0.0353883
-0.0603974
0.00156334
-0.043089
0.00698227
-0.0231886
-0.0381993
-0.0255225
-0.0306386
-0.0249374
0.0471115
-0.0478979
0.0073698
-0.0447732
0.0241323
-0.0532973
-0.0241002
-0.0271442
0.0312523
-0.00829061
0.0603168
-0.0355278
0.0382316
-0.199888
-0.0247162
0.0226263
0.0279853
-0.0475735
-0.0225731
0.00623897
-0.019591
0.0711803
0.0428868
0.0133851
-0.0211367
0.045842
0.00885252
-0.0213754
0.0191579
-0.0689023
0.0257741
0.0668998
-0.102845
-0.0310404
-0.0992702
-0.0055477
-0.0198085
0.00336404
0.0475139
-0.00130832
0.0306722
-0.0103306
0
0.015468
-0.0110083
-0.117633
-0.0919046
0.0815011
0.0516503
0.00218926
0
0
0
0
0
0
0
0
0
0
0
0
0
0
-0.0297027
-0.0826924
0.0074089
-0.0317736
-0.0324284
-0.0127022
0.0292734
-0.0458516
-0.0339843
0.033988
-0.0173488
-0.0159683
-0.0100561
-0.0938047
0.0353766
0.00409919
0.0275072
-0.0460714
0.0259066
-0.0588006
0.0421532
0.0208587
-0.00789545
-0.0812696
0.0285624
-0.0557697
0.0465414
0.0422651
-0.0314194
-0.0848212
0.0413193
-0.0420154
-0.0721318
3.51001e-06
0
7.92139e-06
0
0
-2.72806e-06
5.70356e-06
-9.70307e-06
7.33738e-06
1.73798e-06
4.2197e-07
0
0
0
0
0
0
0
0
0
0
0
0
0
-0.0182799
0
-0.0663847
-0.0273432
0.0493411
-0.007977
-0.0653135
-0.00968143
-0.00352801
-0.0296409
-0.0401977
-0.00228031
0.00462759
-0.0400925
-0.0210956
0.0438874
0.017017
0.0475805
0.0581422
0.00291809
-0.0235417
0.00420114
0.0434062
-0.0161153
0.00684643
0.0245897
-0.010003
0.0421868
-0.0361549
-0.0725197
0.0439726
-0.0454584
0.0831785
0.0375954
-0.0581383
-0.0848236
0.0355913
-0.0434559
0.0679377
0.036675
-0.0341884
0.0832748
0.0362659
-0.0473214
-0.0862384
0.0269849
-0.0484502
-0.0394609
-0.00274318
0.00611142
0.0460023
-0.0490235
0.0623344
-0.0348003
-0.0283041
0.0336917
-0.0161515
0.0182553
0.00877199
0.0501203
-0.0548871
0.0504798
-0.0382745
-0.091216
0.0611207
-0.0396089
-0.0945759
0.0623795
-0.030144
-0.0764626
0.0885574
-0.0309216
0.0909626
-0.038072
-0.0482427
-0.00699829
-0.0371413
-0.0114441
-0.0273143
0.0495519
-0.0558482
-0.0565953
0.00236954
-0.0076468
-0.0429605
-0.0402872
-0.00799626
-0.0392057
-0.0338821
-0.0455162
-0.0201203
0.039965
-0.000833905
-0.0037607
-0.010653
0.0511558
0.0471418
0.07136
-0.0489866
-0.0164928
-0.0174693
0.00276662
0.0101645
-0.00807129
-0.00808808
-0.00830727
-0.0197597
-0.010366
0.00123507
-0.0190874
-0.0113085
0.00110075
0.0119436
-0.0128347
-0.00374585
-0.0191007
-0.00522695
-0.0388477
0.0414516
-0.0529892
-0.0459746
-0.00916828
-0.0298168
-0.0519134
-0.0288202
-0.0749039
-0.106524
-0.0444008
-0.072488
-0.121846
0.0558151
-0.062838
-0.116705
0.048933
-0.0566959
-0.0962371
0.0425473
-0.0474917
-0.0932357
0.0442834
-0.0423325
-0.103303
0.0557967
-0.0455697
-0.0985375
-0.0538334
-0.0374634
-0.0793258
0.0468076
-0.0332853
-0.0682283
0.0470698
-0.062698
-0.0149647
-0.039147
-0.0682841
-0.0256579
-0.0490906
-0.0404145
-0.00777725
-0.0259108
-0.0669062
-0.0134348
0.0302489
-0.0166467
-0.0599528
0.0417564
-0.0323704
0.0184148
-0.0342661
-0.0442002
0.0112867
-0.0348335
0.0121395
-0.00487214
-0.0352506
0.0080899
-0.0277503
0.0402593
0.0251845
-0.0148001
-0.027241
0.0321907
0.0314531
0.0217953
0.0146672
0.0200703
0.240136
0.0151719
-0.0746124
0.21789
0.0255972
-0.0559322
-0.0265986
0.0156238
-0.01717
-0.00676925
0.0552856
-0.050271
-0.00654775
0.0740317
0.0152607
-0.146031
0.0164149
0.0855657
-0.0248235
-0.0564161
-0.00544706
0.0180493
-0.044109
0.037449
0.0219838
-0.0605909
0.0444995
-0.136693
0
0
0.157803
0
-0.113087
0.0454168
0.0664163
-0.00371153
0
0
0
0
0
0
0
0
0
0
0
0
0
0
0
0
0
0
0
0
0
0
0
0
-3.22268e-06
0
-1.51408e-06
0
-2.01091e-05
0
-1.12828e-05
0
1.0198e-05
-3.64338e-05
0
0
8.66723e-06
0
0
0
0
0
0
0
0
0
0
0
0
0
0
0
0
0
-0.0585624
0.0229722
-0.0167509
-0.0273701
0.0134729
-0.0180601
-0.00347843
-0.0240924
-0.0143914
0.0315892
-0.0612825
0.0575056
0.0249848
0.006136
0.0761325
0.0377735
-0.0642621
-0.0405142
0.0182924
-0.0134761
0.0749008
0.0282032
-0.0584332
0.0597919
0.0248226
-0.0334175
-0.0712051
0.0312375
-0.0390174
0.0667691
0.0232198
0.0627257
-0.0384573
0
0
0
0
0
0
0
0
0
3.0878e-06
0
0
0
0
0
0
0
0
0
0
0
0
0
0
0
0
0
0
0
0
0
0
0
0
0
0
0
0
0
0
0
0
0
0
0.00448945
0.052117
-0.133211
-0.00609691
0.0235319
-0.0116675
-0.0332177
-0.0311615
-0.00183919
0.00820519
-0.0173097
0.0267882
0.0305256
-0.00704479
-0.0164804
0.0537833
-0.0272065
-0.0335205
0.0286882
0.036871
0.0261408
0.0119623
0.0139883
-0.0130147
0.0112169
0.00381544
0.0276061
2.01472e-05
0
0
-5.10956e-05
-1.85248e-06
0
0
2.35729e-05
0
0
0
0
0
0
0
0
0
0
0
0
0
0
0.0217141
-0.0406963
-0.0652244
0.0263185
-0.0467848
-0.0603161
0.0366417
-0.0453233
0.0666302
0.038973
-0.0296968
0.0636946
0.0370364
-0.0483544
0.07724
0.0369976
-0.0475054
-0.086272
0.0117125
-0.0446172
0.041193
0.0121416
-0.0581455
-0.0663089
-0.0119555
-0.0454595
-0.0139791
-0.0117641
-0.0482432
0.0177583
0.0438982
-0.0123639
0.0751027
0.0140734
-0.0263894
-0.0702314
0.0480734
-0.0324068
0.0822302
0.0354883
-0.0394356
-0.0892461
0.0363218
-0.0285947
0.0622085
0.0404563
-0.0161196
-0.0385822
-0.0384056
0.0335577
-0.00336477
-0.0163127
0.0170072
-0.0518565
-0.0462053
-0.011918
0.0215346
-0.00796336
0.0369867
-0.0207966
0.0294061
-0.0487801
-0.0478143
-0.0233752
-0.0672563
-0.0612245
0.0124067
-0.0134366
-0.0502114
0.0247733
-0.0382186
-0.0409299
0.0182983
-0.0623337
-0.0121602
-0.0380977
0.0390968
-0.0129655
-0.0395095
-0.00741358
0.0116381
0.0119686
-0.0179883
-0.00936485
0.0211953
-0.0311938
-0.00828502
-0.001342
-0.0156514
0.00407277
0.0087096
-0.000677968
-0.000313356
0.00924257
0.0018
-0.00397393
0.00684196
-0.0157285
-0.000492887
0.0162384
-0.00327562
-0.0356485
0.0337915
-0.0659409
-0.0505895
-0.00843228
-0.04638
-0.0793293
-0.0384616
-0.080676
-0.120162
0.0327805
-0.0615185
-0.10405
-0.0412161
-0.054698
-0.0981056
0.0458236
-0.0582517
-0.097743
-0.0413513
-0.0482854
-0.102624
0.0482452
-0.0426525
-0.099879
-0.0514133
-0.0376798
-0.0873541
0.0379541
-0.0360329
-0.0809758
-0.0370918
-0.0366703
-0.089577
-0.0422973
-0.0597194
-0.0202696
-0.0475684
-0.084335
-0.0247935
0.040074
-0.0605692
-0.0241933
-0.0404969
-0.0587524
-0.0179071
-0.0454916
0.00666996
-0.0467778
-0.0314913
-0.014743
0.0143075
-0.0257098
-0.0342917
0.0114008
-0.0234727
0.00363215
-0.0271487
-0.0341705
0.00627951
-0.0287143
-0.0234311
0.0204131
-0.0186006
-0.0151385
0.027289
0.0092918
0.00316925
0.0280041
0.02251
0.0171955
0.00286108
-0.00625559
-0.00265524
0.0248249
-0.0273755
0.0197312
0.00897478
0.0247588
0.0136107
0.0171869
0.0109773
0.00765463
0.0110878
-0.0323722
0.021517
0.0156365
-0.00204778
0.0220673
0.0320609
0.0228237
0.0230084
-0.017651
0.0337366
0.0185561
0.0141088
-0.0285432
0.0146788
0.0388275
0.0200488
0.00663653
0.0314035
-0.013548
0.0403055
0.0359688
0.0149131
0.0214186
-0.00830958
0.0313946
-0.00856304
0.00362401
0.0276917
0.0346919
-0.0195067
-0.0141561
0.0256787
-0.00507428
0.0148199
0.000915891
0.018237
-0.0194583
-0.0210119
-0.0237828
0.0455846
-0.0810857
-0.0601595
-0.0209793
0.0369226
-0.0580299
-0.0428654
-0.0446756
-0.0167488
-0.014345
-0.00950519
0.0438419
0.0607749
-0.0962476
-0.0117165
-0.0211324
-0.0626627
-0.129866
-0.0225506
-0.0175122
-0.0579832
0.0511858
-0.0444159
-0.100713
0.0320663
0.0312102
-0.0997023
0.0537077
0
0
0
-0.119541
0
-0.166507
-0.16398
0.0110588
-0.257258
0
0
0
0
0
0
0
2.26516e-05
6.90272e-05
0
0
0
0
0
0
0
0
0
0
0
0
0
0.000117963
1.27545e-05
0
0
0
0
0
0
0
0
0
0
0
0
-5.93505e-05
0
0
0
0
0
0
4.94118e-05
0
-7.1609e-05
0
0
0
0
0
0
0
0
0
0
-2.27739e-05
-4.52691e-05
-5.32609e-06
2.21317e-05
0
0
0
0
0
0
0
0
0
0
0
0
0
0
0
0
0
0
0
0
0
0
0
0
0
0
0
0
0
0
0
0
0
-0.0288308
-0.0193766
-0.0169808
-0.00595652
-0.0415539
0.0302251
-0.0536005
-0.0443062
0.051299
0.0470279
0.0193631
-0.0239906
0.0293622
-0.0521156
-0.0888923
0.0184763
-0.0327682
0.0606982
0.0266985
-0.0561586
0.0476609
0.0231952
0.0161189
-0.0544433
-0.0377277
0.0228895
-0.0226908
0.0690709
0.0232627
-0.0377608
0.0563024
0.0524198
-0.0283316
0
0
0
-2.1046e-05
-9.71668e-07
4.89842e-05
0
0
0
0
0
0
3.13784e-05
0
2.30333e-06
0
0
0
0
0
0
0
0
0
0
0
0
0
0
0
0
0
0
4.4874e-05
4.18471e-05
1.47689e-05
-0.0351169
-4.24447e-05
0
0.0203196
0.0489476
-0.0714886
-0.0141857
-0.00671792
0.00914941
-0.0294366
-0.0295678
0.00373649
-0.00454397
-0.0387393
-0.0140993
0.0164979
-0.0190708
-0.018324
0.01739
0.0148016
3.4478e-05
0.0101331
0.0119416
-0.00707287
0.0152407
-0.0311311
0.0160181
-0.0531947
-0.000220477
0.0257471
2.30859e-05
0
0
5.74194e-06
0
1.6998e-05
0
-6.77504e-07
0
3.9982e-07
0
-8.44495e-07
-1.65353e-08
0
0
0
0
0
0
0
0
0
0
0
0
0
0
0
0
0
0
0
0
0
0
0.00439572
0.0494609
-0.015851
0.00905393
-0.038489
0.0468165
0.0280074
-0.0296441
0.0480714
0.032254
-0.0213391
0.0601839
0.0330088
-0.0235794
-0.0684401
0.0411825
-0.0399329
0.056808
0.0421411
-0.0315718
0.052712
0.0139197
-0.0315174
0.0708264
-0.00225469
-0.0573019
-0.047598
-0.0226002
-0.0383731
0.0447901
-0.0285326
-0.0530246
-0.0492849
0.0266227
-0.0348292
-0.038407
0.0338783
-0.0473061
0.0175514
0.028597
-0.057225
0.0490573
0.0308986
-0.0435771
0.0411264
0.0403722
0.00479555
-0.0362365
0.0300819
-0.0253319
0.00367948
-0.0152446
-0.0417352
-0.0293074
-0.0371565
-0.0475454
-0.0256924
-0.0469619
-0.0517071
-0.0165712
-0.0521445
-0.0271779
-0.0343231
0.000890872
-0.0227042
0.0393347
-0.0138953
-0.0414557
-0.040227
-0.0145888
0.0101726
-0.0465717
0.0112814
0.0316541
0.0319235
0.0197514
0.0452471
-0.0332233
0.0117863
0.0487324
-0.039585
0.0209246
0.0583788
0.0417419
0.0274455
0.0444264
0.018295
0.0210251
-0.0201898
0.00112917
0.0209413
-0.00746793
0.044395
0.0353267
0.0044704
-0.0655126
-0.0637179
0.00923201
-0.0613154
-0.0535733
0.00735206
-0.0299277
-0.0440691
0.0169447
-0.0710212
0.00114748
-0.058862
-0.0339149
-0.0268043
-0.0281741
0.033085
0.0420663
0.0267657
0.0700643
0.0235659
0.0144826
0.00931863
-0.0230816
0.00963772
-0.0202813
-0.00238686
-0.0114675
-0.0018105
-0.0125645
0.00225611
0.0225091
0.00796539
0.010019
-0.0114792
0.00265068
0.0116856
0.00618543
0.00600571
-0.00480424
0.0138158
-0.00178987
-0.0400579
-0.0662614
-0.00375867
0.0138417
-0.054688
-0.0851006
-0.0510465
-0.0705089
-0.079568
0.0189845
-0.0576664
-0.0982955
0.0353609
-0.0568036
-0.108275
-0.0463629
-0.0590613
-0.097659
0.0426493
-0.0485644
-0.098898
-0.0491146
-0.0426984
-0.0959356
0.0393989
-0.0505028
-0.0940892
-0.0308694
-0.0634639
-0.114964
0.0365303
-0.0546411
-0.110656
-0.0270229
-0.0671547
-0.0257567
-0.0408616
-0.0821999
-0.0328707
0.0240664
-0.0521871
-0.00234623
0.0327437
-0.065173
-0.010335
-0.039186
-0.000593396
-0.0385903
-0.0339472
-0.0253284
0.0138628
-0.0302132
-0.0310545
0.00332952
0.0291779
0.0105265
-0.0217027
-0.0289992
0.0105045
-0.0250138
0.0213934
0.0194467
-0.0094631
-0.00744344
0.016668
0.00909283
0.00248982
-0.0066464
0.0120608
0.00222831
0.00555642
0.00754493
-0.00671543
-0.000678633
0.0134744
0.0105461
-0.00231345
0.0110528
0.0128712
-0.00963018
0.00628367
0.0151421
-0.0143056
0.00421531
0.0144081
-0.0139622
0.00249001
0.0105411
0.00393684
-0.00483843
0.0282898
-0.0219976
0.0285409
0.0178488
-0.00544357
-0.0502195
0.0101781
-0.00480741
-0.0174154
0.0058944
-0.0331543
-0.0118564
-0.0108365
-0.0244208
-0.0371008
0.0259217
0.00260253
-0.0186441
-0.0297804
-0.0312078
-0.0328704
-0.00950993
0.00249945
-0.0317362
-0.0478555
0.036094
0.0114804
0.0441746
0.0221249
-0.0122162
-0.0289706
-0.0436024
0.00572811
0.0513627
0.0144092
-0.0776481
0.0723735
0.0538148
-0.00529225
0.0243176
0.0735777
0.034454
0.063636
-0.174963
0.00876593
0.0296102
-0.0526989
-0.12611
0.091172
-0.0307544
-0.119252
-0.0219607
-0.142342
-0.00395877
0.00907632
0.119267
-0.119314
-0.0933037
0
0
0
-0.0467614
0
0
-0.00161217
0.000505821
-0.00486639
0
0
0
-1.00649e-05
0
7.74834e-05
0
-2.42254e-05
0
0
0
0
0
0
0
0
5.41234e-06
0.000182681
0
0
0
0
8.2499e-05
0
0
0
0
0
0
0
0
-6.08509e-08
-7.31706e-07
0
0
0
0
0
0
0
0
0
0
-1.10104e-05
0
0
0
0
3.00619e-06
0
0
0
-5.75694e-06
-8.33441e-07
0
0
0
0
0
0
0
0
0
0
0
0
0
0
0
0
0
0
0
0
0
0
6.71294e-07
0
0
0
0
-0.0234415
-0.0289387
-0.0370168
-0.0270059
-0.025318
0.00992703
0.0289081
-0.00425003
0.0178368
-0.00553231
-0.0441974
0.0579293
0.0300417
-0.00824773
0.00525672
0.0158047
-0.0318238
-0.0698682
0.019297
-0.0292354
-0.0437035
0.0311418
0.0126381
-0.0496203
-0.0269907
0.0299878
0.0457665
0.023868
0.0328474
-0.0242215
0.0586626
0.0447375
-0.0213101
-3.43323e-05
0
-4.78225e-07
2.35011e-05
-8.12492e-06
-1.53387e-05
0
0
0
0
0
0
0
0
0
0
0
0
0
0
0
0
0
0
0
0
0
0
0
0
-6.01911e-05
0
0
0
0
0
-0.037486
0
0.117511
0.00196771
-0.0124815
0.0668418
-0.0207502
0.000399887
-0.0106213
0.00851223
-0.021302
-0.00373185
-0.0129301
-0.0163233
-0.0234878
0.0217181
-0.0120973
0.0202173
0.00957194
0.0149182
-0.00293924
0.0374192
0.00050964
-0.00294637
0.00715273
0.0255411
-0.000994722
-0.0222779
0.0487939
-0.0315135
0
0
0
0
0
0
0
0
0
0
3.00684e-07
0
0
0
0
0
0
0
0
-0.00670415
0
0
0
0
0
0
0
0
0
0
0.0113768
0
0.00252906
0
0
0
0
0
0
0
0
0
0
-0.00584281
0
0.0173236
-0.0193486
0.0383064
0.0262632
-0.0141389
-0.0379257
0.0182075
-0.0258579
0.0429883
0.0167031
-0.0422992
-0.0474359
0.0270558
-0.00870523
0.0264241
-0.0455919
0.0110627
-0.0110713
0.0567671
0.00875937
-0.0133863
-0.0399569
0.0546836
-0.0564023
0.0447296
-0.00404556
-0.0623477
-0.0710059
0.0242964
-0.0195661
0.0355497
0.00330856
-0.0393179
0.0626897
0.0105311
-0.0260327
0.0379804
-0.0361866
-0.0158208
-0.0281955
0.0232541
0.0163156
0.0391586
0.0324935
0.00327723
-0.0606742
-0.0233655
0.0376293
0.0359187
-0.045338
-0.0136442
0.0358845
0.00570109
0.00816146
-0.0242526
0.028604
-0.0256913
0.0299953
-0.00881753
-0.0299617
-0.0357983
-0.0374164
0.0379274
-0.0432862
0.0391125
0.00292642
-0.0387096
-0.0565555
-0.000306215
-0.0203721
-0.0319177
0.0328575
-0.0206609
0.00379256
-0.0251495
0.0289374
-0.0268569
-0.032972
0.0112617
-0.0308314
0.0258659
-0.0277739
0.0394428
-0.0393792
0.0358561
0.0296809
-0.0246836
-0.0493485
0.0188855
0.00772693
-0.0178507
0.0153014
-0.000489748
0.02024
0.00965568
-0.00533212
-0.0199894
-0.0312039
-0.0592785
-0.0352084
-0.0376982
-0.0598356
-0.0279096
-0.0443223
-0.0604265
0.0161569
-0.0707661
-0.0371425
-0.0291819
-0.00575718
-0.0366496
0.0607258
-0.0298319
-0.0676843
0.0490437
-0.00711378
0.018303
0.0498984
0.00950888
0.0387323
0.0502018
0.0123596
0.0568657
0.0550092
0.0158441
0.0634893
0.0571757
0.0349446
0.0641817
0.0258224
0.0477933
0.0602031
-0.00401555
0.0305317
0.0277727
-0.0160587
0.0468592
0.0504358
-0.00438411
-0.0638788
-0.0457724
0.0163833
-0.0638993
-0.0706104
-0.0531385
-0.0139605
-0.0591399
-0.0435608
0.000446169
-0.0498284
-0.00316208
-0.0502084
-0.0628252
-0.00353167
0.0549418
0.00122548
-0.00606342
-0.0388505
-0.0350298
0.0108561
-0.030279
0.0344052
-0.00591933
-0.0249764
-0.0323178
-0.00655177
-0.0285556
-0.0259705
0.00145515
-0.0355195
-0.0338624
0.00852899
-0.0242237
-0.0364223
-0.00406632
-0.027495
-0.0421135
-0.0484495
-0.0153753
-0.0498656
-0.0414598
0.0226494
0.0188936
0.017789
-0.00768591
0.0136601
-0.00920654
0.0195971
-0.00684079
-0.000563858
-0.0290734
-0.0162108
0.0291221
0.0111929
-0.000617181
0.0111072
0.0250005
0.0149772
0.00994286
-0.0363421
-0.0302872
0.00690498
-0.0253264
-0.0156063
-0.000993489
0.0105618
-0.023188
-0.00350898
-0.0695461
-0.0286562
-0.0174621
-0.049969
-0.0696219
-0.0387323
-0.0799811
-0.0786865
-0.0228125
-0.0668422
-0.110998
0.0163676
-0.0666461
0.0207001
-0.0980697
-0.0560169
-0.0853023
0.0500464
-0.0440997
-0.100464
-0.0495368
-0.0457571
-0.0921454
-0.0431895
-0.0580187
-0.0904119
0.0563949
-0.0564025
-0.0843414
0.0552547
-0.039951
-0.0662661
0.0294683
-0.0643022
-0.0257039
-0.0330166
-0.0540734
-0.0249481
-0.0266301
-0.0459991
-0.0107506
0.0325599
-0.0600506
-0.016134
-0.0300317
-0.00661688
-0.0401653
-0.0297482
-0.0222881
0.00738146
-0.029441
-0.0350467
0.000807465
0.0243363
0.00151589
-0.0258829
0.0300025
0.00626806
-0.0224118
-0.0225052
0.0114225
-0.00944288
-0.0083096
-0.00286504
0.00155213
-0.00424112
-0.00269925
-0.00371776
-0.000325979
-0.00656434
-0.00201145
0.00299967
-0.00672309
0.00188148
0.00386764
-0.00676819
-0.000891807
0.00527664
-0.0100968
-0.00487709
-0.00546154
-0.0154449
-0.00497921
0.00481236
-0.00377181
-0.00952769
0.00227829
-0.0185137
-0.00386924
0.0181497
0.0235643
-0.0490267
0.0247678
-0.00773325
0.056481
0.0440972
-0.0105521
-0.0665571
0.019472
0.0355785
-0.0266381
0.112049
-0.0923987
0.0687306
-0.134722
0.00178955
-0.0963407
0.0209592
0.040852
0.0492451
0.0116386
-0.00182179
0.0239676
-0.0129455
-0.160717
0.368423
0.105295
0.0480787
-0.176565
-0.0262372
-0.0686754
0.0163175
-0.0378854
-0.0572155
-0.152113
0
-0.111549
0.000589886
0.054114
-0.0647371
-0.0586215
-0.0639613
0.00784047
-0.161772
0.0203239
-0.0727716
-0.076343
0
0
0
0
0
2.91621e-05
4.21852e-05
-1.38739e-05
-0.0041909
0
-0.00144233
0
-0.0005538
0
0
0
0
0
0
0
0
0
0
0
0
0
-3.43358e-05
0
-9.11237e-05
0
0
0
0
0
0
0
0
0
0
0.00322761
0.00188407
0
0
0
0
0
0
0
0
0
0
0
0
0
0
0
0
0
0
0
-3.03717e-07
-2.52958e-07
-6.84573e-06
0
0
0
-3.63966e-05
1.96142e-05
0
0
0
0
0
0
0
0
0
0
0
0
0
0
0
0
0
0
0
0
0
0
0
0
0
0
0
8.68035e-06
0
-3.82921e-05
0
0
0
-7.83847e-06
0
1.52297e-05
-0.0383731
-0.0459877
0.0403039
-0.00158065
-0.0519175
0.0447019
-0.0588182
-0.0138564
-0.0330087
0.0850537
-0.00947019
-0.0309511
-0.0226124
0.0110228
0.0427625
0.0116245
0.0584132
0.0234263
0.00636255
-0.0715518
0.00270737
-0.0467346
0.0222878
0.0344952
-0.0127343
0.0468287
0.0265704
-0.0217777
-0.0452267
0.0319897
0.0381326
-0.0146218
0.0324014
0.0340613
0.0157057
-0.00984789
0.035598
1.7752e-05
0
0
0
0
0
0
0
0
0
0
0
0
0
0
0
0
0
0
0
0.0383071
0.00242416
-0.00123554
0.0335762
0
0
0
0
0
0
0
0
0
0
0
0
0
0
0
-0.0421441
-0.0442567
-0.0214645
-0.00608248
0.00683095
-0.0148819
-0.0224155
0.002468
0.0769046
0.0205961
-0.0381498
0.0418485
0.024259
-0.0203171
0.0225486
0.0380358
-0.0164522
-0.034718
0.0259627
0.0309603
0.0197633
0.0137434
0.0576949
-0.0295687
0.0130858
0.00433379
0
0
9.24607e-06
7.76624e-07
0
0
0
0
0
0
0
0
0
0
0
0
0
0
0
0
0
0
0
0
0
0
0
0
0
0
0
0
0
0
0
0
0
0
0
0
0
0
0
0
0
0
0
0
0
0
0
0
0
0
0.0252527
0.0131263
-0.00305264
0.0218901
0.0201342
-0.00468285
0.0375831
0.0235771
-0.00796554
0.0321702
0.0290426
-0.0148889
0.0480378
0.0404975
0.0289852
-0.0375016
-0.00582224
0.0355596
-0.0280883
0.0499112
0.00459488
-0.00678947
0.0424576
0.0418943
0.00314528
0.0259121
0.00343792
0.0460264
0.00883912
-0.0299965
0.0711659
-0.0031743
-0.0510862
0.0315475
0.0186825
-0.0581533
-0.058241
-0.0938916
0.0287819
-0.00603931
-0.0450096
-0.0301099
0.0447169
0.0662029
0.0216863
0.00420297
0.0630463
0.00823501
0.111581
-0.0227607
-0.0334722
0.0130106
0.00298044
0
0
0.00709956
-0.0248095
-0.0333705
0.00414444
-0.035967
-0.0493142
0.00331649
-0.0315838
0.0459542
0.0357142
-0.0312531
0.0427013
0.00100404
-0.0147174
0.0295983
0.0152476
-0.0165952
-0.0282337
0.0159652
-0.0235979
0.045976
0.00411859
-0.0311008
0.0384012
0.0303102
0.0252181
0.0154024
0.0183125
0.0124243
-0.0244054
0.0102368
0.00190047
0.0226462
-0.0484658
-0.080965
-0.0326258
-0.0442029
-0.0687675
0.0165683
-0.048796
-0.0645951
-0.00361254
-0.0847181
-0.0548137
0.01346
-0.0255016
-0.0301895
0.057648
0.0452401
-0.0485447
-0.0682302
0.0333851
0.0234118
-0.0115529
-0.0582816
-0.0116135
-0.0341464
0.0528649
0.00162303
0.0436561
0.0622743
0.0114694
0.0522846
0.0537862
0.0368011
0.0676743
0.0289425
0.058843
0.0612443
-0.00352294
0.0511339
0.047164
0.0160422
0.0297058
0.0431206
0.0123914
0.0578398
0.0504616
-0.0306328
-0.048227
-0.0638642
-0.0249452
-0.0627019
-0.0452032
-0.0139139
-0.0698499
-0.0640719
-0.0103339
-0.0611071
-0.0511369
-0.00975087
-0.0430378
-0.0303409
0.035036
-0.0151881
-0.00242029
-0.0760396
-0.00464528
-0.00351473
-0.0495575
0.0297595
0.0028293
-0.0334724
0.0303633
0.0139704
-0.0327222
-0.0245117
0.00373467
-0.0182527
-0.0338994
-0.00018606
-0.0266074
0.0337305
0.0132655
-0.030803
-0.0383847
0.0114417
-0.0233035
0.0385124
-0.00174018
-0.0281464
-0.0420008
-0.00594525
-0.0453674
0.0371207
0.00603924
-0.0115651
0.0189414
-0.0307686
-0.00632753
-0.0525396
-0.0518046
-0.0403349
-0.0202054
-0.0586857
-0.009642
-0.0709281
0.00792901
0.0768817
0.028754
-0.0261165
0.0706866
-0.075422
0.0542535
0.0736109
0.00951598
-0.0594623
-0.0480821
0.0663669
0.0577481
-0.0356655
0
0.00151116
0
-0.0156526
0
0
-0.0440407
0.0137556
0.0315583
-0.0792603
0.0218187
-0.008907
-0.0410757
-0.0634062
-0.0345259
-0.0725354
-0.090077
0.0205119
-0.0859248
-0.0492714
-0.0502505
-0.0672232
-0.0496876
-0.0284241
-0.057375
-0.122203
0.0413928
-0.041464
-0.10248
0.0364946
-0.0341961
-0.0721318
-0.0476413
-0.0295681
-0.0571731
0.0607476
-0.0248383
-0.0574091
-0.0497068
-0.0188387
-0.0575299
-0.0401736
-0.0555513
-0.0217958
0.0313063
-0.0617795
-0.0189375
0.0225226
-0.0460084
-0.0130206
-0.0295789
-0.0478172
-0.0116581
0.0365898
-0.0115323
-0.0447004
-0.0259311
-0.0307489
0.000484511
-0.0261561
-0.0369794
-0.00457059
-0.0215811
-0.000140169
-0.0259702
-0.0265782
0.00254248
-0.028162
-0.0213445
0.000497586
-0.0177636
-0.00448666
-0.0201972
-0.00980608
-0.00645382
-0.0126288
-0.00384442
-0.00589524
-0.00814398
-0.000935734
-0.00823393
-0.0104063
0.000469031
-0.00671693
-0.00646918
-0.00441599
-0.00520413
-0.00572356
0.00420856
-0.00643206
-0.00901653
-0.00587339
-0.0235996
-0.0160204
-0.018382
0.0251058
-0.0421832
0.00480904
-0.0211435
0.0269914
0.0581738
0.0219464
-0.0801898
-0.0206248
0.0384377
0.0403748
-0.103667
0
0
0
-0.0407883
0
0.0490503
0.0732304
-0.244671
0.0800022
0.0581765
-0.00698263
0.0603378
-0.198175
-0.0209768
-0.0728836
-0.197259
0
-0.043927
-0.0542946
-0.0318503
-0.0394194
-0.122287
-0.0490818
0.124386
0
0
0
-0.40974
0
0.0643629
-0.0550849
-0.036205
0
0
0
0
0
7.9832e-07
3.67226e-08
0
0
2.4429e-05
-2.01743e-05
-2.09921e-05
0
-1.303e-07
0
0
0
0
0
0
0
0
0
0
0
0
0
0
0
0
0
0.00401696
-0.00341296
-5.96647e-05
0
0
0
0
0
0
0
0
-0.00119873
0
0.0174878
0
0.0111727
0
0
0
0
5.23539e-06
0
-2.9236e-05
0
0
0
0
0
0
0
0
0
-3.48101e-07
-6.14235e-06
7.23067e-06
0
-7.58609e-06
0
-5.7358e-06
-2.26888e-05
1.48486e-05
0
-1.55248e-06
0
0
0
0
8.55239e-06
0
-5.88574e-05
0
-1.14002e-05
-1.94717e-05
0
0
0
0
0
0
0
0
0
0
0
0
0
0
0
0
0
0
0
0
0
-4.61809e-06
0
6.49967e-06
0
0
0
-3.96572e-05
0
0
0
0
0
0
0
0
-0.0428285
-0.0243731
-0.0803849
-0.025279
-0.0456621
-0.059198
-0.012626
-0.0429192
-0.0526333
-0.0387445
-0.017597
0.0562837
-0.0602706
0.0173617
-0.0274766
-0.0196069
-0.0497445
0.0202295
-0.0556303
0.0120664
0.0280184
0.00967625
-0.0421138
0.0215245
0.0413422
-0.0234645
0.0112476
-0.0102298
-0.0245319
0.0229549
-0.00424753
0.0310939
0.0218839
-0.00642499
0.024133
0.024102
0.0213703
0.013603
-0.00659681
0.0226737
0
0
0
0
0
0
0
0
0
0
0
0.0284885
-0.0129919
-0.00684426
-0.0186385
0
0
0
0
0
0
-0.0850957
-0.00221754
-0.119261
0
0
0
-3.13258e-07
0
6.13155e-07
0
2.99201e-07
0
0
0
0
0
0
0.0101442
-0.0149727
-0.0664181
-0.0400482
-0.0102147
-0.0120488
-6.89513e-05
-0.0265885
-0.0136175
0.0014892
0.0254299
0.0362565
-0.00204769
-0.0310645
-0.00794369
0.0191016
0.0291165
0.0165127
0.0204231
-0.0427525
-0.0305653
-0.0257498
-0.0120806
-0.0180152
-3.04176e-08
0
0
7.2559e-07
0
-7.77665e-06
0
0
0
0
4.65536e-08
0
-2.90173e-06
0
2.95429e-06
0
0
0
0
0
0
0
7.2317e-05
0
1.33418e-05
-5.15568e-05
2.15557e-05
3.30291e-05
0
0
0
0
0
0
0
0
0
0
0
0
0
0
0
0
6.85631e-05
-4.09213e-05
0
0
0
0
0
0
0
0
0
0
0
0
0
0
0
0
0
-2.02265e-05
0
2.3679e-05
0.00793856
0.0143648
-0.000568254
0.0150684
0.0133245
0.0128319
0.0228666
0.0348493
-0.00570982
0.0259068
0.0332997
-0.0057476
-0.0206811
0.00553085
-0.00444559
0.0125038
0.0177916
0.02514
-0.00513418
0.0211274
0.0291518
-0.0223834
0.0171769
0.0402613
-0.0268385
-0.0239207
-0.00672679
0
-0.0212396
-0.0437047
-0.0171625
0.0133393
-0.0347605
-0.0369885
0.0199119
-0.0223373
0.0588358
0.00233743
0.0215752
-0.0379109
-0.0428639
0
0
0.0174117
0.020175
-0.0564118
0
0
0
-0.0116452
0
0
0
0
0
-0.000170555
0
9.79246e-05
0.00850374
-0.0305798
0.0426465
0.0265993
-0.0451493
0.0261405
-0.00219154
-0.0348729
-0.0459144
-0.00825543
-0.0608269
-0.0437981
0.00815036
-0.0325941
-0.057394
-0.0324111
-0.0414658
0.00329087
0.00794866
-0.0294307
0.0121267
-0.01234
-0.0245648
0.015126
-0.0149929
-0.0449238
0.0139331
-0.0290368
-0.0420487
0.0159803
-0.0343475
-0.0483856
0.0348297
0.0306582
0.0227016
0.0281417
0.0166689
0.0156119
0.0209003
0.00672424
-0.0424179
-0.0699585
-0.0858712
-0.0109274
-0.0624936
-0.0698859
-0.00586883
-0.0695522
-0.0615415