/*--------------------------------*- C++ -*----------------------------------*\
  =========                 |
  \\      /  F ield         | OpenFOAM: The Open Source CFD Toolbox
   \\    /   O peration     | Website:  https://openfoam.org
    \\  /    A nd           | Version:  8
     \\/     M anipulation  |
\*---------------------------------------------------------------------------*/
FoamFile
{
    version     2.0;
    format      ascii;
    class       volScalarField;
    location    "10620";
    object      alpha;
}
// * * * * * * * * * * * * * * * * * * * * * * * * * * * * * * * * * * * * * //

dimensions      [0 0 -1 0 0 0 0];

internalField   nonuniform List<scalar> 
526318
(
0.000323603
0.000346583
0.000391601
0.000221355
0.00044101
0.000314579
0.00107629
0.00109842
0.000675224
0.00079832
0.000535554
0.00031123
0.000418034
0.000534837
0.000535907
0.000280382
0.000532421
0.000268822
0.000413973
0.00035878
0.000183004
0.000376619
0.00288973
0.000849897
0.000297303
0.00081087
0.000154476
0.00107179
0.000368798
0.000395233
0.000457622
0.000381682
0.000544384
0.000478427
0.000669237
0.000644215
0.000563556
0.000171319
0.000275638
0.000214823
0.000144525
0.000725239
0.00324892
0.00194984
0.00571145
0.0051949
0.00217913
0.000105366
0.000212115
0.00157889
0.000219087
0.000588397
0.000276493
0.000736705
0
0.000625244
0.00637583
0
0.00037632
0.00041628
0.000300227
0.000346429
0.000455278
0.000267576
0.000482874
0.000464041
0.000700936
0.000305186
0.000758099
0.000900913
0.000278938
0.000399953
0.000534908
0.00197555
0.000651182
0.0011417
0.00120027
0.00208979
0.00266872
0.00120773
0.00170199
0.00150322
0.0016728
0.00237126
0.00168679
0.000518761
0.00074082
0.000582977
0.000487564
0.000806752
0.00108768
0.00161052
0.00118089
0.000228398
0.001079
0.00170991
0.00100371
0.000243635
0.000740282
0.000810306
0
0
0
0
0
0
0.00256422
0.110691
0.00373153
0.00538551
0.00155989
0.00178522
0.000768749
0.000292473
0.000192462
0.000659526
0.000392057
0.000518371
0.000509827
0.000917566
0.000298136
0.00038935
0.00064779
0.000639218
0.000569703
0.0016418
0.00173028
0.00281328
0.000406511
0.00163854
0.00110703
0.00191141
0.00380664
0.00557387
0.00155093
0.00982473
0.00404609
0.00849498
0.00296501
0.0163372
0.0278433
0.00509464
0.00586431
0.00868978
0.018271
0.0152119
0.0088441
0.0236628
0.012715
0.0214441
0.00948403
0.0427923
0.00404419
0.0174997
0.013444
0.0404499
0.00956433
0.0209502
0.0924405
0
0.0120901
0.030235
0.0134277
0.000891286
0.000459169
0.000695119
0.000527013
0.00207434
0.000635987
0.000749024
0.00238254
0.00161051
0.0017962
0.00208842
0.00201984
0.00247253
0.00281705
0.00157393
0.00107608
0.00187945
0.000761348
0.000383149
0.00100443
0.00196041
0.00139122
0.00334886
0.00199961
0.00273868
0.00294684
0.00203155
0.00200613
0.00530417
0.00932822
0.00578028
0.0031248
0.00354164
0.00592458
0.0048112
0.0089416
0.0127974
0.00649716
0.0177806
0.00587975
0.00636727
0.00312677
0.0137864
0.0233361
0.020925
0.00434326
0.0147416
0.00038834
0.00118457
0.000995286
0.000308411
0.000999966
0.000433763
0.000291081
0.00058668
0.000255277
0.00789676
0.00651983
0.00427532
0.00291662
0.000937913
0.00246486
0.000854907
0.000714407
0.000327148
0.00047423
0
0
0
0.0224382
0
0
0
0
0
0
0.000360283
0.000602451
0.000515149
0.000428458
0.000331715
0.000461857
0.000667617
0.000489328
0.00110618
0.00175328
0.00108256
0.00142623
0.00064647
0.000680653
8.12104e-05
0.000305154
0.000650467
0.000468577
0.00142104
0.000213338
0.00144851
0.000657307
0
0
0
0
0
0
0
0
0.00685249
0.0165594
0.00391823
0.00253765
0.000502568
0.00104334
0.000371311
0.00058631
0.000562122
0.000455857
0.000331667
0.000156117
0.00069984
0.000788688
0.000653832
0.00160841
0.00501997
0.000546183
0.0043623
0.00700794
0.00930681
0.00889071
0.00859474
0.00987228
0
0.0388519
0.0564308
0.0268272
0.0144596
0.00855192
0.0327005
0.0262175
0
0
0.052603
0.0136102
0.156129
0.0185964
0.0527496
0.342437
0.147936
0
0
0
0
0
0
0.00672346
0.0164832
0.0201658
0.00579432
0.00021509
0.00104486
0.00175663
0.00168499
0.000793977
0.00346349
0.00238305
0.0010466
0.00169008
0.00175644
0.00413395
0.00722763
0.006611
0.0023096
0.000108179
0.0034585
0.00283235
0.000246307
0.00300062
0.00145504
0.00514539
0.00521485
0.00107756
0.0037474
0.00306192
0.000821703
0.00723718
0.00297707
0.00630301
0.00209105
0.00382637
0.00235725
0.00385196
0.00604391
0.00274253
0.00832693
0.00456001
0.00516216
0.00294405
0.0161192
0.00165758
0.00394091
0.00763772
0.0162513
0.0103898
0.00366722
0.0038555
0.00912642
0.00465197
0.00460527
0.00940623
0.0017592
0.00120451
0.00218164
0.00632119
0.00158802
0.00443638
0.000942659
0.000354523
0.00105408
0.000925642
0.00121606
0.00066356
0.000746615
0.00203409
0.00033818
0.00050443
0.000828551
0.0217467
0.0528837
0.0303584
0.0256008
0.00750779
0.00164279
0.00661708
0.00209466
0.00398616
0.00154134
0.000946244
0
0
0
0
0
0
0
0
0
0
0
0
0
0
0
0
0.000383313
0.000322669
0.000373634
0.000212772
0.000339493
0.000242294
0.000653721
0.0007875
0.00122073
0.000703633
0.000592575
0.000736082
0.000215683
0.00042771
0.000399911
0.000594905
0.000994917
0.000255609
0.00047654
0.0011734
0.000918856
0.00167812
0
0.0097847
0.012024
0
0
0
0
0
0.000355488
0.00838924
0
0
0
0
0
0
0
0
0
0
0
0
0
0
0.437039
0
0.00964193
0.00390077
0.00240401
0.00171885
0.000539898
0.000981754
0.000573871
0.000404711
0.000534878
0.000292954
0.000362317
2.51332e-05
0.000763491
0.00295104
0.00314292
0.000680164
0.00459511
0.00287328
0.0057682
0.0119515
0.00834467
0.00999795
0.0713129
0.0756969
0
0
0.0312958
0.259627
0
0.0241068
0.053903
0.00916877
0
0
0
0
0
0
0
0
0
0
0
0.00375853
0.0019009
0.00322975
0.00566742
0.0029381
0.000198372
0.00309098
0.00260394
0.0035748
0.00916518
0.00181982
0.00138945
0.0307918
0.204583
0.00469959
0.00270724
0.00456125
0.000928018
0.00808725
0.00668692
0.0041042
0.00548228
0.00319273
0.00467899
0.00491073
0.00656467
0.0120061
0.0165914
0.00775449
0.00290271
0.0743843
0.00154315
0.0418396
0
0
0.00602749
0.00161934
0.003485
0.00950883
0.00481137
0.00596872
0.00715112
0.00195334
0.00514107
0.00445414
0.0072734
0.00391621
0.0105456
0.00499821
0.00212669
0.00435771
0.00118545
0.00398469
0.00360472
0.00674007
0.0121597
0.00274317
0.00610486
0.00725265
0.00586834
0.0048073
0.00881882
0.00515752
0.000958692
0.00371386
0.00178529
0.00556674
0.00112503
0.00261184
0.00160111
0.00044241
0.000646418
0.00143001
0.000141237
0.000910812
0.00097268
0.000713924
0.00127281
0.000392298
0.000835803
0.000682012
0.00187342
0.0072032
0.00932523
0.00103595
0.00186008
0
0
0.0744381
0.0188274
0.0280069
0.00835327
0.0114128
0.0209407
0.0231958
0.0804153
0
0
0
0
0
0
0
0
0
0
0
0
0
0
0
0
0
0
0
0
0
0
0
0
0
0
0.00864576
0
0.00026127
0
0.00378922
0.00938264
0
0
0
0
0
0
0
0
0
0
0
0
0
0
7.72617e-05
0.000360265
0.000477195
0.000100975
0.000210038
0.000197436
0.000668868
0.000117189
0.000320608
0.000296836
0.000708759
0.000394202
0.000468992
0.000557075
0.000671572
0.000505728
0.000638489
0.000489187
0.000737966
0.000641867
0.000628778
0.000926134
0
0
0
0
0
0
0
0
0
0
0
0
0
0
0
0
0
0
0
0
0
0
0
0
0
0
0
0
0
0
0
0
0
0
0.00415821
0.0974674
0.001354
0.00538827
0.00272109
0.000524427
0.00101481
0.000307154
0.000308387
0.000537519
0.000507013
0.000198343
0.000293415
0.000431382
0.00302379
0
0
0
0
0
0
0
0
0
0
0
0
0
0
0
0
0.00125039
0.00258093
0.00150397
0.00147929
0.0228234
0.00939293
0.0774095
0.20878
0
0
0
0
0
0
0
0
0
0
0
0
0
0
0
0
0
0
0
0
0
0
0
0
0.000297327
0.000497145
0.00129343
0.000764406
0.00175138
0.00144261
0.000792326
0.000521064
0.00059036
0.000911001
0.00495216
0.00468118
0.00241378
0.00136299
0.00504202
0.0079336
0.00464078
0.00900925
0
0.132918
0.0431476
0
0.00781091
0.0100692
0.00247378
0.013554
0.0122396
0.0122444
0.00660665
0.00524384
0.105601
0.0500098
0
0.026512
0.0428838
0.166026
0
0
0
0
0
0.183839
0.00681586
0.211982
0.00226544
0.000435664
0.00321985
0.00523197
0.00600815
0.00292979
0.0038688
0.00431893
0.00320531
0.00167202
0.000599948
0.000964254
0.00328248
0.00363384
0.00175276
0.00413993
0.00252115
0.000849606
0.00282982
0.00108204
0.0039933
0.00470872
0.00527256
0.0022101
0.00477573
0.00212749
0.0018514
0.0023806
0.0017252
0.00207256
0.000905567
0.00156144
0.000881607
0.000985432
0.000773504
0.00118372
0.00066934
0.000409647
0.000426992
0.000443996
0.000816901
0.000636718
0.000711077
0.000961584
0.000662291
0.00068302
0.000535945
0.000412631
0.000413788
0.000324819
0.000380263
0.00039864
0.000332619
0.000420808
0.000376455
0.00037451
0.000304878
0.000336854
0.000302889
0.000304812
0.000313338
0.000380705
0.000295382
0.000390893
0.000271337
0.000431313
0.000289288
0.000320971
0.000309999
0.000376996
0.000360411
0.000301088
0.000363292
0.000404014
0.000396666
0.000274777
0.000328264
0.0139153
0.0072467
0.00156214
0.00186738
0.00207157
0.00114476
0.00281724
0.460636
0.00139882
0
0
0
0
0
0
0
0.176051
0
5.20511
0
0
0
0
0
0
0
0
0
0
0
0
0
0
0
0.00741648
0
0
0
0
0
0
0
0
0.00923391
0
0
0
0
0
0
0
0
0
0
0
0
0
0
0.0027179
0.000277303
0
0
0.000752255
0
0
0
0
0
0.01215
0.00617369
0
0.0148197
0
0
0
0
0
0
0
0
0
0
0
0
0
0
0
0
0
0
0
0
0.0115168
0
0
0.000364712
0.000161656
0.00022479
0.000600566
0.00023539
4.48257e-05
0.000372495
0.000829107
0.00048917
0.000481564
8.90668e-05
0.000494969
0.000754918
0.000540216
0.00113109
0.00130119
0.00165947
0.000525168
0.0011248
0.000378667
0.00109536
0.000436576
0
0
0.0047607
0.00346142
0
0
0
0
0.00813239
0
0
0
0
0
0
0
0
0
0
0
0
0
0.0104452
0.00854096
0
0
0
0
0.124823
0
0.00474286
0.00216319
0.00250898
0.00132733
0.00181353
0.000751742
0.000638997
0.00105823
0.000526756
0.000884174
0.000767205
0.00048164
0.000528299
0.000486201
0.00288602
0
0
0
0
0.000125424
0
0
5.94898e-05
0
0
0
0
0
0
0
0
0
0
0
0
0
0
0
0.47767
0
0.000571199
0.0010258
0.00292801
0.00985769
0
0
0
0
0
0.00463588
0
0
0
0
0
0
0
0
0.0612452
0.0530551
0
0
0
0
0
0
0
0
0
0
0.00131827
0
0.000608872
0.000961099
0.00133333
0.00127303
0.00164797
0.00172858
0.000703427
0.00102459
0.000641446
0.000333465
0.000594321
0.00071661
0.000352418
0.000458997
0.000514695
0.000414364
0.000340939
0.000390983
0.000337097
0.000465952
0.000455381
0.000375964
0.000394733
0.000465071
0.000305554
0.000421831
0.000364824
0.000298248
0.000484168
0.000459357
0.00401313
0.00592723
0.00042588
0.00177987
0.00714777
0.0199516
0.00736357
0.00178758
0
0.0319002
0
0.544316
0
0.00373206
0.0202712
0.018134
0.0133553
0.0138777
0.0871656
3.78184
0
0
0
0
0
0
0
0
0
0
0
0
0.0440551
0
0.00546264
0.0465809
0.0130996
0.0113666
0.00421448
0.0111016
0.00536845
0.000393481
0.00345351
0.00406448
0.00478318
0.00159495
0.00308988
0.00247554
0.00176547
0.00296658
0.00310266
0.000719336
0.00359745
0.00141713
0.00215034
0.00376852
0.00353222
0.00143873
0.00182467
0.00174807
0.00137951
0.00185466
0.00143468
0.00148112
0.000370347
0.00130165
0.00155519
0.000933247
0.00102496
0.00100624
0.000784955
0.000733884
0.000791402
0.000461104
0.000684544
0.00069364
0.000457784
0.000369559
0.000420948
0.000379421
0.000359682
0.000327815
0.000310789
0.000349996
0.000294842
0.000298748
0.000230012
0.00028458
0.000156124
0.000242142
0.000255677
0.000307097
0.000265374
0.000226302
0.000183299
0.000289265
0.000281822
0.000209465
0.00021753
0.000245758
0.000278435
0.000199651
0.000317553
0
0
0
0.00708955
0
0.0395624
0.00338118
0.0103096
0.00971421
0
0
0
0
0.36101
0
0
0
0
0
0.0162473
0.0124368
0
0
0
0.0555951
0
0
0
0
0.00333355
0.0233842
0
0
0
0.00903322
0
0
0
0
0
0
0
0.0101734
0
0
0
0
0
0
0
0
0.000132031
0
0
0
0
0
0
0
0
0
0
0
0
0
0
0.00047803
0
0
0
0
0
0
0
0
0
0
0
0
0
0
0
0
0
0
0.000471791
0.000347422
0.000380998
0.000593941
0.000545541
0.000102128
0.000363653
0.000237108
0.000600377
0.000952925
0.000547856
0.00054684
0.00136928
0.000804024
0.00283528
0.00228041
0.0121396
0.00113951
0.000256704
0.000127162
0.00117086
0.000661514
0.00270588
0
0.000134975
0
0
0
0
0
0
0
0
0
0
0
0
0
0
0
0
0
0
0
0
0
0
0
0
0
0.0187305
0
0.00360862
0.00173253
0.000979114
0.00117177
0.000811796
0.00120389
0.00116092
0.00068845
0.000967219
0.000524643
0.000372394
0.000347678
0.0004229
0.00087733
0
0
0
0
0
0
0
0
0
0
0
0
0
0
0
0
0
0
0
0
0
0
0.436974
0
0
0
0
0
0
0
0
0.0291575
0.0418084
0
0
0
0
0
0
0.0125399
0.0954699
0
0
0
0
0
0.00128364
0.00205719
0
0
0
0
0
0
0
0
0
0
0
0
0
0
0
0
0
0
7.17633e-05
3.06243e-05
0.000112423
3.01391e-05
5.45925e-05
6.99095e-05
0.00011832
0.000130346
5.73637e-05
7.15982e-05
0.000154164
0.00012749
4.37693e-05
3.61115e-05
0.000142111
0.000298867
0.000280667
0.00021583
3.58781e-05
0.000237868
0.000150084
0.000101691
3.80282e-05
4.97662e-05
0.000119731
4.23186e-05
7.52341e-05
7.06549e-05
0.00010533
0.000403813
0.000333983
0.000328012
0.000342447
0.000281022
0.000284795
0.000732713
0.000642728
0.00103397
0.00174847
0.00178325
0.00100131
0.000835311
0.000819457
0.000422951
0.000331111
0.000553813
0.000483015
0.000501236
0.000417015
0.000537795
0.0004505
0.000513963
0.000424359
0.000557654
0.000475399
0.000481886
0.000532704
0.000457899
0.000569966
0.000546483
0.000450822
0.000539309
0.000556883
0.000871064
0.00376173
0.00889136
0.0088451
0.00340279
0.0017385
0.00121375
0.0299813
0.00347629
0
0
0.00013556
0.000127341
8.46593e-05
4.78538e-06
6.65987e-05
3.05154e-05
3.87683e-05
4.54948e-05
2.90297e-05
7.08528e-05
5.81408e-05
5.83633e-05
9.6402e-06
2.43104e-05
2.41117e-05
0.000112921
8.35425e-05
7.65151e-05
0
0
0.00287616
0.0248852
0
0.0185753
0.215781
4.0787
0.00240554
0
0.00663705
0.0102773
0
0
0
0
0
0
0
0
0
0
0.0241622
0
0.0478786
0
0.00330851
0.0128026
0.00576658
0.0141043
0.00324128
0.00388847
0.00347214
0.000541573
0.000505508
0.00509575
0.00287611
0.00489674
0.00318379
0.00297521
0.00243788
0.00292722
0.00170063
0.00343286
0.00138721
0.00227189
0.00292119
0.00210674
0.00143157
0.00120706
0.000667097
0.000952413
0.00122087
0.00123566
0.0015362
0.00110301
0.00170218
0.00144841
0.00122059
0.00085352
0.000918101
0.000527331
0.000614936
0.000893498
0.000618854
0.000448224
0.000468509
0.00046715
0.000403096
0.000381306
0.000368778
0.000338053
0.000330388
0.000346888
0.000225547
0.000212109
0.000154175
0.000127112
0.000191577
0.000318839
6.44092e-05
0.000134105
0.000206396
0.000191423
0.000144871
0
0
0.796387
0
0
0
0
0
0
0
0
0
0
0
0.00855303
0
0
0
0
0.0260576
0
0
0
0
0
0
0
0
0.00368524
0.00412103
0.0243021
0
0.00180144
0
0
0
0
0
0
0
0
0
0.0134768
0
0
0
0
0
0
0
0
0.202387
0
0
0
0
0
0
0
0
0
0
0
0
0.00229099
0
0
0
0
0.00448301
0
0
0
0
0
0
0
0
0
0
0
0
0
0
0
0
0
0
0
0.00268976
0
0
0
0
0.00309284
0.000133387
0.000194552
6.38804e-05
7.99572e-05
0.000195589
8.46885e-05
0.000219808
0.000472514
0.000241887
6.51471e-05
0.000148402
0.000183655
0.000494347
0.000428498
0.000227171
0.00055924
0.000429841
0.00109002
0.00155783
0.000696374
0.00282268
0.00566632
0.00112494
0.000192838
0.00242613
0
0
0
0
0
0
0
0
0
0
0
0
0
0
0
0
0
0
0
0
0
0
0
0
0
0
0
0.0122496
0.00160887
0.000648341
0.00185869
0.000497927
0.000474795
0.000608076
0.000780484
0.00104035
0.000649225
0.000402426
0.00034826
0.000952335
0.000663318
0.00034919
0.000654106
0
0.00106585
0
0
0
0
0
0
0
0
0
0
0
0
0
0
0
0
0
0
0
0
0
0
0
0
0
0
0
0
0
0
0
0
0
0
0
0.0345467
0.00995925
0.0186872
0
0
0
0
0
0
0
0
0
0
0
0
0
0
0
0
0
0
0
0
0
0
0
0
0
0
0
0
0
0
0
0
0
0
1.45456e-05
7.35498e-05
0.000135753
0.000136125
0.000150977
0.000196603
0.000155532
0.000285859
0.000253083
0.00029825
0.0002939
0.00019008
0.000132054
0.000246282
1.07983e-05
0.00015366
0.000426093
0.000500236
0.000356604
0.000345585
0.000243147
0.000313845
0.000635048
0.000539549
0.000779918
0.000796212
0.00135275
0.000445089
0.000804854
0.000728585
0.000537413
0.000506471
0.000493339
0.000618116
0.000375122
0.000474768
0.000567643
0.000497774
0.000578365
0.000599668
0.000531867
0.000675505
0.000598449
0.000708366
0.00062563
0.000655363
0.000595653
0.000670065
0.000504756
0.000541363
0.000609485
0.000574576
0.000603981
0.019768
0.0135807
0.00293009
0.00146919
0.00561618
0.00324019
0.000234501
0.00143851
0.0103514
0.0569053
0
0.244015
0.000106629
0.000131893
0.000105588
9.09479e-05
5.33786e-05
3.58792e-05
7.8657e-05
4.75985e-05
4.69043e-05
4.00087e-05
2.37265e-05
1.75795e-05
3.55485e-05
7.49241e-05
4.14472e-05
9.28059e-05
0.00014784
7.16583e-05
9.75974e-05
0.000126427
7.71936e-05
0.000146359
0.00012099
0.000103448
0.000146817
0.00454811
0.0110661
0.00599708
0
0
8.91824
0
0
0
0
0
0
0
0.0104352
0
0.00488635
0
0
0
0
0.00407649
0
0
0
0.0311113
0.00499113
3.39862
0.0357951
0.00783021
0.0136361
0.00414962
0.00459152
0.00239741
0.00106648
0.00205146
0.0042657
0.00334378
0.00172017
0.00293472
0.00175281
0.0030065
0.00208058
0.00278821
0.00195735
0.00175125
0.00163773
0.00201578
0.00154994
0.0013714
0.00191541
0.00137063
0.00108735
0.0019826
0.00110734
0.001347
0.00139631
0.00124628
0.000738516
0.00083369
0.000662091
0.000525272
0.000712692
0.000499473
0.000491623
0.000485816
0.000424776
0.000452555
0.000373266
0.00037221
0.000346207
0.000330595
0.000238257
0.000256206
3.48109e-05
0.00010298
0.000113196
0.000260468
9.99597e-05
0.000168481
0.000306868
0.000210726
9.87604e-05
0
0
0
0
0
0
0
0
0
0
0
0
0
0
0
0
0
0
0
0
0
0
0
0
0
0
0.00502972
0
0.00915019
0.00234778
0
0
0
0
0
0
0
0
0
0
0
0
0.267091
0
0
0
0
0
0.0104132
0
0
3.12209
0
0
0
0.00445974
0.00411997
0
0
0
0
0
0
0
0.00224335
0.00381971
0
0
0.00504467
0.00116769
0
0
0
0
0.00756077
0
0.0104851
0
0
0
0
0
0
0
0
0
0
0
0
0
0
0
0
0
0.0046727
0
0
0
0
0
0
0
0
0.000232708
0.000118976
0.000172993
0.00031358
0.000129165
0.000102834
0.000105424
5.61357e-05
0.000162054
0.000127246
0.00053905
9.64965e-05
0.000222878
0.00035929
0.000538237
0.00036495
0.000496032
0.000363611
0.000382714
0.000329711
0.000258868
0.000936735
0.00121407
0.00225671
0.0108009
0.00306839
0.00878341
0
0
0
0
0
0
0
0.00634665
0.0483463
0
0
0
0
0
0
0
0
0
0
0.000115699
0
0
0
0
0
0.00117016
0.000190815
0.000586304
0.0022934
0.000660742
0.00143229
0.00179175
0.000426967
0.000488107
0.000386983
0.00047826
0.000820797
0.000505984
0.000728942
0.000664146
0.000402153
0
0
0.00100323
0
0
0
0
0.000205498
0
0
0
0.030866
0
0
0
0.0172474
0
0
0
0
0
0
0
0
0
0
0
0
0
0
0.016133
0
0
0
0
0
0
0
0
0
0
0
0
0
0
0.020295
0.0349819
0.00408516
0
0
0
0
0
0
0.00144226
0
0
0.000481997
0
0
0
0
0
0
0
0.00344809
0
0
0
0
0
0
0
0.00299432
0
0.00469306
0
0
0
0
0
0
0
0.00399922
0.000125752
5.91205e-05
9.28752e-05
4.09997e-05
0.00026076
0.00031745
0.000474474
0.00011038
0.000544966
0.00015056
0.000112443
0.000209594
4.08552e-05
5.60952e-05
0.000333544
0.000231867
0.000364552
0.000228343
0.00031131
0.000184262
0.000212138
0.000150011
0.000513447
0.000565813
0.000421727
0.000378187
0.000354803
0.000328677
0.000385117
0.000676411
0.000468437
0.000556216
0.000469715
0.00112862
0.000724322
0.000436859
0.000526525
0.000547636
0.00034042
0.000573807
0.000560703
0.00053053
0.000678873
0.000667113
0.000578666
0.000640317
0.000618371
0.000777817
0.000750996
0.000627238
0.000666392
0.000670995
0.000697637
0.000574326
0.0006616
0.000604231
0.000681206
0.000555286
0.00907993
0.0188815
0.00183438
3.18145e-05
0.00225661
0.00360418
0.00142825
0.000295221
0.0242831
0.00710652
0.0149311
0
0.000216791
0.000192269
0.000174711
0.000143059
0.000151028
0.00010802
0.00013492
0.000130252
0.000163051
8.22758e-05
4.69691e-05
5.03193e-05
6.65558e-05
4.75816e-05
9.06065e-05
0.000114637
0.000105466
0.000133608
0.000124175
0.00013796
9.44167e-05
0.000149558
0.000108458
9.51098e-05
9.3334e-05
0
0
0
0
0
0
0
0
0
0
0
0
0
0
0
0
0.00411958
0
0
0
0
0
0
0
0.00697945
0.0307344
0.0899648
0
0.0215285
0.00192194
0.0027759
0.00790539
0.00331813
0.00333704
0.00144407
0.00212475
0.00207594
0.00145346
0.00252907
0.00267327
0.00265934
0.00219281
0.00163117
0.00158904
0.00164408
0.00206756
0.00190582
0.00151528
0.00162912
0.00152005
0.00127
0.00118672
0.00143315
0.00126782
0.00066335
0.0011899
0.000953924
0.000808109
0.000886665
0.000686945
0.0006333
0.000547482
0.000512
0.000507301
0.000482655
0.000428196
0.000393543
0.000377956
0.000279942
0.00028958
4.77743e-05
8.52244e-05
0.000117853
0.000114559
0.000213428
0.000128299
0.000297011
0.000232476
0.000216901
0
0
0.129501
0.000210545
0
0
0
0
0
0
0
0.00253418
0
0.00391518
0.00822961
0.0176493
0.00291731
0
0.0278899
0.0135152
0
0
0
0.00484806
0
0.00909638
0.00443952
0
0
0
0
0
0
0
0
0.000250556
0
0
0
0
0
0
0.50706
0
0
0
0
0
0
0
0
0
0
0
0
0
0
0
0
0
0
0
0
0
0
0
0
0
0
0
0
0
0
0
0
0
0
0
0
0
0
0
0
0
0
0
0
0
0
0
0
0
0
0
0
0
0
0
0
0
0
0
0
0
0
0
0
0
0
0
0
0
0.000172137
0
0
0
0
0.000149395
0.000132567
0.000138604
0.000125928
5.56108e-05
9.67784e-05
0.000554233
0.000299336
9.19057e-05
0.00026791
0.000151406
0.000154601
6.83638e-05
0.000221487
0.000236126
0.0011947
0.000616551
0.000918018
0.000308819
0.000615443
0.000365952
8.90409e-05
0.000467538
0.00104216
0.00267998
0.00291102
0.00568888
0.00223222
0.0105714
0
0
0
0
0
0.0395972
0
0
0
0
0
0
0
0
0
0
0
0.00660985
0.0096042
0
0.00385925
0
0
0
0.000962347
0.000974453
0.000528148
0.000538968
0.00119775
0.0107652
0.00227723
0.00466948
0.000517572
0.00120786
5.98296e-05
0.00168364
0.00137928
0.000648868
0.00133268
0.000881059
0
0.0035561
0
0
0
0
0
0.000194207
0
0
0.000206512
0
0
0
0.00372439
0
0
0
0
0
0
0
0
0
0
0
0
0
0
0
0
0
0
0
0
0
0.00420463
0
0.0133252
0
0
0
0
0
0
0
0
0
0
0
0
0
0
0
0
0
0
0.0518657
0
0
0
0
0
0
0
0
0
0
0
0
0
0
0
0
0
0
0
0
0
0
0
0
0
0
0
0
0
0
0
0
0.00136576
0.00287449
0
0
0
0
0
0
0.00052303
5.29139e-05
0.000161602
0.000283883
0.000805788
0.000152122
0.000303299
0.000494685
0.00028198
0.000351285
7.29482e-05
9.37618e-05
0.000190014
0.000269521
0.000362789
0.000248481
0.000360124
0.000262718
0.000323846
4.66603e-05
0.000254207
0.000615357
0.000591453
0.000475518
0.000458232
0.000372081
0.000408216
0.000467187
0.000484304
0.000350083
0.000138043
0.000460895
0.000435042
0.000493098
0.000437843
0.000666996
0.000509978
0.000648186
0.000288142
0.000653551
0.000619913
0.000880703
0.000706925
0.000649715
0.000632219
0.000525951
0.000755923
0.000764534
0.000556576
0.000612101
0.000780371
0.000605527
0.000737145
0.000653083
0.000675152
0.000654667
0.000638039
0.014512
0.00479502
0.00136191
0.000852612
0.000167696
0.000805435
0.00098074
0.000711674
0.00571531
0.00659804
0.00880844
0
0
0
0
0.000255951
0.000211203
0.000130601
0.000214793
0.000155171
0.000154911
0.000172675
0.000166126
0.000149575
0.000150321
7.89157e-05
0.000137847
5.29367e-05
6.02958e-05
0.000127005
0.0001185
0.000100716
0.000131551
9.89768e-05
0.000132172
8.68095e-05
0.0001298
0.000130983
0.000127169
8.15715e-05
0.000167284
0
0
0
0
0
0.0065901
0.00892245
0
0
0
0
0.00426246
0.00580398
0
0
0
0
0
0
0
0
0
0
0
0
0.364602
0.0183753
0
0.00403837
0.0127113
0.00353512
0.00270798
0.00237541
0.00141988
0.00207126
0.00198295
0.00254655
0.00275784
0.00181662
0.00216372
0.00239979
0.00211303
0.00141712
0.00139607
0.00171704
0.00196089
0.00203014
0.00158299
0.00150362
0.00125681
0.00120818
0.00142213
0.00130169
0.0013175
0.000920868
0.00110531
0.00102533
0.00102234
0.000822504
0.000738318
0.000549931
0.00063078
0.000568241
0.000536052
0.0004595
0.000475462
0.000339831
0.000359925
0.000102617
9.38293e-05
0.000108303
5.62568e-05
0.000174214
0.000122051
0.000184212
0.000221191
0.000255424
0.00029349
0
0
0
0
0
0
0
0
0
0.0150198
0
0
0
0.0145405
0.0147991
0.0274446
0.0252046
0.0234556
0.15601
0
0
0
0
0
0
0
0
0
0
0
0
0
0
0
0
5.41157e-06
0
0
0
0.165096
0
0
0
0
0
0
0
0
0
0
0
0
0
0
0
0
0
0
0.0543692
0
0
0
0
0
0.00272155
0.00180757
0.00471842
0
0
0
0
0
0
0
0
0
0
0
0
0
0
0
0
0
0
0
0
0
0
0
0
0
0
0
0
0
0
0
0
0
0
0
0
0
0
0
0
0
0.00750946
0
0.00285047
0
0
0.00123619
0
0
0.000155736
0.000114714
0.000109128
0.000138451
0.000172346
0.000109058
8.16685e-05
0.000497564
0.000195691
0.000201164
7.31059e-05
8.00826e-05
1.65858e-05
0.000167291
0.000583913
0.00014283
0.000147353
0.000280576
0.000136931
0.000760953
0.00035406
0.000906727
0.0016017
0.00124296
0.000278913
0.000662079
0.0011497
0.00264215
0.00541585
0.0190601
0.0126347
0.0163838
0.0191077
0
0
0
0.0186826
0
0
0
0.0225212
0
0
0
0
0
0
0
0
0
0
0
0
0.0178299
0
0
0
0.000960864
0.000902979
0.000396037
0.000432329
0.00621199
0.00960446
0.00612127
0.00290387
0.000520171
0.00154862
0.00209984
0.00168898
0.00135191
0
0
0
0
0
0
0.00592671
0.0048084
0
0
0
0
0
0
0
0
0
0.0194728
0
0
0
0
0
0
0
0.00502093
0
0
0.0302493
0
0
0
0
0
0
0
0
0
0
0
0
0
0
0
0
0
0
0
0
0
0
0.00286894
0
0
0
0
0
0
0
0
0
0
0
0
0
0
0
0.000187351
0
0
0
0.00723749
0
0
0
0
0
0
0
0
0
0
0
0
0
0
0
0
0
0
0
0
0
0
0
0
0
0.0041843
0
0
0
0
0
0
0
0
0.000501336
0.000237971
0.000155871
0.000318757
0.00113429
0.000519453
0.000244893
9.08592e-05
0.000280758
0.000234915
3.78744e-05
0.000112938
0.000195785
0.000163213
0.000405102
0.000336253
0.000413936
0.000270328
0.000361674
0.000247436
0.000401254
0.00033652
0.000620315
0.000602287
0.000503078
0.000459706
0.000469273
0.000437872
0.000582585
0.000377229
0.000401052
0.000272904
0.00103645
0.000345727
0.000333773
0.00070879
0.000520791
0.000915909
0.000580591
0.000695921
0.000705427
0.000656219
0.000599383
0.000897488
0.000552415
0.000549244
0.000632739
0.000497056
0.000443107
0.000687154
0.000626245
0.000565738
0.000511643
0.000784832
0.000642286
0.000621865
0.00065392
0.00054713
0.00677333
0.00693081
0.00106945
0.00026116
0.00099001
0.00153373
0.00114991
0.000715263
0.0125848
0.0118174
0.016111
0.0095814
0
0.0209339
0.000248814
9.00646e-05
0.000195736
0.000142661
0.00020827
0.000151358
0.000181535
0.000143971
0.000150561
9.60054e-05
0.00011463
0.000116955
0.000174171
0.000124863
0.000139215
0.000100881
0.000128771
9.18605e-05
8.13231e-05
0.000120296
0.00019217
0.000160208
0.000173781
0.000158015
0.000146544
0
0
0
0
0
0
0
0
0
0.00471615
0
0
0
0
0
0.000206224
0.000176216
0
0
0
0
0
0
0
0
0.402436
0.156367
0.00829566
0.0115843
0.0033929
0.00425637
0.00106616
0.00334491
0.00434192
0.00303691
0.00337735
0.00350803
0.00290697
0.00186453
0.00192846
0.00251895
0.00194971
0.00153428
0.00142152
0.00118459
0.00188675
0.0021595
0.00141241
0.00141486
0.00120026
0.00107267
0.000974488
0.00131102
0.00109045
0.000801208
0.0010309
0.000906937
0.000891845
0.000694002
0.000629039
0.000613175
0.000576795
0.000520793
0.000504492
0.000398583
0.000361163
0.000168492
0.000123231
8.67146e-05
9.60101e-05
0.000138139
0.000154158
0.000177771
0.000174494
0.000202729
0.000216823
0.000242741
0.000221557
0
0
0
0
0
0
0
0
0
0.00179944
0
0
0
0
0
0
0
0.181924
0
0
0.172282
0
0
0
0.00540123
0
0
0
0
0
0.00182383
0
0
0
0
0
0
0
0
0
0
0
0
0
0
0
0.0057327
0.0096165
0.00903373
0
0
0
0
0.00375043
0
0
0.00448669
0
0
0
0
0.00727148
0
0.00151447
0
0
0
0
0
0
0
0
0
0
0
0
0
0
0
0
0
0
0
0
0
0
0
0
0
0
0
0
0
0
0
0
0
0
0
0
0
0
0
0
0
0
0
0
0
0
0
0
0
0
0
0
0
0.00306095
0
0
0
0.00047884
0
0
0.00017637
0.000189635
0.000117248
0.000152113
0.000181898
0.000129443
0.000113422
0.00016829
0.000188836
0.000331235
0.0002083
0.000146727
8.12075e-05
5.70121e-05
0.000149185
0.000166053
5.87009e-05
0.000266223
0.000204282
0.00035526
6.29144e-05
6.66934e-05
0.000226357
0.000124682
0.00306979
0.00288057
0.00406528
0.000494832
0.000538038
0.00510198
0.00465186
0.00458484
0.00166834
0.00547775
0.00429727
0.0132471
0.229331
0
0
0.026867
0.00745272
0
0
0.0039418
0
0
0
0
0.000341956
0
0
0
0.000156067
0
0
0
0.00164418
0
0
0
0
0.00176881
0.0021756
0.00361523
0.00120779
0.0102098
0.00808724
0.00285617
0.00320042
0.000582241
0.00193396
0.00119365
0.0114664
0
0
0.00516722
0
0
0.00450139
0.00481938
0
0
0
0
0
0
0
0
0.0454881
0.0572651
0
0
0.0270415
0
0.00266881
0
0
0
0
0.62565
0
0.00702336
0.064188
0
0
0
0
0
0
0
0
0
0
0
0
0
0
0
0
0
0
0.0221032
0
0
0
0.015484
0
0
0
0
0
0
0
0
0
0
0
0
0
0
0
0
0
0
0
0
0
0
0.00196805
0.00471668
0
0
0
0
0
0
0
0
0.00185278
0
0
0
0
0
0
0.00125186
0
0
0
0
0
0
0
0
0
0
0
0
0
0
0.00688776
0
0
0
0
0
0
0
0
0
0.000308247
0.000127284
0.000380425
9.92987e-05
0.000345565
0.000159401
0.000192432
6.18286e-05
3.20789e-05
0.000126934
8.11301e-05
0.000221404
0.000157929
0.000174166
0.0001968
0.000443835
0.000452316
0.000396952
0.000464819
0.000362032
0.000450233
0.000360286
0.000279513
0.000401719
0.000568655
0.000587849
0.000557809
0.000487692
0.000549287
0.000536567
0.000822859
0.00019343
0.000246201
0.00120894
0.000326642
0.000529623
0.000411667
0.000793977
0.000513702
0.000773451
0.000634843
0.000526331
0.000502162
0.000549422
0.000339213
0.000335755
0.000385668
0.000414766
0.000214948
0.000437107
0.000605913
0.000545236
0.000428664
0.000563181
0.000500573
0.000535415
0.000540724
0.000602627
0.00449851
0.0146286
0.00132471
0.000810319
0.00435057
0.00247903
0.000458595
0.00216887
0.00712493
0.0137236
0.00648253
0.0152829
0.0083281
0.00568677
0.000258181
0.000142104
0.000191946
0.000129222
0.000141511
0.000159411
0.000201645
0.000140618
0.000151958
0.000137028
0.000131316
0.000163504
0.000121898
0.000138563
0.000143469
8.94827e-05
0.000121341
0.000145816
0.000112673
0.000131959
0.00014113
0.000197029
7.81172e-05
0.000126995
0.00833037
0.0148584
0.0130237
0
0
0
0
0
0
0
0
0
0
0
0
0
0
0
0
0.00424298
0.00519822
0
0
0
0
0.0179049
0.0143903
0.00836667
0.00905623
0.00381021
0.0096679
0.00538335
0.00355375
0.00333295
0.00367011
0.00445221
0.00349553
0.00247735
0.00233108
0.00226057
0.00220091
0.00216196
0.00197588
0.00174851
0.00171552
0.00115313
0.00181087
0.00128441
0.00157545
0.00146428
0.000884829
0.000937642
0.00117202
0.00105226
0.000841213
0.0010505
0.000793654
0.000811476
0.000700122
0.000659197
0.000650171
0.000553714
0.00047743
0.000378394
0.000259894
0.000145477
9.65337e-05
0.000109711
0.000154629
0.000144013
0.000150282
0.000168356
0.00021357
0.000198426
0.000208816
0.000210594
0.000207099
0.000128974
0.00929491
0.00658318
0
0
0
0
0
0
0
0
0
0.000813622
0
0.00114605
0
0.00373263
0.00574323
0
0
0
0
0
0
0
0
0
0
0
0
0.00243597
0
0
0
0
0
0
0
0
0.0114477
0.00676329
0
0
0.00619139
0
0
0
0.00537028
0
0
0
0
0
0
0
0.0179794
0
0
0
0
0
0
0
0
0
0
0.00132985
0
0
0
0
0
0
0
0
0
0.000129388
0
0
0
0
0.000654885
0
0
0
0
0
0
0
0
0
0
0
0
0
0
0
0
0
0
0
0
0
0
0
0
0
0
0
0
0
0
0
0
0
0
0
0
0
0
0
0
0
0
0
0
0
9.23477e-05
1.30908e-05
6.69941e-05
0.000131988
4.63806e-05
9.22633e-05
0.000126597
0.00014349
0.000145829
0.000168082
7.45753e-05
0.000198221
0.000143513
8.99874e-05
3.32205e-05
0.000130113
0.000142303
0.000110743
0.000254746
8.26193e-05
0.000175221
0.000271033
0.000229653
3.11562e-05
7.40348e-05
0.000110645
0.000229656
0.00783471
0.00796704
0.00750655
0.00142822
0.00446338
0.00255812
0.00118937
0.00292513
0.0488895
0.00674014
0
0
0
0.0130793
0.0203701
0
0
0
0.0128655
0
0
0
0
0
8.48267e-05
0
0.0013589
0
0
0.00440799
0
0
0
0
0
0
0.00403825
0.00860431
0.0154382