/*--------------------------------*- C++ -*----------------------------------*\
  =========                 |
  \\      /  F ield         | OpenFOAM: The Open Source CFD Toolbox
   \\    /   O peration     | Website:  https://openfoam.org
    \\  /    A nd           | Version:  8
     \\/     M anipulation  |
\*---------------------------------------------------------------------------*/
FoamFile
{
    version     2.0;
    format      ascii;
    class       volScalarField;
    location    "19740";
    object      H;
}
// * * * * * * * * * * * * * * * * * * * * * * * * * * * * * * * * * * * * * //

dimensions      [0 1 0 0 0 0 0];

internalField   nonuniform List<scalar> 
526318
(
1.79918
1.77049
1.84802
1.75487
1.83023
1.77049
1.80493
1.70184
1.76963
1.64608
1.63107
1.76074
1.70109
1.75107
1.69886
1.73653
1.69301
1.89415
1.81799
1.84949
1.85883
1.80737
1.56392
1.80237
1.69598
1.55294
1.82327
1.82495
1.82066
1.84297
1.85835
1.91894
1.90053
1.77827
1.78678
1.71303
1.74079
1.84381
1.77325
1.72403
1.78638
1.73426
1.41462
1.46687
1.36954
1.42563
1.39004
1.53061
1.69662
1.60507
1.682
1.6738
1.63218
1.6007
1.1021
1.33852
1.34322
1.13146
1.86034
1.86759
1.88703
1.85061
1.78518
1.90788
1.91512
1.85124
1.85562
1.85191
1.74855
1.73654
1.85961
1.64215
1.69343
1.58701
1.54758
1.53916
1.6339
1.63509
1.53504
1.5837
1.65588
1.66007
1.61575
1.5748
1.60242
1.66881
1.67372
1.65376
1.59747
1.66872
1.57164
1.52257
1.51866
1.45309
1.44466
1.4531
1.44595
1.44413
1.43934
1.44267
0.882094
0.822177
0.909406
0.943791
1.01168
0.79089
1.35855
1.1654
1.48633
1.44356
1.48052
1.60086
1.82156
1.72396
1.82963
1.83667
1.91127
1.8744
1.92081
1.44551
1.44018
1.44293
1.44409
1.40033
1.43758
1.35381
1.3944
1.3072
1.35244
1.3026
1.30566
1.2951
1.26824
1.26314
1.28874
1.23095
1.28538
1.23468
1.25511
1.19781
1.20693
1.22775
1.2547
1.23898
1.1994
1.19675
1.21531
1.19482
1.19638
1.205
1.2154
1.20557
1.2175
1.20485
1.21133
1.16444
1.19805
1.21707
1.16664
1.13296
1.20197
1.15915
1.22576
1.71997
1.80506
1.74933
1.73977
1.5369
1.60307
1.53103
1.53543
1.53452
1.541
1.55528
1.53613
1.4713
1.44016
1.40988
1.34819
1.40829
1.44882
1.44735
1.45187
1.33867
1.39073
1.27481
1.28449
1.29632
1.28559
1.28779
1.29113
1.28207
1.28117
1.27692
1.26847
1.24905
1.27118
1.26294
1.23683
1.21527
1.24201
1.22103
1.213
1.2382
1.23298
1.22418
1.19548
1.2082
1.24819
1.24156
1.68485
1.69811
1.73927
1.69176
1.7064
1.68395
1.67838
1.59081
1.59557
1.3584
1.33083
1.32992
1.4472
1.6025
1.45886
1.50883
1.49642
1.4515
1.42025
0.941615
0.737294
1.0741
1.28233
0.534365
0.368217
0.672157
0.769748
0.737539
0.73733
1.91197
1.87723
1.93185
1.92914
1.89945
1.89801
1.79473
1.88642
1.72231
1.66859
1.66885
1.66974
1.67324
1.67322
1.6531
1.65877
1.57375
1.63838
1.45777
1.51259
1.43924
1.45239
0.253563
0.176996
0.63806
0.416072
0.921325
0.863428
0.920737
1.07408
1.4539
1.26588
1.49365
1.50645
1.61462
1.71347
1.83167
1.83422
1.8898
1.86275
1.91577
1.95296
1.42089
1.41914
1.37858
1.35515
1.25238
1.28541
1.21509
1.22316
1.21581
1.2081
1.19421
1.20576
1.12922
1.15621
1.18629
1.22511
1.2791
1.24744
1.20849
1.20568
1.1415
1.13183
1.18174
1.23519
1.16047
1.19889
1.19847
1.15947
1.16021
1.13563
1.1283
1.08931
1.0874
1.09161
1.08073
1.20386
1.24109
1.20604
1.24692
1.60087
1.56016
1.45908
1.55277
1.47066
1.52578
1.53134
1.52698
1.53262
1.53387
1.44443
1.36383
1.29197
1.27173
1.35007
1.28885
1.27818
1.38998
1.27727
1.32891
1.26608
1.26777
1.27825
1.26902
1.28133
1.27536
1.27468
1.27994
1.27825
1.27646
1.286
1.27987
1.29143
1.29009
1.29331
1.27012
1.28334
1.26654
1.24088
1.24241
1.26719
1.29806
1.29339
1.26781
1.24802
1.27468
1.31721
1.31809
1.32784
1.28933
1.32268
1.34112
1.3796
1.32951
1.33408
1.35995
1.39242
1.49996
1.61514
1.51362
1.56892
1.64578
1.68996
1.60646
1.46944
1.57953
1.46057
1.48722
1.22759
1.16918
1.19812
1.18618
1.30607
1.41834
1.35414
1.42703
1.42481
1.43717
1.4331
0.702177
0.847699
1.0021
0.838481
1.08298
0.966192
0.103964
0.250971
0.19062
0.111735
0.0261192
0.26409
0.487888
0.729998
0.615615
0.639247
1.94528
1.91806
1.94893
1.9517
1.92614
1.89888
1.8211
1.73837
1.66249
1.68013
1.65638
1.66209
1.63601
1.63539
1.61848
1.61835
1.56922
1.61297
1.53362
1.47287
1.42196
1.38341
0.000946659
0.00107001
0.00107001
0.000663073
0.000638172
0.000731205
0.000579203
0.00107
0.00107002
0.00107001
0.098581
0.000800568
0.0006355
0.000574373
0.0672242
7.07851e-05
0.150163
0.260551
0.259726
0.428704
0.886703
0.672283
0.987255
0.96152
1.15565
1.00477
1.36806
1.52604
1.53985
1.63566
1.8456
1.74632
1.86206
1.86627
1.87718
1.89274
1.94796
1.96731
1.33781
1.33922
1.29468
1.31873
1.25876
1.22434
1.21381
1.21423
1.20659
1.21593
1.16747
1.15566
1.10988
1.11818
1.17956
1.14757
1.12253
1.1684
1.16133
1.18105
1.09235
1.08201
1.10516
1.11684
1.11672
1.07345
1.07493
1.07434
1.0785
1.06248
1.06098
1.3596
1.33498
1.33489
1.33452
1.35354
1.46258
1.41867
1.39615
1.28223
1.32546
1.31022
1.31519
1.21365
1.15104
1.33082
1.44591
1.3359
1.33586
1.31409
1.40191
1.37407
1.44973
1.48427
1.40826
1.38863
1.42759
1.30243
1.27349
1.27199
1.27518
1.19069
1.24185
1.1679
1.11918
1.10239
1.21989
1.22033
1.26761
1.26647
1.26523
1.26784
1.26767
1.2726
1.26873
1.2792
1.27313
1.28923
1.28506
1.29053
1.29129
1.31399
1.30163
1.32748
1.33194
1.28277
1.26288
1.32615
1.3089
1.3007
1.31581
1.3017
1.28783
1.34033
1.31713
1.41717
1.4287
1.37932
1.4195
1.42603
1.39567
1.48702
1.45506
1.52384
1.54619
1.56883
1.48995
1.48323
1.50378
1.431
1.40077
1.3791
1.47387
1.33611
1.31092
1.3658
1.38453
1.06688
1.11718
1.20043
1.32088
1.35389
1.38642
1.29064
1.25581
1.21628
1.16511
0.527552
0.612321
0.888536
0.687491
1.00033
1.0687
0.0384684
0.000789239
0.0292982
0.027192
0.167486
0.000985849
0.550899
0.315254
0.468574
0.476077
0.000766556
0.000551352
0.000138864
0.000388285
0.000808471
0.00101
0.000142665
0.000999779
0.000889121
0.000419504
0.00114061
0.000754585
0.000999424
0.00114046
0.00114045
0.00114046
0.000938427
0.000999494
0.0009727
0.000201819
9.59135e-05
0.000989075
0.000892979
0.0009482
0.00100959
0.000881287
0.00100965
0.000996543
2.65749e-05
0.000931251
1.92462
1.93206
1.94361
1.94284
1.91372
1.84114
1.6821
1.75327
1.63996
1.63742
1.61909
1.61857
1.613
1.61315
1.59857
1.6069
1.54917
1.5248
1.41977
1.46428
1.31908
1.35792
0.000902499
0.000636742
0.000948563
0.000967574
0.000969466
0.000982262
0.000987311
0.000870723
0.00101
0.000972438
0.000677989
0.000965569
0.000971308
0.000759356
0.000380116
0.000991326
0.000690401
0.00100737
0.000803925
0.000839513
0.000369052
0.000975289
0.000834236
0.000216527
0.0383285
0.187612
0.35189
0.33263
0.389617
0.575872
1.02789
0.829729
1.04504
1.04399
1.34207
1.17254
1.54639
1.50523
1.57557
1.67449
1.79061
1.86247
1.87103
1.86154
1.90497
1.9335
1.92469
1.93446
0.00113168
0.00087413
0.000886173
0.000212348
0.000705089
0.000987943
0.00081396
0.000939386
0.000890554
0.000725685
0.000975785
0.00092383
0.000794854
2.99799e-07
0.000880516
0.00101
0.000170373
1.31849
1.32078
1.3188
1.28594
1.20676
1.24062
1.16477
1.1579
1.12078
1.11723
1.07289
1.06804
1.10236
1.09953
1.05907
1.09363
1.08874
1.13839
1.1201
1.1199
1.04235
1.01351
1.01444
1.05603
1.06174
1.06315
1.03879
1.0422
1.00426
0.992709
0.955925
0.964242
1.55571
1.52466
1.56417
1.57543
1.5234
1.48046
1.65015
1.67049
1.73539
1.74459
1.29273
1.33409
1.38429
1.46783
1.28983
1.23605
1.27171
1.27082
1.109
1.16321
1.21116
1.1007
1.3158
1.3141
1.31343
1.31801
1.33758
1.31598
1.32871
1.3433
1.22298
1.2191
1.11686
1.20542
1.19783
1.15381
1.10774
1.1246
1.06529
1.08495
1.06904
1.15385
1.21368
1.14641
1.21462
1.26643
1.26582
1.26493
1.2685
1.26865
1.28949
1.28493
1.30068
1.29499
1.31615
1.3101
1.33059
1.33205
1.33518
1.32974
1.34459
1.33556
1.3792
1.35122
1.31805
1.31676
1.38729
1.34904
1.36063
1.39537
1.43709
1.43684
1.43673
1.43682
1.46377
1.52274
1.58016
1.60248
1.61001
1.58893
1.73255
1.66927
1.79803
1.83885
1.83009
1.86916
1.92646
1.78988
1.87495
1.89983
1.97343
2.02316
2.04966
2.06879
2.0981
2.04447
2.09998
2.05822
2.13599
2.13506
2.18639
2.15458
2.21591
2.24618
2.23504
2.18415
2.2493
2.27244
2.23825
2.23569
2.30019
2.27698
2.30849
2.24952
2.24894
2.31237
2.27998
2.2335
2.23335
2.26454
2.29735
1.2858
1.25613
1.41976
1.43419
1.391
1.39848
1.41093
1.16325
1.29448
0.992731
1.01867
1.11414
1.10572
0.976745
1.05917
1.0475
1.22026
1.1247
1.12503
1.03117
1.03006
1.04133
1.05784
0.58895
0.458721
0.860561
0.649083
0.858015
0.806448
0.00101
0.000500198
0.000995857
0.000365548
0.000245957
5.12518e-07
0.189375
0.42142
0.331146
0.357234
0.000239661
0.00069126
0.000943677
0.000831092
0.00136233
0.000480705
0.00012748
0.000146108
0.000949
0.000431299
6.93167e-06
1.61879e-05
0.000990101
0.00093513
0.00100829
0.000624088
0.000911134
0.000410555
0.0010095
0.00096043
0.000954824
0.0010199
0.000714745
0.00101527
0.000974989
0.000913171
0.00101
0.00057983
0.00103872
0.000875244
0.00103848
0.00103762
0.000979836
0.00103762
0.0010366
0.00103802
0.000480078
0.000554177
0.000993933
0.000773625
0.000877713
0.00099375
0.000922247
0.000776475
0.0010078
0.000994205
0.000136415
0.000956593
0.000950381
0.000921886
0.000915695
0.000919934
0.000616217
0.00101
0.000623175
0.000968314
1.90497
1.90909
1.87131
1.88011
1.78646
1.86244
1.67841
1.62603
1.61049
1.60586
1.61651
1.61135
1.54647
1.55466
1.40177
1.35955
1.31929
1.49379
1.49526
1.43736
1.4428
1.44148
0.00081225
0.000371055
0.00113643
0.00113642
0.000962471
0.000414864
0.00093308
0.000410365
0.00113643
0.000901895
0.000161511
0.00100893
0.000972717
0.000941946
0.000297472
0.000985833
0.00068749
0.00091818
0.000705622
0.0279701
0.414479
0.242777
0.449884
0.447008
0.691818
0.496332
0.889845
1.04521
1.17183
1.04411
1.34183
1.49856
1.5452
1.56427
1.64175
1.75915
1.82912
1.80694
1.85771
1.78857
1.82605
1.87817
1.82999
1.82269
0.00101
0.000865295
0.00100993
0.000849207
0.000924318
0.00119127
0.000760203
0.000802089
0.00119126
0.000964874
0.000981161
0.000996251
6.32091e-08
1.51015e-05
0.00101
0.000411253
1.03799e-25
0.00072123
0.00101
0.000253336
0.000277025
0.000765241
0.00096459
0.000879022
0.00221069
0.00101043
1.29498
1.2924
1.21469
1.23026
1.10906
1.1308
1.06891
1.06762
1.06526
1.06864
1.03921
1.04234
1.01772
1.01686
0.992472
1.03386
1.11304
1.0712
1.10981
1.11264
0.932393
0.955321
0.995997
0.973572
0.980281
0.984097
0.930772
0.924507
0.910066
0.924119
0.933264
0.929442
1.78102
1.78062
1.60795
1.52122
1.50854
1.49731
1.77792
1.69006
1.93796
2.01342
1.90913
1.83348
2.02569
2.00948
2.07537
2.12317
2.15237
2.15269
2.18066
2.15395
2.20883
2.23551
2.23046
2.2306
2.24607
2.23326
2.23237
2.27846
2.22325
2.21963
1.34283
1.27056
1.41415
1.48474
1.27058
1.2162
1.27177
1.26982
1.09815
1.15409
0.990251
1.15122
1.03975
1.3165
1.26038
1.30978
1.30523
1.31758
1.21033
1.1114
1.03519
1.01915
1.03395
1.073
1.00124
0.983723
0.909799
1.00254
1.07846
1.07477
0.991704
1.094
1.16286
1.10669
1.21265
1.15931
1.20136
1.25734
1.29417
1.27144
1.30433
1.30222
1.31557
1.30596
1.33903
1.34994
1.35105
1.36245
1.36677
1.37046
1.4039
1.41625
1.40611
1.40302
1.40583
1.3991
1.41779
1.43029
1.47825
1.47137
1.43616
1.46715
1.46354
1.4956
1.5285
1.59081
1.6236
1.62087
1.63102
1.70498
1.7864
1.85969
1.87312
2.0009
1.87432
1.9241
2.0742
2.09975
2.09761
2.13709
2.18334
2.23497
2.24469
2.24861
2.27666
2.30368
2.3299
2.32857
2.32837
2.32909
2.32886
2.31023
2.24587
2.31037
2.2773
2.23186
2.23184
2.26293
2.29549
2.3052
2.2335
2.29392
2.25239
1.08015
1.07049
1.14595
1.21987
1.10662
1.1731
1.30377
1.24017
1.27093
1.1139
1.01233
0.982791
0.978927
1.08173
1.07171
0.736174
0.846899
1.03178
0.921584
1.02895
1.03241
1.04194
1.02894
1.04298
1.06655
0.256586
0.410739
0.507062
0.687723
0.708197
0.706644
0.00086849
0.000172666
0.000348616
0.00101
0.000283275
5.49851e-05
0.0371992
0.000664067
0.168327
0.000791331
0.000445227
0.00136217
0.000928609
0.00101
0.000965805
0.000660221
0.000998234
0.000701989
0.000938544
0.000874495
0.00105177
0.000942664
0.000791252
0.000751098
0.000990039
7.57449e-05
0.00099613
0.000976554
0.000151024
0.00058586
0.000544652
0.000936558
0.00085509
0.000974597
0.000946925
0.00100379
0.000978339
0.000944855
0.000974885
0.00092222
0.000207016
0.000979907
0.000919067
0.00101
0.000732523
0.00100962
0.000641972
0.000367709
0.000916152
0.000960434
0.00096593
0.000892128
0.0005771
0.000479733
1.83072
1.84003
1.81183
1.81901
1.73091
1.80396
1.61837
1.6766
1.56836
1.56998
1.51671
1.50183
1.44437
1.43792
1.35618
1.25316
1.23191
1.39914
1.4393
1.44545
1.44397
1.44475
0.00113649
0.000961646
0.00113649
0.000819314
0.000973634
0.000973647
0.00094649
0.000972052
0.00100548
0.000830393
0.000135327
0.000443538
0.00093376
0.000997208
0.00060297
0.00100999
0.000975205
3.14679e-05
0.00083661
0.129526
0.305152
0.444477
0.512288
0.472607
0.675249
0.855864
1.00771
1.04392
1.23915
1.07014
1.37234
1.51793
1.48141
1.59296
1.7644
1.667
1.7349
1.7346
1.74318
1.76288
1.80754
1.82247
1.81204
1.78318
0.000769413
0.000922585
0.000563688
0.000958878
0.000712787
0.000933944
0.000627141
0.000452485
0.0008213
0.000879841
0.000957505
0.000856862
0.000968979
3.46409e-24
0.000922039
0.000873917
0.00096514
0.000987798
0.000743529
0.00100999
0.000468733
1.06973e-10
0.00207369
0.000901385
0.00101
0.000860782
0.000668131
0.000489708
0.000816537
4.68689e-21
0.00098545
1.17011
1.16803
1.13268
1.11198
1.06791
1.09022
1.05689
1.05451
1.21155
1.15329
1.13344
0.982639
0.995207
0.926539
0.924468
0.994429
0.993201
0.984702
1.02663
1.08697
1.03796
1.07516
1.05729
0.95504
0.932707
0.94559
0.968304
0.889528
0.893645
0.894794
0.901798
0.920478
0.908362
0.871981
0.881794
2.35391
2.36567
2.39066
2.36797
2.4097
2.39614
2.41677
2.41455
2.47048
2.45647
2.4192
2.47403
2.44231
2.49408
2.32101
2.27354
2.29207
2.34104
2.32325
2.29231
2.29385
2.34805
2.35268
2.33237
2.30953
2.36104
2.34545
2.348
2.37704
2.23321
2.23261
2.23208
2.23205
2.2506
2.26993
1.82667
1.772
1.66633
1.57154
1.48588
1.5584
1.76069
1.74368
1.98381
2.00762
1.89476
1.9753
2.01514
2.06323
2.11107
2.15288
2.15019
2.15214
2.14843
2.17943
2.19143
2.21773
2.20484
2.20715
2.21177
2.22042
2.1993
2.19846
1.39334
1.32185
1.26407
1.2549
1.31271
1.48493
1.46429
1.19276
1.25085
1.12338
1.05602
2.33653
2.35785
2.37449
2.3815
2.38601
2.39704
2.40223
2.42842
2.41346
2.43221
2.43221
2.48089
2.50742
2.52853
2.5296
2.53136
2.54612
2.5698
1.03443
0.97935
0.979356
1.2398
1.12385
1.30158
1.20144
1.11825
1.01891
1.01977
1.02054
1.02045
0.874213
0.94874
0.801817
0.824362
0.905516
0.823451
1.08492
1.01833
0.912974
1.10953
1.10764
1.10855
1.16561
1.11949
1.24593
1.19427
1.27684
1.24578
1.28194
1.30722
1.32948
1.3537
1.37407
1.37287
1.38697
1.37819
1.43927
1.42239
1.42369
1.417
1.46735
1.44287
1.51062
1.47697
1.45697
1.49715
1.54336
1.52972
1.55312
1.58881
1.5902
1.53735
1.64478
1.67286
1.64466
1.63363
1.71566
1.80017
1.87256
1.94183
1.88945
1.90441
2.03302
2.09391
2.13549
2.11837
2.18164
2.21394
2.25466
2.26839
2.26331
2.28349
2.33949
2.32144
2.33002
2.34026
2.33086
2.32759
2.32757
2.32887
2.3268
2.32828
2.32714
1.06596
1.0556
1.08139
0.999753
1.0204
1.03872
0.975121
1.12086
1.02238
0.959685
0.975621
0.954529
0.858968
0.957658
0.978911
0.762086
0.748247
0.70742
0.815343
1.03172
0.920205
0.93086
0.925481
0.72322
0.602946
0.403563
0.429112
0.339769
0.162688
0.16786
0.706573
0.527041
0.686834
0.690225
0.000776109
0.00096702
0.000896738
0.000998449
0.000209931
0.000888291
0.00100984
7.8632e-05
0.158492
0.000750714
0.000398457
0.000668916
0.00101
0.000330569
0.000740386
6.49901e-21
1.19392e-13
0.00240078
0.000379096
0.000850418
0.000694792
0.000545923
0.000997667
0.0003892
0.00100993
0.000972649
0.000977525
0.000963111
0.000999516
0.000749301
0.00101272
0.000945375
0.000748155
0.000986505
0.00060571
0.00101325
0.00089779
0.000955844
0.000631827
0.000258775
0.000721544
0.000964465
0.000941166
0.000838222
0.00101
0.000334973
0.000769708
0.000685233
0.000978177
0.000925692
0.000935309
0.000876128
0.00091709
0.000695524
0.000567275
0.00217182
0.000161363
0.000674617
0.000835469
0.000885376
0.00217179
2.51569
2.49117
2.47583
2.56123
2.60399
2.59678
1.79771
1.79018
1.77965
1.77812
1.72446
1.77266
1.60384
1.52564
1.45856
1.47744
1.44817
1.44437
1.44435
1.43804
1.31696
1.23865
1.32928
1.40543
1.41053
0.00093523
0.000758195
0.000875173
0.000890082
0.000922295
0.0009764
0.000965395
0.000493094
0.000931051
0.000554111
0.00100943
0.000959595
0.000969088
1.00628
1.04152
1.06936
0.000653678
0.000485674
0.00723303
0.0132838
0.293249
0.178503
0.477453
0.498332
0.661103
0.52789
0.840158
1.21332
1.34557
1.45685
1.46988
1.78735
1.69868
1.71969
1.50329
1.59223
1.68235
1.72624
1.72491
1.72835
1.75524
1.7722
1.78787
0.000683237
0.0011764
0.000628458
0.000982796
0.000704864
0.000720222
0.00100904
0.000845157
0.000712301
0.000865554
0.000823186
0.000932446
0.000763197
0.000831138
0.000896425
0.000464554
0.000627663
0.00100504
0.000978863
0.000935387
0.000938185
0.000682923
0.000677014
0.000937995
0.000997599
0.000978674
0.000347723
0.000953032
0.000978459
0.000973622
0.00101
0.00100979
0.000838321
0.000978065
0.000644837
0.000954507
0.000811322
1.16653
1.20081
1.1918
1.13281
1.13217
1.10326
1.1258
0.991964
1.022
0.933792
0.932238
1.13816
1.1253
0.886022
0.885822
0.887932
0.889114
0.945242
0.924572
0.963109
0.908819
1.03233
0.983086
1.03102
1.04083
0.874699
0.828907
0.85258
0.884509
0.858067
0.856677
0.801481
0.837192
0.820363
0.799854
0.77803
0.778546
2.35338
2.36661
2.38937
2.41732
2.43094
2.4245
2.44832
2.43246
2.28625
2.28413
2.26809
2.28844
2.32296
2.28487
2.33604
2.30424
2.21992
2.20904
2.20689
2.23668
2.26603
2.24036
1.8316
1.75531
1.64863
1.73577
1.58422
1.49793
1.75005
1.75018
1.99144
1.99377
2.00959
1.90608
1.98305
2.09711
2.04194
1.98493
2.02736
2.12793
2.14194
2.13201
2.13836
2.14588
2.16917
2.19664
2.18641
2.19711
2.19717
2.19595
2.19688
2.19689
2.19656
1.23758
1.24165
1.38121
1.46244
1.24116
1.3225
1.47938
1.49261
1.23025
1.17356
1.08437
1.14987
2.36789
2.32698
2.34611
2.39242
2.38997
2.39216
2.40291
2.42434
2.4473
2.46022
2.4583
2.464
2.48541
2.52624
2.50958
2.52875
2.54857
2.59058
2.57065
2.39862
2.40922
2.42667
2.59503
2.59746
2.59848
0.979973
0.978535
0.977481
0.949659
1.05125
1.05999
0.866938
0.903288
0.938957
0.825718
0.867533
0.868741
0.799563
0.800975
0.802435
0.802123
0.831725
0.864526
0.963321
0.894959
0.892086
1.03914
1.11527
1.0255
1.18312
1.21143
1.14219
1.18292
1.24615
1.21235
1.3348
1.28045
1.35302
1.36618
1.3783
1.36274
1.41298
1.45285
1.49294
1.49436
1.49937
1.48135
1.51026
1.49191
1.54181
1.54288
1.56841
1.56931
1.54389
1.54369
1.66195
1.71171
1.61011
1.67144
1.72054
1.68323
1.78377
1.83051
1.9268
1.96758
1.94384
2.03517
2.0897
2.18743
2.17545
2.2346
2.20813
2.3031
2.30918
2.30233
2.32983
2.3589
2.35846
2.41286
2.37754
2.40402
2.36594
2.36437
2.4017
2.33145
2.36981
2.33216
0.438606
0.751413
0.442081
0.716436
0.993399
0.973364
0.975982
0.953579
0.974797
0.827861
0.725487
0.722081
0.621798
0.824937
0.698881
0.718553
0.850672
0.104377
0.109559
0.483412
0.611051
0.608475
0.401458
0.283405
0.288108
0.0767746
0.0808374
0.0955418
0.171659
0.161716
0.067334
0.254327
0.149762
0.407291
0.199077
0.122485
0.0010004
0.000112849
0.00044385
0.000919656
5.21296e-17
0.000297927
0.002245
3.64236e-06
0.00097676
0.0432606
0.0009581
0.000364482
0.00101
0.000172236
0.000994014
0.00221319
0.000973494
0.000134455
0.00096781
0.00100982
0.00136591
0.000347936
0.00100983
0.000979813
0.000465046
0.000983408
0.00101
0.000808151
0.00101276
0.0010127
0.000896998
0.000918854
0.00101268
0.00101275
0.000955402
0.000752642
0.000711032
0.000919589
0.00168447
6.22197e-05
0.00168438
0.000747595
0.00098702
0.000966821
0.00099923
0.00100984
0.00101
0.00100994
0.000799141
0.000805878
0.000827454
1.20946e-05
9.12481e-06
0
0.00090453
0.000799517
0.000430028
0.000830683
0.00136586
0.000898711
0.00100958
0.00100997
0.000711209
0.000998553
0.000946811
0.000914726
0.00101
2.45447
2.51794
2.50743
2.4894
2.52629
2.63031
2.60706
2.62271
2.63515
2.59361
1.7191
1.70443
1.6443
1.65197
1.59383
1.62677
1.53682
1.49919
1.47152
1.43315
1.4225
1.42606
1.32611
1.34001
1.2079
1.24638
1.25209
0.000529692
0.000965684
0.000913493
0.00101
0.000949844
0.000924031
0.000585991
1.03963
1.18117
1.04195
0.000658591
0.00021519
0.000901558
0.000979614
0.90892
0.739519
0.0788633
0.0219782
0.100743
0.207847
0.502524
0.363941
0.541011
0.539782
0.57341
1.57732
1.56153
1.61596
1.32249
1.46864
1.45936
1.49907
1.62805
1.69494
1.64934
1.55987
1.6454
1.68172
1.68042
1.59635
1.61056
0.000957717
0.000979664
0.00117643
0.00101
0.000636577
0.000823908
0.00101
0.00116907
0.000941664
0.000867935
0.000160682
0.000986054
0.000875008
0.000784345
0.000314928
0.000970585
0.000310646
0.000148742
0.000982444
0.00101
0.000771965
0.000895476
0.000833864
0.000976221
0.00092185
0.00100577
0
0
0
0.00065666
0.000796193
0.00101
0.00100563
0.000944429
0.000473953
0.000911195
0.000978965
0.000968087
0.00097325
0.000338297
0.00093345
0.000914242
0.000749814
0.000822171
8.02943e-05
1.1836
1.19721
1.205
1.07127
1.09477
1.05203
1.05264
0.979792
0.96933
0.884456
0.894443
0.884291
0.883377
0.986483
0.979686
0.832375
0.829087
0.795851
0.771782
0.87549
0.870041
0.894153
0.948056
1.0266
0.991414
1.05605
1.00976
0.813082
0.784101
0.845581
0.868743
0.740149
0.737862
0.716176
0.737612
0.779834
0.759595
0.77909
0.785356
2.35399
2.313
2.37698
2.35249
2.35623
2.39649
2.4193
2.45132
2.47708
2.47294
2.46428
2.3992
2.45843
2.42213
2.25171
2.25238
2.24191
2.25649
2.26831
2.27941
2.28027
2.28111
2.19425
2.19559
2.21735
2.20287
2.23271
2.24113
1.83362
1.75599
1.67491
1.74949
1.54655
1.63762
1.75143
1.75664
1.98213
1.98271
1.98471
1.91135
2.07172
2.11894
2.02973
1.98217
2.12456
2.12471
2.13887
2.12458
2.16187
2.18541
2.1935
2.19464
2.19421
2.19148
2.19625
2.19516
2.19353
2.19127
1.23603
1.2304
1.39981
1.4762
1.37805
1.29547
1.53185
1.4767
1.20799
1.22952
1.20111
1.11889
2.36837
2.40469
2.38725
2.41223
2.43186
2.42031
2.45596
2.46806
2.445
2.45973
2.44837
2.45843
2.46445
2.48872
2.51364
2.53026
2.52877
2.58018
2.55755
2.60674
2.61539
2.48211
2.49347
2.61259
2.62571
0.717004
0.878786
0.745962
0.854168
0.772501
0.745151
0.707444
0.675626
0.703296
0.735317
0.63681
0.682922
0.689282
0.578682
0.636041
0.779873
0.894125
0.809679
0.900778
0.899411
0.891608
0.96642
1.11109
1.0133
1.20029
1.20235
1.17003
1.11425
1.23916
1.28148
1.33877
1.32592
1.34951
1.33925
1.46046
1.40916
1.50837
1.50147
1.52811
1.53213
1.50504
1.56595
1.604
1.5812
1.5643
1.58895
1.64393
1.62471
1.60811
1.64887
1.73399
1.7338
1.72748
1.74809
1.87911
1.79459
1.9645
1.99021
1.9929
2.05714
2.13357
2.20944
2.21587
2.2303
2.27658
2.32552
2.35995
2.36123
2.3989
2.37217
2.42522
2.43997
2.43975
2.43954
2.43953
2.43818
2.4054
2.43948
2.4058
0.0927165
0.0832392
0.105446
0.0708324
0.383912
0.687551
0.375084
0.845227
0.715846
0.726842
0.565172
0.587366
0.589524
0.587098
0.592562
0.589886
0.592452
0.591947
0.590339
0.0992146
0.092457
0.000657149
0.0338055
0.0769655
0.0240239
0.0690152
0.0679075
0.0368125
0.0537965
1.9971e-06
0.000879144
0.000555123
2.43392e-10
2.18065e-15
0.000768598
0.00212099
2.96026e-06
0.000959982
0.00100986
0.000887496
0.000962023
0.000981212
0.00189031
0.000990856
3.90159e-05
1.36216e-05
0.000607696
0.000160516
0.000988249
0.000479144
0.000826696
0.000961729
0.00100941
0.00031059
5.4537e-05
0.000987756
0.00100992
0.000817418
0.000560979
0.000630872
0.00101
0.000799183
0.000974103
0.000279366
0.000905419
0.000941315
0.000821526
0.0010008
0.000939674
0.000880492
0.000886752
0.00100949
0.00097168
0.000773375
0.000984106
0.000952799
0.000448617
0.00098992
0.000934564
0.000964099
0.000974876
0.000974485
0.00101
0.00099424
0.000905098
0.000464111
0
0
0
0
0
0
0
0
0
0
0
0
0
0
0
0
0
0
0
0.00099334
0.000875056
0.000937661
0.000812305
0.000919955
0.000434354
0.000930589
0.0010629
0.000325168
0.000811332
0.000887902
0.000885277
2.66744
2.64985
2.66569
2.6775
2.6912
2.68058
2.50317
2.51981
2.58788
2.55143
2.62162
2.66046
2.61353
2.50897
2.43372
1.56586
1.56975
1.57409
1.56004
1.57317
1.51594
1.56337
1.3335
1.38912
1.25865
1.26426
1.20944
1.20599
1.20816
4.53839e-05
0.000617054
0.000495047
0.000982711
1.01272
1.20322
1.04122
0.000948865
0.000967043
0.994746
0.884456
0.000740072
0.0475995
0.00072537
0.000804281
0.582521
0.726388
0.109685
0.113535
0.253623
0.111776
0.544337
0.40253
0.551298
1.58806
1.57924
1.57725
1.58477
1.58132
1.29442
1.40103
1.35272
1.47071
1.52719
1.5497
1.48428
1.56193
1.51672
1.51141
1.51049
0.000497827
0.000719834
0.00094951
0.0010128
0.000458516
0.000411145
0.000652825
0.000370835
0.000608836
0.00269639
0.000759693
0.0270408
0.000879297
4.46658e-07
0.000834719
0.11365
0.110982
0.0495837
0.000977093
0.00107605
0.0514693
0.000986915
0.000740767
0.000908685
0.000621516
0.00100955
0.000627569
0.000973579
0.000348921
2.15212e-05
0
0
0
0
0
0.000889341
0.0010717
0.000978274
0.00107165
0.000594398
0.000548675
1.74823e-05
0.00107754
0.000956214
0.000154547
0.00093197
0.000953825
0.000977489
0.00684363
0.00583513
0.107392
0
0
0
0
0
0
1.1835
1.11281
1.10144
1.03126
1.02151
0.94174
0.924775
0.913821
0.915059
0.90472
0.914561
0.846012
0.855819
0.779542
0.766511
0.914226
0.922238
0.707077
0.701009
0.704119
0.710747
0.986538
1.05178
0.970227
0.870224
0.851577
0.927347
0.858694
0.941078
0.780704
0.751038
0.810448
0.766437
0.712942
0.71328
0.708291
0.730994
0.730856
0.702588
0.694668
0.677386
2.35989
2.30293
2.34736
2.34283
2.33416
2.38624
2.29991
2.35649
2.40019
2.43874
2.4979
2.45567
2.38248
2.24194
2.24049
2.26898
2.25542
2.28566
2.28061
2.30212
2.28911
2.19546
2.20167
2.22483
2.20864
2.22287
2.23169
1.87221
1.79388
1.71645
1.75193
1.70125
1.60783
1.78935
1.75265
1.98688
1.98701
1.94706
1.99167
2.07836
2.12698
1.98929
2.03615
2.1284
2.12733
2.15014
2.1297
2.17097
2.18965
2.18901
2.1883
2.18926
2.18836
2.1924
2.19095
2.18898
2.18868
1.22868
1.2885
1.47671
1.45307
1.37515
1.45923
1.47802
1.55345
1.22241
1.2191
1.21326
1.13097
0.965087
1.00873
1.0931
2.43788
2.44076
2.46826
2.46101
2.48454
2.49746
2.49697
2.49729
2.53383
2.51265
2.52568
2.49345
2.52458
2.53565
2.55932
2.57687
2.59237
2.59075
2.64105
2.6437
2.6625
2.6378
2.55393
2.55939
2.67877
2.67802
0.498228
0.565356
0.44881
0.677288
0.592249
0.670527
0.675685
0.661191
0.596221
0.521662
0.461576
0.466038
0.492647
0.551509
0.714275
0.621695
0.598086
0.797413
0.951533
0.910074
0.764088
1.00263
1.04688
1.06827
1.04578
1.14493
1.22174
1.09728
1.32384
1.26062
1.33269
1.33783
1.42465
1.36458
1.48727
1.523
1.51607
1.52144
1.64318
1.60722
1.5775
1.6305
1.65698
1.65002
1.64232
1.63408
1.64713
1.64849
1.72848
1.77399
1.81128
1.76689
1.81183
1.83455
1.97815
1.9098
2.00406
1.99091
2.07429
2.14664
2.23313
2.22921
2.26374
2.30293
2.37941
2.3657
2.39048
2.3933
2.4226
2.43236
2.45119
2.44352
2.45488
2.45015
2.4383
2.45332
2.43623
2.44063
0.0300075
0.00774085
0.0568698
0.036303
0.0364844
0.0622444
0.0359843
0.225403
0.0335076
0.588166
0.59534
0.120862
0.332377
0.592918
0.583919
0.591922
0.588388
0.593055
0.59213
0.524426
0.427301
0.000409991
0.000721639
0.000929073
0.000209712
0.000846986
0.0355061
0.000480382
9.7239e-05
0.000859927
0.000624923
0.00101
0.000209386
0.000613088
0.00100863
0.00188964
0.000982158
0.000918269
0.000991554
0.0036806
7.89033e-05
0.000210438
0.00024578
0.00100974
0.00081637
6.39222e-09
0.000980809
0.00100983
0.000216105
0.000848872
0.00100647
0.000131712
0.00100976
0.000959372
0.000152634
0.000986414
0.000975827
0.000979308
0.00351991
0.000980885
0.000642503
0.00098777
0.000776699
0.000625002
0.00131091
0.00131084
0.00131086
0.000900202
0.000946957
0.000832782
0.000987787
0.000948013
0.000941776
0.000961192
0.000871734
0.000897996
0.000947049
0.000951887
0.000925848
1.67713e-05
0.000881191
0.00092376
0.0003855
0.000414352
0.00098456
0
0
0
0
0
0
0
0
0
0
0
0
0
0
0
0
0
0
0
0.000853702
0.000943785
0.00101
0.000948967
0.00162072
0.000638505
0.00106
0.00088541
0.00104219
0.000886081
0.000705947
0.000991424
2.69093
2.71161
2.71878
2.66494
2.68246
2.67295
2.66748
2.58629
2.59108
2.59924
2.61712
2.60613
2.62688
2.66126
2.53367
2.56923
2.47536
2.49205
2.48928
1.57588
1.5773
1.47044
1.43285
1.53513
1.45472
1.4653
1.3443
1.37332
1.2348
1.20491
1.20591
1.2074
1.18486
0.000948436
0.00048792
1.12426
1.23559
1.01216
0.000886583
0.000967529
0.966278
0.963494
0.00538931
0.000657043
0.703493
0.837152
0.078984
0.142993
0.0865176
0.0442025
0.565174
0.568652
0.160215
0.197307
0.243156
0.334323
0.49295
1.53618
1.57025
1.5472
1.53717
1.29514
1.29538
1.31751
1.38853
1.50822
1.5037
1.45811
1.5111
1.50199
0.0332933
0.0324197
0.0329758
0.0417135
0.058138
0.0886308
0.0941432
0.092556
0.0915499
0.1254
0.133
0.162509
0.17025
0.181637
0.215194
0.255032
0.215558
0.301384
0.261066
0.208994
0.248129
0.251497
0.254556
0.000995064
0.000836534
0.00107163
0.000570634
0.00039799
0.00101
0.000995511
3.7271e-05
0.000733696
0
0
0
0
0
0.000500823
0.000891535
0.000776104
0.000529427
0.0763296
0.135609
0.181877
0.21908
0.274237
0.165476
0.000139384
4.71105e-05
0.373492
0.258743
0.289698
0.333104
0
0
0
0
0
0
0
0
0
0
1.10042
1.01792
1.01806
0.958467
0.958536
0.933039
0.948341
0.917226
0.958308
0.885096
0.882862
0.794063
0.812181
0.719577
0.71987
0.691969
0.690749
0.841499
0.810044
0.697472
0.690822
0.690035
0.683276
0.913431
0.956559
0.801168
0.77132
0.841786
0.956905
1.0151
0.971476
0.701628
0.660129
0.724241
0.749535
0.644428
0.629907
0.621137
0.587913
0.621909
0.596475
0.619119
0.640394
2.25372
2.32665
2.28615
2.35024
2.39583
2.36503
2.40317
2.34735
2.36998
2.43801
2.39726
2.47403
2.42846
2.50742
2.22186
2.24559
2.241
2.26334
2.24582
2.2674
2.32746
2.26253
2.1898
2.19917
2.20448
2.21485
2.21263
2.21349
1.92654
1.84534
1.73613
1.75507
1.6582
1.74952
1.75876
1.81717
1.99322
1.9932
1.99304
1.96969
2.08429
2.13104
2.04976
2.00399
2.13167
2.1318
2.13907
2.15728
2.18822
2.177
2.18832
2.18892
2.18887
2.18831
2.18864
2.1882
2.18834
2.18817
1.30999
1.2161
1.48451
1.48694
1.39716
1.49193
1.48978
1.59027
1.2134
1.21287
1.19237
1.17392
1.11328
1.21369
2.45235
2.46978
2.49015
2.52631
2.52145
2.54206
2.55584
2.56466
2.57185
2.55948
2.56924
2.58982
2.61158
2.62211
2.6236
2.63277
2.65184
2.67491
2.68544
2.683
2.6973
2.5706
2.56126
2.71408
2.72882
0.314979
0.355695
0.340919
0.421838
0.543319
0.619803
0.522433
0.535374
0.451471
0.461573
0.464771
0.49284
0.592762
0.541742
0.609402
0.607673
0.614233
0.670971
0.738781
0.912824
0.839848
0.99913
1.07937
1.07899
0.992192
1.15918
1.15248