/*--------------------------------*- C++ -*----------------------------------*\
  =========                 |
  \\      /  F ield         | OpenFOAM: The Open Source CFD Toolbox
   \\    /   O peration     | Website:  https://openfoam.org
    \\  /    A nd           | Version:  8
     \\/     M anipulation  |
\*---------------------------------------------------------------------------*/
FoamFile
{
    version     2.0;
    format      ascii;
    class       volScalarField;
    location    "1800";
    object      alpha;
}
// * * * * * * * * * * * * * * * * * * * * * * * * * * * * * * * * * * * * * //

dimensions      [0 0 -1 0 0 0 0];

internalField   nonuniform List<scalar> 
526318
(
0.000278096
0.000426153
0.000286025
0.000632799
0.000373727
0.000460228
0.000356862
0.000742129
0.000286417
0.000861677
0.00042828
0.000662094
0.000644256
0.000409886
0.000689591
0.000856264
0.000952278
0.000289763
0.00039549
0.000207441
0.000175013
0.000267367
0.000824349
0.000443906
0.000397898
0.000256367
0.000234767
0.000221489
0.000315232
0.000269328
0.000197196
8.54157e-05
0.000153995
0.000309323
0.000797416
0.000408456
0.000685092
0.000200453
0.000215794
0.00023734
0.00060255
0.00100879
0.00164211
0.000328766
7.60549e-05
0.00111434
0.000432306
0.00120414
0.000603025
0.000631023
0.00109981
0.00104511
0.000885795
0.00117711
0.00327938
0.00046819
0.0018692
0.00302541
0.000245484
0.00042699
0.000217328
0.000286788
0.000379798
0.000266742
0.000225836
0.000384191
0.000307578
0.000323832
0.000402687
0.000374455
0.000380413
0.000629284
0.000642462
0.000623219
0.000968693
0.000534631
0.000734184
0.000543265
0.000707978
0.000969528
0.000432609
0.000607703
0.000910025
0.000872096
0.000871466
0.000492449
0.00043242
0.000901299
0.000766607
0.000439626
0.000958564
0.00116416
0.000775929
0.00113246
0.0018266
0.00124685
0.0016728
0.00171648
0.00147773
0.00164331
1.14136
0
0.131755
0.0359416
0.0266854
0
0.00115788
0.00293652
0.00061581
0.000650462
0.000716948
0.000569333
0.000309031
0.000412774
0.00044781
0.000357306
0.000321017
0.000321674
0.00021643
0.00144605
0.00170708
0.00178605
0.0013313
0.00186033
0.00169372
0.00260299
0.00196206
0.00305041
0.00240886
0.00300917
0.00320327
0.00331677
0.00329634
0.00367894
0.0031228
0.00444343
0.00355074
0.00384112
0.00371635
0.00515301
0.00465692
0.00404202
0.00414057
0.00424515
0.00476009
0.00533935
0.00436963
0.005099
0.0049756
0.00454768
0.00468301
0.00437149
0.00443533
0.00450283
0.00446447
0.00474449
0.00420018
0.00455504
0.00486584
0.00549563
0.00326591
0.00409923
0.00364513
0.000398977
0.000344963
0.000269971
0.000392758
0.000806826
0.000288735
0.000485581
0.000999723
0.00084123
0.00107986
0.00106689
0.00101938
0.00117809
0.00177986
0.00192945
0.00202241
0.00171509
0.00147737
0.00123723
0.00176314
0.00298311
0.00196553
0.00383946
0.00332563
0.00313091
0.00363866
0.00339659
0.00357999
0.0034622
0.00390664
0.00383166
0.0033769
0.00349399
0.00366943
0.00348313
0.00367024
0.00394746
0.00356013
0.00500509
0.00332746
0.00328815
0.00341155
0.00343613
0.00393464
0.00386714
0.00366671
0.00307848
0.000435114
0.000992802
0.000681901
0.000334086
0.000322162
0.000183836
0.000373117
0.00123091
0.000341338
0.00154685
0.00106293
0.000775523
0.0013013
0.00145936
0.00167798
0.00143565
0.000310056
0.00133556
0.00136825
0.0170833
0
0.0041423
0.00161922
0
0
0
0
0
0
0.000426282
0.000397481
0.000430146
0.000374401
0.000411138
0.000325494
0.000386908
0.00040794
0.000552747
0.000465181
0.000512112
0.00039265
0.000436965
0.000338796
0.000406737
0.000372543
0.000744932
0.000699033
0.00126113
0.000948422
0.00143087
0.00137392
0
0
0
0
0.0500644
0
0.0454142
0.00336977
0.000299115
0.00220867
0.00048047
0.000667822
0.000507716
0.000393872
0.000381942
0.000432524
0.000484321
0.000470119
0.000407781
0.000426958
0.00150664
0.00163157
0.00187486
0.00213368
0.00357141
0.00284301
0.00455666
0.00393741
0.00428515
0.00486349
0.00522008
0.00455698
0.00473505
0.00421043
0.00320552
0.00270471
0.0016778
0.00223728
0.00199259
0.00281029
0.00468999
0.0056528
0.00385517
0.0025945
0.00444189
0.00472635
0.0053437
0.00571033
0.00564329
0.00617499
0.00612587
0.00701968
0.00800769
0.00799501
0.00880871
0.0030855
0.00190678
0.00287737
0.00215796
0.000284665
0.000452565
0.000952892
0.000741144
0.000340508
0.000927089
0.000848389
0.0005889
0.00087761
0.000766105
0.00103036
0.00205438
0.00265985
0.00204922
0.00219042
0.00243342
0.00372375
0.00188851
0.00294346
0.00296432
0.00407056
0.00386241
0.00351124
0.00421526
0.00366824
0.00402051
0.00425419
0.00375222
0.00348198
0.00410791
0.00323211
0.00379132
0.00295507
0.00335287
0.00305926
0.00295731
0.00274026
0.0025271
0.00371779
0.00301204
0.00251585
0.00237012
0.00229053
0.00255841
0.00296827
0.00239283
0.00200714
0.0019419
0.00114775
0.00147831
0.00133721
0.0012614
0.00109301
0.00117235
0.000471241
0.00126357
0.000513036
0.00068043
0.000761875
0.000929742
0.000464649
0.00060545
0.000173291
0.000120247
0.000669553
0.000600367
0.00019026
0.0010737
0.00230972
0.00550955
0.00267472
0.00572562
0.00282847
0.000422949
0.00318205
0.00174728
0.00159193
0.00130043
0.000863946
0
0
0.0104515
0
0.0107093
0.00447869
0
0.0111639
0
0
0
0
0
0
0
0
0.00044072
0.000373481
0.000435089
0.000350503
0.000390522
0.000289272
0.000432521
0.000330169
0.000379395
0.000454981
0.000429309
0.000356607
0.000365627
0.000459958
0.000653271
0.000471351
0.000770997
0.000697407
0.000927714
0.00108824
0.00143347
0.00157489
0
0.00786876
0
0
0
0
0
0
0.00264318
0.00645609
0
0
0
0
0.00739639
0
0
0
0
0.0355942
0
0
0.0210487
0.0122125
0.00212777
0.00635728
0.000632284
0.000475525
0.000477048
0.000436545
0.00040032
0.000399742
0.000428189
0.000485993
0.000473465
0.000415658
0.000426407
0.000330279
0.00195552
0.00186657
0.00253732
0.00219983
0.00307273
0.00411077
0.00461403
0.00409757
0.00470719
0.00394747
0.00540308
0.00634103
0.00574289
0.00519196
0.00449911
0.0043213
0.00607142
0.00309137
0.00436732
0.0021616
0.00600649
0.0120648
0.00571786
0.00710028
0.00800437
0.00997367
0.00919391
0.00860299
0.00862341
0.00892223
0.00987634
0.00107076
0.00141622
0.00101197
0.00106837
0.001318
0.000814736
0.000673779
0.000557612
0.0015476
0.00124499
0.00157502
0.00110131
0.00151393
0.00307239
0.000155755
0.00049009
0.00162193
0.000331243
0.00166919
0.00123723
0.000651994
0.000874972
0.000753277
0.000784592
0.00141089
0.000786072
0.00142229
0.00225464
0.0016193
0.00227779
0.00391436
0.00264513
0.00576602
0.00652542
0.00965672
0.00481367
0.00534174
0.00386491
0.00406526
0.004628
0.00407149
0.00446394
0.00379424
0.00438353
0.00336881
0.00412906
0.00290984
0.00356638
0.00314367
0.00283927
0.00237224
0.0028017
0.00209827
0.00232074
0.00255617
0.00234724
0.00219109
0.00206452
0.00217416
0.00190646
0.00204647
0.00205722
0.00144564
0.00143468
0.00086086
0.00126782
0.00108505
0.00135366
0.000742847
0.000913259
0.000512561
0.000135335
0.000279787
0.000392474
4.82437e-05
0.000392153
0.00120527
0.000557202
0.00127035
0.000452466
0.00114002
0.000515708
0.000659263
0.00108626
0.00078922
0.00165013
0.00201901
0.00590143
0.00753236
0.000862688
0.00351362
0.00290031
0.00351193
0.00214064
0.00292497
0.00242641
0
0
0.116778
0
0.00692356
0.00885394
0
0
0
0
0
0
0
0
0
0
0
0
0
0
0
0
0
0
0
0
0.00848154
0
0
0.00112037
0.00357451
0.00914819
0
0
0
0
0
0
0
0
0
0
0
0
0
0
0.000282979
0.000417221
0.000388693
0.000251338
0.000331151
0.000219212
0.000311404
0.000378752
0.000347279
0.000400582
0.000442046
0.000332662
0.000391495
0.000593752
0.000524966
0.000720215
0.000844931
0.000766767
0.0011281
0.00106958
0.00179072
0.00164493
0
0
0
0
0
0
0
0
0
0
0
0
0
0
0
0
0
0
0
0
0
0
0
0
0.0313693
0
0
0
0
0
0.00743215
0
0.00256774
0.00230286
0.00110504
0.00074131
0.000516636
0.000349472
0.000476389
0.000454804
0.000403445
0.000415012
0.000407029
0.000454803
0.000428473
0.000307079
0.000228738
0.000384095
0
0
0
0
0
0
0
0
0
0
0
0
0
0
0
0.0467035
0
0.00204417
0.00189957
0.00206857
0.00261172
0.00469474
0.00329038
0.00545473
0.00505508
0.00673187
0.00589041
0.00853109
0.00960741
0.00479679
0.00639714
0.0100971
0.00548577
0.00433581
0.00415294
0.00236083
0.00347304
0.00883458
0.0101699
0.01221
0.00540701
0.00994035
0.00815614
0.00924353
0.0109349
0.0129544
0.0141639
0.0196524
0.0230114
0.000152328
0.000388279
0.000289713
0.000149375
9.43222e-05
0.000673834
0.000166474
0.000224114
0.000125413
0.000109291
0.0013445
0.000608252
0.000827403
0.000510954
0.00159156
0.00229197
0.00123632
0.00164645
0.00389533
0.00229891
0.00162435
0.000418624
0.00026988
0.00109382
0.000469988
0.0011199
0.000958572
0.000872957
0.000765502
0.00147718
0.00181943
0.00262239
0.00332893
0.00168903
0.00361345
0.00405838
0.00722882
0.00573503
0.00864803
0.0100952
0.0118342
0.00739964
0.00536489
0.00835445
0.00558076
0.0039309
0.00402911
0.00439576
0.00425345
0.00360703
0.00297296
0.00359458
0.00305674
0.0028425
0.0025481
0.00277397
0.00239618
0.00229586
0.0020969
0.00206775
0.00162866
0.00177715
0.00161681
0.00156905
0.00155533
0.00155355
0.00133195
0.00168258
0.00106047
0.00157437
0.000989606
0.000882337
0.000996543
0.00088561
0.000278334
0.000543609
9.6973e-05
0.000381788
0.000153365
0.000238104
0.000127172
0.000247391
0.000198522
0.000213765
2.54532e-05
0.000255899
0.000163332
0.000100452
0.000239574
0.000171241
0.000191034
0.000202786
0.000199847
0.000196021
0.000162775
0.000207614
0.000206789
0.000224287
0.000198154
0.000193478
0.000176889
0.000185585
0.000173755
0.00015825
0.000168389
0.00017242
0.000145751
0.00014918
0.000134929
0.000155551
0.000110406
0.000109217
0.000129028
9.69279e-05
0.00014681
8.01514e-05
0.000114934
8.41853e-05
0.00013346
8.48899e-05
5.43591e-05
0.0018634
0.00138462
0.000728996
0.000350569
0.00166139
0.0016247
0.000667335
0.00336033
0.00196885
0.00556698
0.00730107
0.00556692
0.00198886
0.013764
0.0152728
0.0453453
0.00810424
0.0112389
0.00773896
0.00993436
0.0109554
0.00814792
0.00829722
0
0.0169143
0
0
0
0
0.0135831
0
0
0
0
0.0160764
0
0
0
0
0
0
0
0
0.0181036
0
0
0
0
0
0
0
0
0
0
0
0
0
0
0
0
0
0
0.176948
0
0
0.109938
0
0.0325106
0
0.03482
0.0372774
0.00058802
0
0.0288463
0.0411606
0
0
0.0144841
0
0
0
0
0
0
0
0
0
0
0
0
0
0
0.0143767
0
0
0.000347118
0.000161534
0.00011994
0.000350613
0.000165801
0.000269269
0.000372363
0.000340971
0.00039113
0.000310113
0.000337857
0.000484371
0.0004902
0.00073292
0.00109328
0.00161386
0.00169089
0.000665421
0.000925655
0.000807914
0.00108001
0.00107764
0
0
0.00796228
0.0280381
0
0
0
0
0
0
0
0
0
0
0
0
0
0
0
0
0
0
0.0178112
0.0116896
0
0
0.174021
0.0103406
0.000807632
0.00592431
0.000393813
0.000268838
0.000391567
0.00040548
0.000415458
0.000360253
0.000380391
0.000405891
0.000326256
0.000482508
0.000405169
0.000224901
0.000365732
0.000111223
0.00350067
0
0.0149088
0
0
0.00103895
0
0
0.000292203
0
0
0.0815718
0
0
0
0
0
0
0
0
0
0
0
0
0.0156425
0
0.00193608
0.00207401
0.0034412
0.0026339
0.0070474
0.00513797
0.00797664
0.00817506
0.00799106
0.00594041
0.00891984
0.00592673
0.00932045
0.0106284
0.0170509
0.00722081
0.00443439
0.00526737
0.00468026
0.00406748
0.0226519
0.0163648
0.00631901
0.0108613
0.0167983
0.0094307
0.0219038
0.0327509
0.0243186
0.0219644
0.0109552
0.0157281
0.000186347
0.000134285
0.000176817
0.000339379
0.000210533
0.000402852
0.000105116
0.000160342
0.000166421
0.000237698
0.000227165
0.000119496
0.000239335
0.000213435
0.000207996
0.000215035
0.000198749
0.000190188
0.000165812
0.000191392
0.000174366
0.000144429
0.000159574
0.000138782
4.6004e-05
9.86297e-05
6.67997e-05
2.64027e-05
0.000132123
0.000147024
0.00111254
0.00138255
0.000427431
0.000369566
0.00108375
0.00262567
0.00126653
0.000747074
0.00418716
0.0020796
0.00429247
0.000901502
0.00609877
0.000440519
0.00134612
0.000893641
0.00135727
0.000598363
0.00147424
0.00479905
0.00185316
0.00700911
0.00285542
0.00639436
0.0218245
0.0274861
0.0963844
0.0247555
0.00847364
0.00878527
0.0355375
0.00823903
0.00620798
0.00870008
0.00514104
0.00715007
0.00594642
0.00406284
0.00303842
0.00395163
0.00293336
0.00282024
0.00271746
0.00285303
0.00246285
0.00212423
0.00198302
0.00185019
0.00158311
0.00170766
0.00125159
0.00153827
0.00156438
0.00136624
0.00153359
0.00106262
0.001154
0.00134013
0.000784826
0.000889676
0.00054277
0.000541269
0.000583271
0.000594614
0.000152346
0.000198821
0.000220279
0.000160995
0.000114169
0.000204973
0.00012654
8.93489e-05
0.000200702
0.000227618
0.0002381
0.000188777
0.000178946
0.000188998
0.000221557
0.00017222
0.000198297
0.000150193
0.000163084
0.000146644
0.000140745
0.000118628
0.000105382
9.45979e-05
6.95023e-05
8.14428e-05
5.41656e-05
3.71279e-05
9.06339e-06
3.45872e-05
2.80559e-05
1.80802e-05
2.19543e-05
5.20917e-05
3.6942e-05
5.30335e-05
3.63191e-05
6.47549e-05
3.79663e-05
0.0026123
0.00233038
0.00272711
0.000484442
0.00371707
0.00322633
0.000168951
0.000982893
0.00181645
0.00126885
0.00663948
0.00528727
0.00778301
0.00591364
0.00457603
0
3.1038
0.0198411
0.249771
0.0208973
0.0212665
0.00375404
0.0100567
0.0563227
0.0220703
0
0
0
0
0.00468151
0.0173611
0
0
0
0.0248514
0
0
0
0
0
0.0337685
0
0.0186526
0
0
0
0
0
0
0
0
0.0337325
0
0
0
0.00602741
0
0
0
0
0
0
0
0
0
0
0
0
0
0
0
0
0.000941181
0
0.00702109
0
0
0
0
0
0
0
0
0
0
0.000314035
7.7994e-05
8.88209e-05
0.000344785
0.000195211
0.000273121
0.00030672
0.000325507
0.000328878
0.000485626
0.000650966
0.000495851
0.000927701
0.000664109
0.00114349
0.00218558
0.00206906
0.00112661
0.000770344
0.000732033
0.000985459
0.000998484
0.00309704
0
0.00090837
0
0
0
0
0
0
0
0
0
0
0
0
0
0
0
0
0
0
0
0
0.0296174
0
0
0.00708571
0.00735585
0.00134313
0.00370086
0.000324411
0.000247745
0.000434611
0.000313048
0.000331223
0.000394625
0.000424993
0.000362371
0.000435534
0.000270894
0.000337845
0.000141372
0.000143284
0.000358078
0
0
0
0
0
0
0
0
0
0
0
0
0
0
0.0101873
0
0
0
0
0.00146298
0
0.00114974
0
0
0.0393721
0
0
0
0
0
0
0.00322273
0.00326915
0.00414523
0.0051446
0.00705636
0.00591098
0.00552247
0.00642684
0.00174838
0.00336381
0.00348279
0.010158
0.0086445
0.0136579
0.021762
0.0116568
0.0102488
0.0134074
0.00597517
0.00592217
0.0078328
0.0059762
0.007727
0.0153276
0.0244476
0.0160764
0.0151917
0.0624576
0.0594266
0.0332359
0.0386316
0.0285733
0.0187015
0
0
9.88044e-05
0.000119947
0.000136436
0.000167902
0.000137829
0.000113479
0.000164051
0.000187891
0.000129308
0.000155075
0.000214418
0.000185422
0.000190609
0.000146102
6.25077e-05
6.68951e-05
5.57581e-05
6.39239e-05
6.08296e-05
7.58478e-05
5.95312e-05
7.2766e-05
8.29303e-05
5.17721e-05
7.02538e-05
7.16191e-05
8.34383e-05
0.000114773
8.70309e-05
5.18421e-05
5.30033e-05
5.16907e-05
2.27624e-05
3.11922e-05
5.07198e-05
0.000161599
0.000154824
7.33602e-05
0.000265675
0.000335521
0.000266133
0.000103595
0.000130365
0.000105814
0.000222806
0.000112462
0.000170869
0.000222768
0.000222209
0.000193686
0.000212656
0.00020721
0.000205915
0.000214572
0.000184385
0.000197918
0.000163935
0.000183176
0.000152322
0.000114708
0.000117326
0.00016096
0.000139705
0.000929952
0.00144755
0.00133006
0.00174345
0.000477098
0.000258411
0.000516486
0.00236693
0.00163948
0.00404991
0.00458078
6.70501e-05
7.09525e-05
6.27019e-05
5.60141e-05
7.48779e-05
7.87468e-05
7.07013e-05
8.59517e-05
9.38356e-05
0.00010199
0.000103842
0.000113233
0.00010915
0.000123368
0.000133415
0.000171582
0.000143322
0.000157589
0.00412934
0.00754465
0.00395388
0.00100109
0.00337748
0.00123799
0.00241298
0.00416696
0.00348378
0.00333567
0.0180756
0.017249
0
0.0388101
0
0
0.60512
0
0.013113
0.00269324
0.255646
0.00558273
0.00946019
0.00827619
0.00657808
0.00817967
0.0039381
0.00482141
0.00315679
0.0038259
0.00339004
0.00300217
0.00259556
0.00231323
0.00200101
0.00178187
0.0018786
0.00175642
0.00137966
0.00150984
0.00124073
0.00127017
0.00116225
0.0013763
0.000745245
0.000930526
0.0010113
0.000788275
0.000605652
0.000561182
0.000197405
0.000319559
0.000460935
0.000464986
0.000196491
9.25203e-05
7.25111e-05
9.71727e-05
0.000110305
0.000169473
0.000127507
0.000276839
0.000309918
0.00023359
0.000221043
0.000181942
0.000225686
0.000133772
0.000207641
0.000126055
0.000134435
0.000163092
0.000154638
0.000116668
8.13387e-05
0.000128869
6.24008e-05
0.00010772
9.24273e-05
3.55252e-05
3.70928e-05
8.17106e-05
5.51837e-05
6.70363e-05
7.09889e-05
0.00839136
0.00978325
0.00121939
0.00277039
0.00235211
0.00296517
0.0114551
0.00171391
0.00554124
0.00630936
0.00884105
0.0018668
0
0.00918167
0.0108587
0
0
0
4.86534
0.0189196
0.372334
0.081291
0.0959767
0
0
0
0
0
0.0129916
0.013804
0.0187362
0
0.000194054
0
0
0
0
0
0
0
0
0
0.0494457
0
0
0
0
0
0
0
0
0.22201
0
0.0224949
0
0
0
0
0
0
0.00565371
0
0
0
0.00422032
0
0
0
0
0.0104624
0
0
0
0
0
0
0
0
0.027082
0
0
0
0
0
0
0
0
0
0
0.00131956
0
0
0
0
0.00525153
0.000211234
0.000211868
0.000232752
0.000195622
0.000185695
0.00016983
0.000134284
0.000311673
0.000337329
0.000151717
0.000144215
0.000283615
0.000429879
0.000403861
0.000526535
0.000673888
0.000672284
0.000819563
0.000897276
0.000724594
0.00103708
0.00192218
0.00128216
0.000823879
0.00100199
0
0
0
0
7.52658
0
0
0
0
0
0
9.22603
0
0.00442196
0.00249683
0.00275022
0
0
0
0
0
0
0
0
0
0
0
0.000462123
0.0010362
0.00061186
0.000368221
0.000166895
0.000337366
0.000186635
0.000455288
0.000381334
0.000319534
0.00030839
0.000250323
0.000327165
0.000339703
0.000133894
0.000310179
0
0.00311401
0
0
0
0
0
0
0
0
0
0
0
0.0333733
0
0
0
0.0033118
0
0.025629
0
0
0
0
0
0
0
0
0
0
0.0090002
0
0
0
0
0
0
0.0024498
0.00137212
0.00258396
0.00348973
0.00383453
0.0037381
0.00315192
0.00713705
0.00932573
0.00627501
0.0163435
0.0030003
0.0036598
0.0577815
0.0656729
0.0633008
0.0961538
0.017176
0.00934593
0.0177074
0.0538732
0.00584905
0.00371285
0.005992
0.00595936
0
0
0
0.173649
0
0
0
0
0
0
0
0
0.00015173
0.000136815
0.000212182
0.0001775
0.000211514
0.000240593
0.000230788
0.000262748
5.51472e-05
5.9514e-05
7.89763e-05
6.23529e-05
8.33119e-05
8.89514e-05
0.000139469
0.000124711
9.83518e-05
7.62949e-05
4.42441e-05
7.98887e-05
5.15774e-05
3.64579e-05
0.000147136
0.000164159
0.00019162
4.65635e-05
0.000368886
0.000492844
0.000111547
0.000107145
9.72097e-05
0.00023109
0.000217331
0.00016153
0.000156896
0.000230439
0.000170166
0.000181543
0.000252707
0.000219926
0.000223984
0.000241112
0.000219133
0.000227085
0.000205089
0.000182883
0.00020397
0.000163893
0.000180126
0.000110165
0.000139523
0.000161247
0.000130429
0.00201941
0.00112624
0.00135906
0.000519068
0.00191842
0.000900978
0.000508851
0.000272497
0.00252868
0.00189054
0.00517045
0.00302084
6.03766e-05
6.97624e-05
6.34408e-05
6.11389e-05
6.7517e-05
7.69682e-05
6.45398e-05
8.09168e-05
7.34862e-05
8.79129e-05
9.0704e-05
0.000102935
9.56639e-05
0.000119185
0.000116886
0.000132549
0.000136419
0.000152402
0.00015446
6.27261e-05
8.73625e-05
6.3413e-05
0.000188674
0.000207126
0.000188903
0.00577163
0.00978698
0.0142341
0.0184321
0.00293724
0.00953612
1.98264
0.0949962
0.0207827
0
0
0
0
0.0174678
0
0.011245
0
0
0.0192854
0.0231711
0.0117742
0.0121412
0.00699202
0.0128249
0.00676043
0.00426994
0.00541422
0.00478096
0.00352195
0.00492191
0.00244114
0.00295661
0.00204578
0.00214159
0.00200685
0.00196865
0.00136229
0.00142828
0.000993763
0.00149391
0.000880658
0.000993862
0.00104817
0.000932945
0.000682994
0.000555359
0.000638032
0.000749571
0.000605531
0.000621644
0.000198033
0.000305639
0.000312746
0.000310393
0.000219376
0.000446332
0.00026233
0.000309658
7.0347e-05
0.000407149
0.000250216
0.000241464
0.000174945
0.00020395
0.000128437
0.000125607
0.000193434
0.000145855
0.0001316
0.000126178
0.000130495
0.000126572
9.53593e-05
0.000108053
7.46573e-05
9.34942e-05
4.91757e-05
5.78066e-05
7.75796e-05
5.78846e-05
6.49813e-05
7.01756e-05
0
0
0
0
0.014371
0.00876541
0.0100595
0.0179238
0.0163099
0
0
0
0
0
0
0
0
0
0
0
0
0
0
0
0
0
0
0
0.0139683
0.00813461
0
0
0
0
0.0479635
0
0
0
0
0
0
0
0.00518314
0
0
0
0
0
0
0
0
0.160982
0
0
0
0.0184106
0.00674401
0
0.00342343
0.0127875
0
0
0
0
0.00750328
0.0169643
0
0
0.0141584
0.0169866
0
0
0
0
0.0129811
0
0.0232029
0
0
0
0
0.0131006
0.00412286
0.0034917
0
0
0
0
0
0
0
0
0
0
0.00351927
0
0
0
0
0
0
0
0
0.000276135
0.000244557
0.000252791
0.000229313
0.000235762
0.000234424
0.000216868
0.000227554
0.000221765
0.000220465
0.000355784
6.21927e-05
4.8925e-05
0.000390983
0.00024795
0.000422258
0.000578844
0.000449942
0.000783534
0.000649868
0.000769496
0.000960237
0.00104722
0.00126183
0.00205025
0.00134574
0.00158783
0
0
0
0
6.43375
0
0
0.00362286
0.000896239
0.00276019
0
0
0
0
0.0285218
0
0.00256986
0
0
0.00172726
0
0
0
0
0
0.000240564
0.000247077
0.000178179
0.000256037
0.000603643
0.000360236
0.000570335
0.000298973
0.000154433
0.00034278
0.000270881
0.000261231
0.000244497
0.000118099
0.000341671
0.000391438
0
0
0.00522955
0.0136165
0
0
0.0138332
0.0051234
0
0
0
0
0
0
0
0.00538475
0.000840346
0.00285167
0
0
0
0.00442762
0
0
0
0.00354306
0
0
0
0
0
0
0
0
0
0
0
0
0
0
0
0
0
0
0
0.00174428
0.00215345
0.0011861
0.00460438
0.00481286
0.00306701
0.0053858
0.00690438
0.00525233
0.105025
0.0124952
0.0340528
0.137768
0.00495341
0.00960815
0
0
0
0
0
0
0.0849205
0.0143038
0.00621492
0.00172883
0.0025439
0.0134937
0
0
0
0.146761
0
0
0
0
0
0
0
0.00685324
0.000197252
0.000205013
0.000241874
0.000263987
0.000296454
0.000273295
0.000328851
0.000282195
0.000330508
0.000291692
0.000297699
0.00034812
0.000284068
0.000309555
5.83521e-05
4.82826e-05
7.71662e-05
6.85291e-05
9.17933e-05
0.000117679
0.000153975
0.000182284
9.17712e-05
0.000104033
7.77438e-05
7.9088e-05
6.92794e-05
4.17986e-05
0.000188819
0.000161795
0.000341052
9.96841e-05
0.000523934
0.000419351
0.000212385
0.000210928
0.000155809
0.000200794
0.000176343
0.000234052
0.000224382
0.000234127
0.000227201
0.000236993
0.000252404
0.000250147
0.000264874
0.000255783
0.000242362
0.000249649
0.000224024
0.000224196
0.000188612
0.000204323
0.000149786
8.67142e-05
0.000139556
0.000181299
0.00211029
0.00133802
0.00112357
0.000552333
0.000980425
0.00171974
0.000423986
0.000670291
0.0014207
0.00193505
0.00218108
0.00130909
6.86781e-05
5.11248e-05
5.71075e-05
5.97714e-05
5.76729e-05
7.59396e-05
6.84651e-05
9.03691e-05
6.73728e-05
7.50361e-05
9.28378e-05
9.90659e-05
9.62911e-05
0.000108683
0.000114399
0.000126677
0.00013715
0.000139286
0.000138846
0.000155272
0.000163946
6.65884e-05
9.86456e-05
0.000201514
0.000190494
0
0
0
0
0
0
0
0
0.00930015
0
0
0
0
0
0
0
0.0432296
0
0.0251435
0.0377098
0.02073
0.0199245
0.00568837
0.00931207
0.00405607
0.00478392
0.00550588
0.00514822
0.00350057
0.00267475
0.00215961
0.00184421
0.00183399
0.00191295
0.00108289
0.00112077
0.000821718
0.000998567
0.00177414
0.00109838
0.000781064
0.000962434
0.000718318
0.000859938
0.00065553
0.000599074
0.000589137
0.000667985
0.000409035
0.000390409
0.000330149
0.000286768
0.000400443
0.000308356
0.000207278
0.000383354
0.000272701
0.000141453
0.000279824
0.000169946
0.000206953
0.000150619
0.000177628
0.000161125
0.000139913
0.000161067
0.000114237
0.000149245
0.000120816
0.00012445
0.000114932
9.79627e-05
9.62033e-05
7.63854e-05
7.7685e-05
6.41011e-05
6.64181e-05
5.47146e-05
5.84997e-05
0
0
0.121426
0.00149249
0
0
0
0
0
0
0
0.00110838
0
0.00658433
0.00490868
0.0101558
0.0117577
0
0.00868689
0.346652
0
0
0
0.00278448
0
0.00292913
0.00507373
0
0
0
0
0
0
0
0.0270185
0
0
0
0
0
0
0
0.0220121
0
0
0
0
0
0
0
0
0
0
0
0
0
0
0
0
0
0
0
0
0
0
0
0
0
0
0
0
0
0
0
0
0
0
0
0
0
0
0
0.0207417
0
0
0
0
0
0
0
0
0
0
0
0
0
0
0
0
0
0
0
0
0
0
0
0
0
0
0
0
0
0.00484333
0
0
0
0
0.000254606
0.00022511
0.000218231
0.00023855
0.000254879
0.000247126
0.000253974
0.000263253
0.000250483
0.00023491
0.000233318
0.000260729
0.000253076
0.000290924
0.000317983
0.000373812
0.000144836
2.65083e-05
0.000228546
0.000616285
0.000371855
0.000678906
0.000863844
0.00118644
0.00123222
0.00177852
0.00199818
0.00170655
0.00203754
0
0
0
0.00820901
0.00497864
0.000759287
0.00369805
0
0
0.00945177
0
0
0
0
0.00423166
0
0
0
0.00277335
0
0.00313832
0
0
0
0.000187266
0.00019534
0.000338427
0.000176065
0.000299853
0.000326001
0.000517584
0.000306399
0.000411901
0.000328572
0.000281137
0.000173353
0.000256726
0.00018166
0.000188185
0.000351008
0
0.00394792
0
0
0
0
0
0.000641435
0
0
0.00488768
0
0
0
0
0
0
0
0
0.000560635
0
0
0
0
0
0
0
0
0
0
0
0
0
0
0
0
0
0
0.00426123
0.0253996
0
0
0
0.0659832
0.00806699
0
0
0
0
0
0
0
0
0
0
0
0
0.00145023
0.00166926
0.00384041
0.0045335
0.00641829
0.0170579
0.0176087
0.00215989
0.00682843
0.0607542
0.0308335
0
0
0
0
0.0397366
0.0181847
0
0
0
0
0.00770617
0.0050165
0.00402387
0
0
0.00943784
0
0.0194033
0
0
0
0
0.00368355
0.000193292
0
0
0
0
0
0
0.000246623
0.000227391
0.000303046
0.000274702
0.000324581
0.000328831
0.000347678
0.000326787
0.000335973
0.000353996
0.000346605
0.000343159
0.000365638
3.68234e-05
5.51746e-05
8.8967e-05
4.51347e-05
0.000134987
0.000107851
0.000202474
0.00017958
0.000123792
9.42066e-05
8.1039e-05
0.000104892
8.1424e-05
4.56114e-05
0.000213138
0.000212448
0.000411392
0.000309132
0.000365393
0.000505743
0.000306373
0.000271118
0.000246178
0.000208538
0.000255657
0.000175518
0.000250447
0.000248955
0.00028344
0.000254308
0.000254405
0.000293316
0.000309017
0.000290122
0.000302548
0.000291024
0.000279873
0.000266093
0.000246099
0.000215987
0.000109079
0.0001635
0.000202714
0.0001661
0.00191737
0.0018497
0.000940982
0.000861371
0.00120032
0.00126181
0.00108909
0.0007031
0.00205938
0.00121353
0.00189453
0.000409349
0.0150858
0.00194521
0.00146298
6.51026e-05
5.96455e-05
6.80564e-05
6.0262e-05
7.13561e-05
8.41182e-05
8.96748e-05
7.967e-05
7.46769e-05
9.22059e-05
0.000106417
8.55177e-05
0.000107419
0.000109582
0.000128488
0.000113737
0.000124907
0.000140996
0.000133414
0.000139558
0.000163729
0.000161349
0.000105846
7.38033e-05
0.000185392
0.000186659
0
0
0.0153124
0
0
0.00773249
0.0168392
0
0
0
0
0.00405135
0.0020445
0
0
0
0
0
0.01421
0.0223982
0
0.00839933
0.00497755
0.0119613
0.00886365
0.00582515
0.00387926
0.00776186
0.00210447
0.00213015
0.00173071
0.00208192
0.00124929
0.00133433
0.000575832
0.000961476
0.000901109
0.000581611
0.000504613
0.000846824
0.000564378
0.000702299
0.000596963
0.000691473
0.000492172
0.000504667
0.00060223
0.000593158
0.000402458
0.000337498
0.000271462
0.000439241
0.00034399
0.000334204
0.000187337
0.000302365
0.000222239
0.000195039
0.000207104
0.000178442
0.000155649
0.00019394
0.000137053
0.000185395
0.000167955
0.000111539
0.00015134
0.000125542
0.000125894
0.000124504
0.000105962
0.000100915
8.77517e-05
6.55536e-05
5.95728e-05
7.00497e-05
8.58159e-05
5.82243e-05
0
0
0.017246
0
0
0
0
0.0376093
0
0.0175802
0
0
0
0.0229627
0.0178619
0.0108761
0.0130555
0.00601838
0.027316
0
0
0
0
0.0149995
0
0
0
0
0
0
0
0.015955
0
0
0
0.0337868
0
0
0
0.182351
0
0
0
0.0445658
0
0
0
0
0
0
0
0
0
0
0
0
0
0
0.111229
0
0
0
0
0
0.0129609
0.0147969
0.00655329
0
0.04857
0
0
0
0
0.024207
0
0
0
0
0
0
0
0
0
0
0
0
0
0
0
0
0
0
0
0
0
0
0
0
0
0
0
0
0
0
0
0
0.00598299
0
0
0
0.00242271
0
0
0.000892555
0.0210812
0
0.000240005
0.000203445
0.000192239
0.000272799
0.000245235
0.00027577
0.00027162
0.000261934
0.000262978
0.000250844
0.000244699
0.000261112
0.000259576
0.00026971
0.000314408
0.00029911
0.000358298
0.000338809
0.000337294
0.000577946
0.000118905
0.000367631
0.000676069
0.000240692
0.000315866
0.000760385
0.000677188
0.00113562
0.00214019
0.00145373
0.00158631
0.00241436
0.00192408
0
0
0.00146711
0.000360716
0.00485911
0
0
0.00865081
0.00541526
0
0
0
0
0
0
0
0
0.0189735
0
0
0
0
0
0
0.000485064
0.000264403
0.000256068
0.000447034
0.000251432
0.000735403
0.000708507
0.000202512
9.62714e-05
0.000413291
0.000303176
0.000188074
8.693e-05
0
0
0
0
0
0
0.0177653
0.00346022
0
0
0.00711124
0
0
0
0
0
0
0.349413
0
0
0
0
0
0
0
0
0
0
0.0518352
0
0
0
0
0
0
0
0
0
0
0
0
0
0
0
0
0
0.0530308
0
0
0
0
0.015595
0
0
0
0
0
0
0
0
0
0
0
0.00201413
0.00404883
0.00629807
0.00465275
0.0164947
0.0175008
0.00640605
0.0320195
0.0196167
0
0.019586
0
0
0
0
0
0
0
0
0
0
0
0
0.0503083
0.0166129
0
0
0
0.00613832
0.00108808
0.00312895
0
0
0
0.00484032
0.0202006
0
0
0
0
0
0
0
0.000268267
0.000268231
0.000315463
0.00034367
0.000338409
0.000362383
0.000346636
0.000377398
0.000361698
0.000357035
0.000384234
0.000351465
0.000374313
0.000352129
3.41076e-05
5.79782e-05
5.92367e-05
0.000118858
0.000145902
0.000178203
0.000228595
0.000214625
0.000148677
0.000115803
0.000119519
8.50222e-05
6.88671e-05
2.74981e-05
0.000197123
0.000233119
0.000343657
0.000337491
0.000772988
0.000350241
0.000279895
0.000241443
0.000227708
0.000289402
0.000187903
0.000245908
0.000254157
0.00027183
0.000272945
0.000316666
0.000279347
0.000312607
0.000345802
0.000323954
0.000298266
0.000351328
0.000262585
0.000307132
0.000256944
0.000216308
0.000152462
0.000185557
0.000187253
0.000206431
0.00198787
0.00243087
0.00115308
0.000946627
0.00128792
0.00138596
0.00133047
0.000843389
0.00169353
0.00139699
0.00129182
0.000846001
0.000713305
0.00165025
6.88248e-05
7.1904e-05
4.52659e-05
9.67187e-05
7.29258e-05
9.9499e-05
7.26022e-05
9.05775e-05
9.34601e-05
0.000119731
8.74312e-05
0.00011684
0.000104602
0.000125742
0.000116288
0.000120352
0.000137697
0.000133245
0.000146597
0.000154144
0.000160315
0.000116715
8.79161e-05
0.000161068
0.000169684
0
0
0
0
0
0
0
0
0
0.00759238
0
0
0
0
0
0
0.0157162
0
0
0.030128
0
0.00924169
0.00515226
0.00563843
0.0107282
0.00369258
0.00360097
0.00329951
0.00262323
0.00205738
0.00188174
0.00212735
0.00101693
0.000978481
0.000595097
0.00081161
0.00066442
0.000488846
0.000576789
0.000466432
0.000532307
0.000612184
0.000506143
0.000575353
0.000396881
0.000517206
0.000640663
0.000523454
0.000349705
0.000378966
0.000243567
0.000242342
0.000262696
0.000320443
0.000157769
0.000216393
0.000207966
0.000180558
0.000193059
0.000154704
0.000186536
0.000129531
0.000116189
0.000162966
0.000126186
0.000152431
0.000136358
0.000135375
0.000114822
0.000115581
7.89079e-05
9.45117e-05
7.79485e-05
5.38617e-05
6.36649e-05
6.10464e-05
5.73075e-05
7.96529e-05
0
0
0
0
0
0
0
0
0
0
0
0
0
0
0
0
0
0.0242273
0
0
0.0729955
0
0
0
0.0144356
0
0
0
0
0
0.00170777
0
0
0
0
0
0
0
0
0
0
0
0
0
0
0
0.0834084
0.0903308
0.0549529
0
0
0
0
0.00286147
0
0
0.00287993
0
0
0
0
0.0175246
0
0
0.00965863
0
0
0
0
0
0
0
0
0
0
0
0
0
0
0
0
0
0
0
0
0
0
0
0
0
0
0
0
0
0
0
0
0
0
0
0
0
0
0
0
0
0
0
0
0
0
0
0
0
0
0
0
0.00332765
0
0
0
0.0307178
0
0
0.000163407
0.000197232
0.000183348
0.000272092
0.000278437
0.000264331
0.000221766
0.000249766
0.000252401
0.000275839
0.000260889
0.0002653
0.000261981
0.000267872
0.000255433
0.000260707
0.000261951