/*--------------------------------*- C++ -*----------------------------------*\
  =========                 |
  \\      /  F ield         | OpenFOAM: The Open Source CFD Toolbox
   \\    /   O peration     | Website:  https://openfoam.org
    \\  /    A nd           | Version:  8
     \\/     M anipulation  |
\*---------------------------------------------------------------------------*/
FoamFile
{
    version     2.0;
    format      ascii;
    class       volScalarField;
    location    "21420";
    object      Hclip;
}
// * * * * * * * * * * * * * * * * * * * * * * * * * * * * * * * * * * * * * //

dimensions      [0 1 0 0 0 0 0];

internalField   nonuniform List<scalar> 
526318
(
1.79013
1.74667
1.81924
1.7445
1.82627
1.74764
1.79058
1.69321
1.76195
1.63819
1.61026
1.75171
1.67702
1.725
1.69258
1.71505
1.67755
1.88468
1.78682
1.84387
1.82843
1.78867
1.53593
1.78258
1.66544
1.54382
1.80897
1.81123
1.80399
1.82325
1.83975
1.9076
1.88277
1.76493
1.74205
1.73689
1.7189
1.79119
1.74414
1.72905
1.76524
1.73242
1.39554
1.44817
1.35335
1.40351
1.38057
1.5053
1.66545
1.58636
1.67068
1.67192
1.62127
1.58693
1.07968
1.32346
1.31835
1.11663
1.82599
1.86208
1.87988
1.82631
1.75911
1.90652
1.88656
1.85231
1.81744
1.83668
1.73986
1.74582
1.84306
1.62785
1.68494
1.57869
1.51916
1.52043
1.61262
1.60466
1.53475
1.5746
1.65447
1.6424
1.59714
1.56441
1.58132
1.65805
1.65138
1.62729
1.58022
1.64556
1.56529
1.50548
1.50501
1.43702
1.4295
1.42916
1.43193
1.42992
1.42884
1.42279
0.864008
0.803785
0.889582
0.924322
0.990893
0.773304
1.33589
1.1463
1.46943
1.42438
1.4706
1.59421
1.79878
1.69218
1.81219
1.82104
1.8782
1.85344
1.90829
1.42488
1.42072
1.42716
1.4263
1.38404
1.42612
1.33318
1.38185
1.28734
1.33548
1.28975
1.28511
1.27547
1.25255
1.24116
1.27117
1.21227
1.26544
1.21637
1.23573
1.18189
1.18595
1.20671
1.23763
1.22445
1.18014
1.18155
1.19511
1.17712
1.18232
1.18728
1.20161
1.18721
1.20237
1.19306
1.19629
1.14515
1.17854
1.19214
1.15958
1.11485
1.19271
1.14259
1.21451
1.68207
1.80316
1.72366
1.70502
1.52374
1.58335
1.52743
1.52076
1.51892
1.51271
1.53684
1.52266
1.45787
1.41852
1.38852
1.33332
1.39402
1.43147
1.43357
1.42991
1.31756
1.37361
1.25744
1.26969
1.27694
1.2681
1.27128
1.27108
1.26057
1.26322
1.26064
1.24639
1.22847
1.25653
1.24813
1.21638
1.20001
1.2278
1.2119
1.19444
1.22049
1.21347
1.20678
1.17715
1.1932
1.22965
1.22444
1.67312
1.7162
1.71573
1.68318
1.68133
1.67297
1.68054
1.53813
1.58132
1.33587
1.31823
1.31527
1.43696
1.59252
1.44629
1.47822
1.4842
1.43981
1.41147
0.921382
0.720285
1.05913
1.26163
0.516174
0.354285
0.654553
0.75194
0.719369
0.724583
1.87037
1.88162
1.92285
1.89837
1.8785
1.85848
1.78093
1.85716
1.7152
1.6521
1.65812
1.65699
1.64794
1.65154
1.64473
1.64472
1.55489
1.61654
1.44167
1.49584
1.42132
1.43806
0.239829
0.16649
0.622983
0.403557
0.902806
0.843739
0.89953
1.055
1.43616
1.2469
1.47694
1.48074
1.59553
1.709
1.82995
1.82451
1.86948
1.83051
1.90652
1.93395
1.40813
1.39957
1.3648
1.33439
1.23194
1.27044
1.19541
1.20548
1.19596
1.1905
1.178
1.18572
1.11542
1.1394
1.16634
1.20568
1.25809
1.22794
1.18948
1.18798
1.122
1.11719
1.16439
1.21647
1.14422
1.18038
1.18213
1.14118
1.14652
1.1193
1.10842
1.07175
1.0724
1.07336
1.06536
1.18515
1.22212
1.18614
1.22683
1.5855
1.54335
1.44579
1.53708
1.45564
1.49981
1.51113
1.50605
1.51681
1.52204
1.4319
1.34045
1.26915
1.25905
1.32812
1.27586
1.25555
1.37142
1.26237
1.30893
1.25139
1.24765
1.25739
1.24859
1.26485
1.26014
1.25693
1.26025
1.25754
1.25784
1.26397
1.26332
1.2722
1.27386
1.27753
1.25156
1.26764
1.25127
1.22351
1.22464
1.25299
1.28119
1.27278
1.24855
1.23233
1.25577
1.29525
1.29783
1.30996
1.271
1.30286
1.31984
1.36036
1.3103
1.31744
1.34157
1.37568
1.4913
1.56078
1.49709
1.5422
1.58111
1.66259
1.57204
1.43014
1.56523
1.4608
1.47534
1.20834
1.15178
1.18181
1.16791
1.28689
1.4052
1.34107
1.41412
1.41156
1.42682
1.40468
0.691409
0.827566
0.984772
0.820509
1.06619
0.944635
0.0883748
0.240733
0.176162
0.0971513
0.00884328
0.250148
0.476186
0.70925
0.593393
0.627077
1.90477
1.91184
1.95397
1.92459
1.91466
1.89722
1.79994
1.71073
1.66697
1.66907
1.65008
1.63437
1.62463
1.62175
1.59877
1.59859
1.55053
1.59446
1.5135
1.46457
1.40603
1.36294
0.001
0.00107115
0.00107116
0.001
0.001
0.001
0.001
0.00107116
0.00107115
0.00107115
0.0794622
0.001
0.001
0.001
0.04016
0.001
0.136493
0.239527
0.245621
0.410084
0.870119
0.656377
0.966802
0.945558
1.14116
0.982827
1.34656
1.51335
1.52089
1.62045
1.8267
1.72103
1.84697
1.85625
1.86462
1.87745
1.92026
1.94335
1.32167
1.32424
1.27678
1.30353
1.24278
1.20472
1.19582
1.19656
1.19085
1.1958
1.14825
1.14002
1.09377
1.10116
1.16214
1.13013
1.10709
1.15261
1.14436
1.16258
1.07555
1.06386
1.08639
1.09697
1.10116
1.05497
1.05793
1.05527
1.06082
1.04429
1.04248
1.34392
1.31723
1.31829
1.31739
1.33852
1.44537
1.40185
1.38326
1.26374
1.30703
1.29376
1.29551
1.19329
1.13316
1.31829
1.42642
1.31284
1.32328
1.30516
1.37803
1.36649
1.43781
1.46515
1.39394
1.36646
1.40608
1.28628
1.25056
1.259
1.25117
1.16787
1.22908
1.15271
1.10495
1.08051
1.19859
1.20049
1.24724
1.24802
1.25476
1.25193
1.24704
1.25516
1.25171
1.26066
1.25413
1.27125
1.26764
1.27481
1.27234
1.29898
1.28606
1.31048
1.31517
1.26435
1.24489
1.31089
1.29482
1.28093
1.29727
1.28172
1.26943
1.32261
1.2956
1.40054
1.40952
1.35982
1.40349
1.41167
1.37775
1.46998
1.443
1.51115
1.52986
1.55635
1.47183
1.46977
1.46827
1.42266
1.43346
1.37782
1.47852
1.32734
1.29364
1.35285
1.37368
1.04799
1.10121
1.18352
1.30341
1.3351
1.36975
1.27624
1.24286
1.20203
1.14993
0.508983
0.597127
0.875958
0.664532
0.980198
1.05243
0.0227657
0.001
0.0102801
0.00957417
0.150411
0.001
0.531913
0.297953
0.4526
0.456893
0.001
0.001
0.001
0.001
0.001
0.00101
0.001
0.001
0.001
0.001
0.00112577
0.001
0.00109858
0.001
0.00112564
0.00112565
0.001
0.001
0.001
0.001
0.001
0.001
0.001
0.001
0.00100959
0.001
0.00100965
0.001
0.001
0.001
1.90277
1.91827
1.93889
1.92938
1.91048
1.84227
1.65023
1.74328
1.61823
1.61701
1.60388
1.60321
1.59605
1.59362
1.58839
1.59009
1.5288
1.50254
1.4068
1.44589
1.3049
1.34185
0.001
0.001
0.001
0.001
0.001
0.001
0.001
0.001
0.00101
0.001
0.001
0.001
0.001
0.001
0.001
0.001
0.001
0.00100737
0.001
0.001
0.001
0.001
0.001
0.001
0.0219157
0.173093
0.330484
0.306233
0.381136
0.554008
1.00921
0.813283
1.0266
1.02835
1.32581
1.15357
1.53584
1.48947
1.55786
1.66109
1.76234
1.83796
1.84898
1.84709
1.89495
1.9104
1.90829
1.88543
0.00112457
0.001
0.001
0.001
0.001
0.001
0.001
0.001
0.001
0.001
0.001
0.001
0.001
0.001
0.001
0.00101
0.001
1.30278
1.3037
1.30386
1.26819
1.18915
1.22485
1.14832
1.14098
1.10526
1.09945
1.05543
1.05179
1.08495
1.08314
1.04288
1.0779
1.0735
1.12002
1.10012
1.10313
1.02203
0.994997
0.996693
1.03675
1.04504
1.04547
1.02137
1.02379
0.98432
0.975418
0.938398
0.942776
1.54495
1.50884
1.55202
1.55851
1.50931
1.4653
1.63226
1.65761
1.72024
1.72698
1.2754
1.31467
1.36721
1.45098
1.26907
1.21836
1.25104
1.25343
1.0935
1.14205
1.20255
1.08544
1.29478
1.28994
1.30002
1.30168
1.31625
1.29804
1.31136
1.32711
1.20611
1.19857
1.10182
1.18117
1.17327
1.14093
1.08377
1.11246
1.05276
1.07023
1.04626
1.13285
1.19474
1.13489
1.19649
1.24937
1.25048
1.25466
1.24815
1.25628
1.27401
1.26609
1.28356
1.27872
1.29944
1.2948
1.31691
1.3159
1.31958
1.31714
1.32717
1.31982
1.36044
1.33481
1.29662
1.29902
1.36518
1.33224
1.33669
1.38138
1.4204
1.42055
1.41812
1.42229
1.45211
1.50407
1.56818
1.58572
1.59733
1.57264
1.71564
1.6566
1.7834
1.82378
1.81081
1.85301
1.90613
1.77022
1.85955
1.88013
1.95588
2.00554
2.03018
2.05095
2.08031
2.02443
2.08028
2.03744
2.11676
2.11726
2.16669
2.13415
2.19646
2.22727
2.21572
2.16451
2.23083
2.25487
2.22194
2.21702
2.28399
2.26227
2.29179
2.23498
2.23138
2.29802
2.26355
2.21989
2.21686
2.24845
2.28349
1.27072
1.23743
1.40953
1.39348
1.37573
1.37329
1.35386
1.1314
1.27064
0.968867
0.996506
1.09868
1.08864
0.960552
1.04013
1.03157
1.19948
1.10399
1.1092
1.01356
1.01561
1.02748
1.03882
0.577321
0.441282
0.846927
0.62938
0.837921
0.79294
0.001
0.001
0.001
0.001
0.001
0.001
0.172138
0.408434
0.30888
0.339842
0.001
0.001
0.001
0.001
0.00140409
0.001
0.001
0.001
0.001
0.001
0.001
0.001
0.001
0.001
0.00100829
0.001
0.001
0.001
0.0010095
0.001
0.001
0.00101942
0.001
0.0010149
0.001
0.001
0.00101
0.001
0.00109309
0.001
0.00109311
0.00109361
0.001
0.00109399
0.00109472
0.00109397
0.001
0.001
0.001
0.001
0.001
0.001
0.001
0.001
0.0010078
0.001
0.001
0.001
0.001
0.001
0.001
0.001
0.001
0.00101
0.001
0.001
1.89423
1.86437
1.86353
1.85225
1.77806
1.84246
1.67993
1.60334
1.60058
1.59839
1.5892
1.59668
1.53531
1.53466
1.38353
1.34424
1.30395
1.47542
1.47535
1.42678
1.42641
1.42189
0.001
0.001
0.00112828
0.00112946
0.001
0.001
0.001
0.001
0.00112946
0.001
0.001
0.00100893
0.001
0.001
0.001
0.001
0.001
0.001
0.001
0.0103256
0.398268
0.224151
0.430221
0.428568
0.670358
0.477237
0.87509
1.02482
1.15533
1.02787
1.32038
1.4875
1.52013
1.54385
1.63592
1.7546
1.80463
1.79785
1.83273
1.76233
1.82393
1.85862
1.82136
1.79904
0.00101
0.001
0.00100993
0.001
0.001
0.00119069
0.001
0.001
0.00119068
0.001
0.001
0.001
0.001
0.001
0.00101
0.001
0.001
0.001
0.00101
0.001
0.001
0.001
0.001
0.001
0.0022099
0.00101183
1.27781
1.27641
1.19756
1.21443
1.09241
1.11466
1.05219
1.0523
1.05077
1.05165
1.02512
1.02558
0.999887
1.00205
0.979252
1.0167
1.09473
1.05652
1.09448
1.09311
0.913692
0.933959
0.975824
0.955946
0.964568
0.967188
0.912732
0.907159
0.893115
0.902192
0.911911
0.912655
1.76525
1.76281
1.59288
1.50592
1.49435
1.48116
1.76225
1.67322
1.91888
1.99625
1.89289
1.81535
2.00863
1.98993
2.05519
2.10438
2.13538
2.13253
2.16458
2.13391
2.18934
2.21907
2.21199
2.21521
2.23089
2.21773
2.21928
2.26534
2.20922
2.20231
1.32457
1.25281
1.39619
1.46874
1.24795
1.19837
1.25088
1.25179
1.08098
1.13263
0.97165
1.1405
1.01936
1.29779
1.24608
1.29711
1.29301
1.29643
1.18948
1.09437
1.01402
1.00147
1.0182
1.04893
0.977958
0.97034
0.898142
0.978609
1.06531
1.05239
0.977878
1.07445
1.14351
1.09394
1.1972
1.15141
1.18518
1.2448
1.27868
1.25562
1.28535
1.28806
1.29885
1.28973
1.32439
1.33227
1.3331
1.3491
1.35424
1.35488
1.38801
1.39811
1.38794
1.38542
1.3884
1.37695
1.39861
1.41268
1.45654
1.45375
1.42055
1.45187
1.44899
1.4778
1.5138
1.57617
1.60624
1.60737
1.6182
1.68606
1.77076
1.84188
1.85704
1.98141
1.85623
1.90653
2.05618
2.08025
2.08026
2.11788
2.16667
2.21701
2.22724
2.23177
2.25883
2.28782
2.31327
2.3132
2.31267
2.31383
2.31441
2.29413
2.23252
2.29631
2.26222
2.21728
2.21799
2.2488
2.28205
2.29185
2.21861
2.27949
2.23888
1.06354
1.05253
1.12624
1.20153
1.09106
1.15611
1.2994
1.23038
1.25769
1.09586
0.99414
0.963249
0.96094
1.06008
1.0558
0.721944
0.82404
1.01047
0.904792
1.01493
1.01149
1.01979
1.01643
1.0288
1.04316
0.236832
0.399179
0.491054
0.669451
0.688144
0.692865
0.001
0.001
0.001
0.00101
0.001
0.001
0.0274183
0.001
0.150562
0.001
0.001
0.00140369
0.001
0.00101
0.001
0.001
0.001
0.001
0.001
0.001
0.00105171
0.001
0.001
0.001
0.001
0.001
0.001
0.001
0.001
0.001
0.001
0.001
0.001
0.001
0.001
0.00100349
0.001
0.001
0.001
0.001
0.001
0.001
0.001
0.00101
0.001
0.00100962
0.001
0.001
0.001
0.001
0.001
0.001
0.001
0.001
1.80618
1.80581
1.81158
1.79107
1.72149
1.78368
1.59597
1.65448
1.55074
1.55404
1.50026
1.48424
1.42974
1.42723
1.34117
1.23614
1.214
1.38017
1.42723
1.42503
1.41945
1.42887
0.00113022
0.001
0.00113152
0.001
0.001
0.001
0.001
0.001
0.00100548
0.001
0.001
0.001
0.001
0.001
0.001
0.00100999
0.001
0.001
0.001
0.109631
0.289273
0.431201
0.494446
0.452012
0.658301
0.833636
0.993178
1.02391
1.22036
1.05403
1.36185
1.49759
1.46587
1.57632
1.73979
1.64547
1.73006
1.728
1.71474
1.73877
1.80521
1.78329
1.80009
1.78057
0.001
0.001
0.001
0.001
0.001
0.001
0.001
0.001
0.001
0.001
0.001
0.001
0.001
0.001
0.001
0.001
0.001
0.001
0.001
0.00100999
0.001
0.001
0.00207317
0.001
0.00101
0.001
0.001
0.001
0.001
0.001
0.001
1.15198
1.15147
1.11587
1.09467
1.05156
1.07305
1.03826
1.03957
1.1957
1.13618
1.11534
0.96892
0.976023
0.907134
0.911402
0.977368
0.978137
0.970604
1.01
1.06963
1.02209
1.05546
1.04021
0.934034
0.91339
0.926985
0.948095
0.874933
0.874722
0.876077
0.885282
0.90024
0.89067
0.856684
0.861669
2.33867
2.34454
2.37413
2.35453
2.39438
2.38148
2.40499
2.39809
2.45335
2.44164
2.40397
2.45675
2.42677
2.47477
2.30683
2.25887
2.2791
2.32811
2.30935
2.27899
2.28261
2.33543
2.34036
2.31466
2.29562
2.34817
2.33152
2.34066
2.36489
2.21832
2.21864
2.21818
2.21719
2.23592
2.25704
1.81098
1.75455
1.65218
1.55525
1.46779
1.54468
1.74607
1.72733
1.96677
1.99153
1.8772
1.95952
1.99698
2.04586
2.09143
2.13493
2.12997
2.13435
2.12806
2.16132
2.17171
2.20042
2.18608
2.19078
2.19553
2.20595
2.18164
2.18208
1.37494
1.30417
1.24377
1.23564
1.29194
1.46885
1.44673
1.17396
1.23097
1.10615
1.03854
2.32304
2.34474
2.36043
2.36779
2.37306
2.38416
2.38653
2.41485
2.39871
2.41705
2.41692
2.46498
2.48561
2.51176
2.5097
2.51304
2.52984
2.55016
1.0178
0.960749
0.966446
1.22673
1.10904
1.28444
1.18402
1.10484
1.00347
1.0019
0.999441
1.00305
0.852915
0.930758
0.785662
0.802388
0.884092
0.808113
1.07249
0.997397
0.896888
1.09066
1.09648
1.09142
1.14792
1.1079
1.22968
1.18164
1.26415
1.22548
1.26317
1.28849
1.31304
1.33486
1.35886
1.36013
1.36843
1.36335
1.41829
1.40844
1.40158
1.39648
1.45189
1.4226
1.49486
1.45436
1.43841
1.47826
1.52334
1.5144
1.53759
1.57462
1.57482
1.51933
1.63044
1.6574
1.62888
1.61891
1.70033
1.78425
1.85614
1.92301
1.87226
1.88695
2.01542
2.07453
2.11758
2.09899
2.16413
2.19632
2.23861
2.25234
2.24635
2.26782
2.32422
2.30324
2.31558
2.32309
2.31439
2.31298
2.31253
2.31311
2.31244
2.31344
2.31362
1.04457
1.03802
1.06309
0.984612
1.00174
1.02219
0.957799
1.1
1.00392
0.939834
0.95595
0.933897
0.836127
0.940083
0.956296
0.739437
0.730131
0.688831
0.799864
1.0143
0.902954
0.910235
0.912441
0.699672
0.591597
0.39324
0.409202
0.324073
0.148379
0.146136
0.689513
0.510035
0.675324
0.673844
0.001
0.001
0.001
0.001
0.001
0.001
0.00100984
0.001
0.142195
0.001
0.001
0.001
0.00101
0.001
0.001
0.001
0.001
0.00241028
0.001
0.001
0.001
0.001
0.001
0.001
0.00100993
0.001
0.001
0.001
0.001
0.001
0.00101021
0.001
0.001
0.001
0.001
0.001013
0.001
0.001
0.001
0.001
0.001
0.001
0.001
0.001
0.00101
0.001
0.001
0.001
0.001
0.001
0.001
0.001
0.001
0.001
0.001
0.0021942
0.001
0.001
0.001
0.001
0.00219417
2.50641
2.47296
2.44584
2.54594
2.57951
2.57355
1.78966
1.7933
1.76902
1.75523
1.68975
1.76015
1.59509
1.51715
1.44182
1.4611
1.42211
1.41857
1.43438
1.43124
1.30289
1.21959
1.31008
1.38966
1.38591
0.001
0.001
0.001
0.001
0.001
0.001
0.001
0.001
0.001
0.001
0.00100943
0.001
0.001
0.987164
1.02435
1.051
0.001
0.001
0.001
0.001
0.282112
0.158065
0.455448
0.484911
0.644697
0.51214
0.823579
1.19255
1.33097
1.44299
1.44773
1.7836
1.68815
1.69535
1.49284
1.56494
1.65629
1.70151
1.70965
1.71939
1.72993
1.74683
1.73357
0.001
0.00118145
0.001
0.001
0.001
0.001
0.00100904
0.001
0.001
0.001
0.001
0.001
0.001
0.001
0.001
0.001
0.001
0.00100504
0.001
0.001
0.001
0.001
0.001
0.001
0.001
0.001
0.001
0.001
0.001
0.001
0.00101
0.00100979
0.001
0.001
0.001
0.001
0.001
1.15037
1.18639
1.17265
1.11445
1.11584
1.08626
1.10947
0.975675
1.00499
0.915166
0.915927
1.12131
1.10751
0.869518
0.867597
0.872033
0.872007
0.927334
0.907671
0.947279
0.891304
1.01608
0.964458
1.01384
1.02497
0.854558
0.81163
0.832069
0.864366
0.842644
0.840809
0.785241
0.818336
0.798652
0.785644
0.758808
0.764457
2.33943
2.35214
2.37374
2.39883
2.40048
2.40427
2.43322
2.4215
2.27128
2.26982
2.25398
2.27501
2.30646
2.26956
2.31314
2.29096
2.20569
2.19361
2.19205
2.22309
2.25167
2.22573
1.81574
1.73772
1.6308
1.72172
1.56912
1.4793
1.73312
1.73446
1.97505
1.97721
1.99257
1.89001
1.96647
2.079
2.02345
1.96845
2.00997
2.10795
2.12359
2.11192
2.12016
2.12643
2.15094
2.17821
2.16742
2.17861
2.17882
2.18034
2.18016
2.1794
2.17933
1.21712
1.22115
1.36262
1.44376
1.22089
1.30229
1.46023
1.47667
1.2109
1.15505
1.06797
1.13191
2.3539
2.31262
2.33203
2.37807
2.37621
2.37847
2.38792
2.41047
2.43179
2.44063
2.44354
2.4483
2.47149
2.51265
2.49326
2.50928
2.52763
2.57671
2.55146
2.3834
2.39515
2.4099
2.57842
2.58035
2.57126
0.965976
0.964333
0.959402
0.936341
1.03269
1.04888
0.847833
0.891426
0.923627
0.808924
0.847275
0.850663
0.779862
0.781245
0.781866
0.783359
0.814443
0.84521
0.950123
0.875653
0.874741
1.01948
1.09636
1.01319
1.16515
1.19503
1.12854
1.16676
1.22754
1.19261
1.32176
1.25933
1.33453
1.34942
1.35943
1.34776
1.39808
1.4385
1.47566
1.47285
1.47769
1.46813
1.49
1.47511
1.52421
1.52557
1.54837
1.55198
1.52827
1.52758
1.64744
1.69547
1.59288
1.65617
1.70317
1.66828
1.76663
1.81448
1.91021
1.95077
1.92609
2.01716
2.07151
2.17077
2.15715
2.21726
2.19037
2.28584
2.29354
2.28738
2.31361
2.34126
2.34303
2.39493
2.36227
2.38651
2.35181
2.35013
2.38492
2.31677
2.35324
2.31673
0.413366
0.731381
0.418294
0.694749
0.978483
0.962263
0.955342
0.941976
0.956237
0.813802
0.71106
0.705039
0.603526
0.802957
0.679171
0.705693
0.828498
0.0917121
0.0889109
0.468607
0.601323
0.588911
0.377781
0.263217
0.270608
0.050789
0.0626658
0.0774929
0.148731
0.145293
0.0540236
0.23242
0.132657
0.391067
0.191714
0.110551
0.0010004
0.001
0.001
0.001
0.001
0.001
0.00225236
0.001
0.001
0.0249497
0.001
0.001
0.00101
0.001
0.001
0.00219914
0.001
0.001
0.001
0.00100982
0.00138353
0.001
0.00100983
0.001
0.001
0.001
0.00101
0.001
0.00101068
0.00101146
0.001
0.001
0.00101247
0.00101207
0.001
0.001
0.001
0.001
0.00170707
0.001
0.00170699
0.001
0.001
0.001
0.001
0.00100984
0.00101
0.00100994
0.001
0.001
0.001
0.001
0.001
0.001
0.001
0.001
0.001
0.001
0.00138349
0.001
0.00100958
0.00100997
0.001
0.001
0.001
0.001
0.00101
2.45846
2.48131
2.47879
2.47352
2.50365
2.61425
2.60641
2.59974
2.6325
2.56078
1.69392
1.68116
1.6323
1.61738
1.57973
1.60911
1.51452
1.46643
1.47154
1.43339
1.39818
1.39465
1.31265
1.32496
1.18735
1.23261
1.23119
0.001
0.001
0.001
0.00101
0.001
0.001
0.001
1.02395
1.1644
1.02283
0.001
0.001
0.001
0.001
0.890736
0.725049
0.0588183
0.00687951
0.0861639
0.197287
0.487596
0.344305
0.521958
0.525909
0.559259
1.54563
1.57296
1.60488
1.30597
1.44716
1.44296
1.48254
1.60504
1.66567
1.65224
1.54788
1.63713
1.6516
1.66978
1.56984
1.62205
0.001
0.001
0.00118148
0.00101
0.001
0.001
0.00101
0.00115868
0.001
0.001
0.001
0.001
0.001
0.001
0.001
0.001
0.001
0.001
0.001
0.00101
0.001
0.001
0.001
0.001
0.001
0.00100577
0.001
0.001
0.001
0.001
0.001
0.00101
0.00100563
0.001
0.001
0.001
0.001
0.001
0.001
0.001
0.001
0.001
0.001
0.001
0.001
1.16842
1.17664
1.18971
1.05592
1.0753
1.03445
1.03764
0.965499
0.952281
0.86721
0.879798
0.866512
0.869475
0.969098
0.964627
0.815016
0.816405
0.778761
0.758844
0.855506
0.848411
0.873821
0.928631
1.01041
0.972689
1.0402
0.993204
0.793939
0.765994
0.823337
0.848053
0.723055
0.725213
0.700203
0.715103
0.759171
0.740866
0.762362
0.766324
2.34258
2.29493
2.37251
2.3412
2.341
2.40475
2.38113
2.43854
2.42144
2.45935
2.41101
2.37605
2.45883
2.39965
2.23644
2.2356
2.22657
2.23957
2.25368
2.26455
2.26414
2.27208
2.18041
2.17972
2.20268
2.18735
2.21709
2.22506
1.81714
1.74019
1.65665
1.73389
1.52846
1.62191
1.73455
1.74073
1.96747
1.9661
1.96808
1.89717
2.05371
2.10148
2.01287
1.96679
2.10702
2.10616
2.12062
2.10632
2.14372
2.16642
2.17527
2.17575
2.17629
2.17365
2.17924
2.18009
2.17708
2.17358
1.21573
1.21075
1.38004
1.45638
1.35704
1.27606
1.51343
1.45675
1.18973
1.21197
1.18338
1.10293
2.35342
2.38943
2.37221
2.39714
2.4163
2.40568
2.43975
2.45252
2.42891
2.44168
2.43343
2.44335
2.44742
2.47168
2.49007
2.5117
2.50927
2.56139
2.5393
2.59062
2.59386
2.46517
2.47916
2.59445
2.60483
0.699037
0.859377
0.729711
0.835703
0.761804
0.73648
0.694377
0.659705
0.683933
0.720873
0.616201
0.665593
0.667383
0.559766
0.614616
0.761179
0.876176
0.790822
0.886131
0.885609
0.877944
0.947526
1.09203
0.999344
1.18463
1.18026
1.1504
1.09787
1.21498
1.26523
1.32269
1.3067
1.33524
1.32183
1.44415
1.39091
1.49216
1.48537
1.5075
1.51553
1.48833
1.54529
1.58847
1.56282
1.54601
1.57616
1.62459
1.60995
1.59246
1.63366
1.71863
1.7187
1.71283
1.73227
1.86286
1.77766
1.94868
1.97288
1.9739
2.03928
2.11602
2.19161
2.2003
2.21294
2.26011
2.30891
2.34436
2.34582
2.38423
2.35603
2.40769
2.42489
2.42238
2.42449
2.42208
2.42389
2.39091
2.42184
2.39033
0.0736507
0.0619561
0.0853922
0.058829
0.366793
0.672286
0.354775
0.83428
0.700149
0.706451
0.549001
0.569598
0.578953
0.5689
0.575887
0.575298
0.569256
0.571859
0.575572
0.0898047
0.0764335
0.001
0.0157852
0.0535917
0.00774596
0.0537045
0.0557857
0.0229597
0.0346143
0.001
0.001
0.001
0.001
0.001
0.001
0.00208026
0.001
0.001
0.00100986
0.001
0.001
0.001
0.00189546
0.001
0.001
0.001
0.001
0.001
0.001
0.001
0.001
0.001
0.00100941
0.001
0.001
0.001
0.00100992
0.001
0.001
0.001
0.00101
0.001
0.001
0.001
0.001
0.001
0.001
0.0010008
0.001
0.001
0.001
0.00100949
0.001
0.001
0.001
0.001
0.001
0.001
0.001
0.001
0.001
0.001
0.00101
0.001
0.001
0.001
0.001
0.001
0.001
0.001
0.001
0.001
0.001
0.001
0.001
0.001
0.001
0.001
0.001
0.001
0.001
0.001
0.001
0.001
0.001
0.001
0.001
0.001
0.001
0.001
0.001
0.001
0.00106268
0.001
0.001
0.001
0.001
2.64362
2.63976
2.65148
2.61913
2.65855
2.65687
2.49881
2.49769
2.56815
2.52668
2.62128
2.66004
2.62579
2.50952
2.44069
1.56425
1.55877
1.53963
1.55176
1.5546
1.48426
1.53129
1.32339
1.38367
1.245
1.24194
1.18967
1.19075
1.18827
0.001
0.001
0.001
0.001
0.998406
1.18826
1.02096
0.001
0.001
0.976508
0.871653
0.001
0.0342765
0.001
0.001
0.567287
0.712324
0.0912052
0.0939719
0.239506
0.0956544
0.528733
0.381835
0.533495
1.56544
1.55897
1.56542
1.55446
1.55646
1.27345
1.38901
1.33439
1.44571
1.50994
1.53456
1.4631
1.54563
1.50272
1.5017
1.4847
0.001
0.001
0.001
0.001
0.001
0.001
0.001
0.001
0.001
0.001
0.001
0.00746247
0.001
0.001
0.001
0.0916714
0.0898914
0.0322335
0.001
0.001
0.0325127
0.001
0.001
0.001
0.001
0.00100955
0.001
0.001
0.001
0.001
0.001
0.001
0.001
0.001
0.001
0.001
0.00106612
0.001
0.0010663
0.001
0.001
0.001
0.001
0.001
0.001
0.001
0.001
0.001
0.001
0.001
0.0841662
0.001
0.001
0.001
0.001
0.001
0.001
1.16755
1.09675
1.08198
1.01065
1.00612
0.921077
0.910744
0.899709
0.899712
0.889073
0.898106
0.827981
0.839147
0.763231
0.749601
0.901022
0.902415
0.693607
0.684085
0.689701
0.696845
0.972556
1.03617
0.955201
0.84533
0.828356
0.905758
0.836446
0.922251
0.763077
0.732643
0.789342
0.744281
0.697441
0.701601
0.693596
0.712036
0.713424
0.681713
0.676439
0.658234
2.31113
2.29895
2.31041
2.29937
2.32675
2.29999
2.32429
2.40397
2.37928
2.40192
2.47515
2.41903
2.3732
2.2254
2.22492
2.25167
2.23995
2.264
2.26535
2.28656
2.27437
2.17883
2.18701
2.20942
2.19225
2.20732
2.21559
1.8559
1.77875
1.69929
1.73619
1.68315
1.58978
1.77355
1.73719
1.97268
1.9704
1.93281
1.9755
2.06188
2.10974
1.97405
2.01983
2.11131
2.10943
2.13175
2.11182
2.15272
2.17129
2.17092
2.17042
2.17103
2.17138
2.17662
2.17313
2.17104
2.17179
1.20853
1.2694
1.45602
1.43445
1.35553
1.43854
1.45983
1.53385
1.20404
1.20015
1.1951
1.11583
0.951217
0.996874
1.07664
2.42219
2.42621
2.45293
2.44494
2.46967
2.48118
2.48106
2.48139
2.51686
2.49846
2.51101
2.47376
2.50599
2.51835
2.54127
2.56049
2.57335
2.56824
2.62253
2.62189
2.64779
2.62486
2.53808
2.54196
2.6629
2.65647
0.478353
0.545466
0.429711
0.658352
0.580402
0.659614
0.658128
0.645765
0.57573
0.505272
0.442569
0.447063
0.467972
0.528982
0.696506
0.604303
0.577993
0.782316
0.935247
0.893867
0.749246
0.98553
1.02822
1.04504
1.02942
1.12893
1.20476
1.08349
1.30788
1.2385
1.31286
1.31997
1.40951
1.34864
1.4712
1.50377
1.5001
1.50209
1.62785
1.58997
1.56003
1.61392
1.6404
1.63428
1.62672
1.61922
1.63229
1.63454
1.71386
1.75641
1.79423
1.75049
1.79497
1.81982
1.95987
1.89357
1.98661
1.97248
2.05398
2.12818
2.21611
2.21129
2.24774
2.28536
2.36204
2.35056
2.37481
2.37885
2.40671
2.41813
2.43436
2.42896
2.43771
2.43565
2.4249
2.43506
2.42298
2.42281
0.0131579
0.001
0.043473
0.0187612
0.0195395
0.0443262
0.0196833
0.209494
0.0156721
0.569158
0.585211
0.103169
0.308866
0.579712
0.569044
0.576427
0.569957
0.571967
0.576652
0.50957
0.407239
0.001
0.001
0.001
0.001
0.001
0.0135512
0.001
0.001
0.001
0.001
0.00101
0.001
0.001
0.00100863
0.00187097
0.001
0.001
0.001
0.0038086
0.001
0.001
0.001
0.00100974
0.001
0.001
0.001
0.00100983
0.001
0.001
0.00100647
0.001
0.00100976
0.001
0.001
0.001
0.001
0.001
0.00340988
0.001
0.001
0.001
0.001
0.001
0.00132695
0.00132688
0.0013269
0.001
0.001
0.001
0.001
0.001
0.001
0.001
0.001
0.001
0.001
0.001
0.001
0.001
0.001
0.001
0.001
0.001
0.001
0.001
0.001
0.001
0.001
0.001
0.001
0.001
0.001
0.001
0.001
0.001
0.001
0.001
0.001
0.001
0.001
0.001
0.001
0.001
0.001
0.001
0.00101
0.001
0.00167599
0.001
0.001044
0.001
0.00102191
0.001
0.001
0.001
2.66985
2.69386
2.69987
2.66387
2.6659
2.64529
2.65568
2.53836
2.5413
2.57264
2.59458
2.59585
2.63336
2.6666
2.51244
2.52869
2.45013
2.48512
2.47714
1.56612
1.54638
1.45257
1.41318
1.50943
1.44872
1.45723
1.32742
1.34916
1.21816
1.19013
1.19092
1.18945
1.16624
0.001
0.001
1.1064
1.21777
0.996101
0.001
0.001
0.951972
0.947067
0.001
0.001
0.688067
0.823337
0.0528482
0.131958
0.0675662
0.0274799
0.546361
0.553928
0.143229
0.177956
0.22311
0.321676
0.472677
1.51666
1.55662
1.54133
1.51488
1.28084
1.27744
1.30155
1.37863
1.48724
1.48713
1.44232
1.49331
1.48868
0.0142678
0.0139095
0.0132718
0.0255694
0.0460937
0.0704402
0.0767715
0.0752527
0.0846925
0.106423
0.120205
0.149178
0.148112
0.163667
0.206066
0.234634
0.195868
0.280008
0.238362
0.193396
0.229805
0.235724
0.244204
0.001
0.001
0.00106629
0.001
0.001
0.00101
0.001
0.001
0.001
0.001
0.001
0.001
0.001
0.001
0.001
0.001
0.001
0.001
0.0718986
0.0993655
0.163017
0.196745
0.265529
0.14177
0.001
0.001
0.358686
0.240489
0.278109
0.311187
0.001
0.001
0.001
0.001
0.001
0.001
0.001
0.001
0.001
0.001
1.08398
1.00058
1.00145
0.941203
0.940552
0.913418
0.932785
0.903813
0.938841
0.865467
0.868598
0.774497
0.793114
0.696737
0.702289
0.67451
0.672385
0.82285
0.798102
0.682831
0.672564
0.675905
0.667984
0.893152
0.937719
0.775083
0.749292
0.819339
0.937836
0.998105
0.955221
0.685096
0.64164
0.706186
0.730152
0.630558
0.613033
0.606782
0.576483
0.611345
0.579774
0.604558
0.62268
2.30109
2.28342
2.38554
2.31083
2.33115
2.34287
2.36031
2.33802
2.3633
2.42046
2.37102
2.4463
2.41426
2.48043
2.20649
2.22806
2.2244
2.24532
2.22699
2.25212
2.2926
2.24823
2.17281
2.18316
2.18868
2.19853
2.19689
2.19738
1.91108
1.83117
1.71919
1.73815
1.64041
1.73076
1.74326
1.80194
1.97847
1.97856
1.97867
1.95525
2.06787
2.11489
2.03586
1.98831
2.11377
2.11514
2.12054
2.14024
2.17055
2.15858
2.1707
2.17029
2.1704
2.171
2.17157
2.17081
2.17113
2.17051
1.29051
1.1968
1.46344
1.46774
1.37899
1.47114
1.47086
1.56929
1.1953
1.19492
1.17479
1.15925
1.09854
1.19697
2.43571
2.45542
2.47539
2.51049
2.50519
2.52564
2.53959
2.54722
2.55579
2.54298
2.55019
2.57286
2.58948
2.60448
2.60419
2.61337
2.63646
2.65515
2.66582
2.66685
2.67886
2.55428
2.54225
2.70137
2.71809
0.303922
0.334657
0.320246
0.40837
0.521942
0.603932
0.500465
0.518725
0.433428
0.446148
0.444582
0.471473
0.569407
0.519011
0.595248
0.594359
0.595123
0.657974
0.72321
0.898037
0.820906
0.981988
1.0662
1.05989
0.971066
1.12752
1.136
1.22458
1.28696
1.2544
1.33423
1.27446
1.46894
1.39526
1.50365
1.50218
1.51806
1.57736
1.70457
1.71133
1.65275
1.68007
1.71244
1.6593
1.7677
1.6928
1.66909
1.70875
1.83796
1.85163
1.91384
1.96832
1.84975
1.94327
2.08581
2.03604
2.10478
2.07346
2.26816
2.23269
2.30104
2.31531
2.38713
2.3995
2.45993
2.42813
2.47407
2.45897
2.47807
2.50989
2.48294
2.51232
2.51925
2.47936
2.46775
2.5086
2.5065
2.4791
0.001
0.001
0.001
0.001
0.001
0.001
0.001
0.001
0.001
0.001
0.001
0.042111
0.304587
0.001
0.001
0.394531
0.136727
0.568252
0.407839
0.493701
0.583974
0.417372
0.316524
0.001
0.001
0.001
0.001
0.001
0.001
0.001
0.00141354
0.00100995
0.001
0.001
0.001
0.001
0.001
0.00100156
0.001
0.001
0.001
0.001
0.001
0.001
0.001
0.001
0.0010095
0.00101
0.00100891
0.001
0.001
0.001
0.001
0.00128873
0.001
0.001
0.00128866
0.001
0.001
0.001
0.00100996
0.00167594
0.001
0.00124847
0.001
0.001
0.001
0.001
0.00101
0.001
0.001
0.001
0.001
0.001
0.001
0.001
0.001
0.001
0.001
0.001
0.001
0.001
0.001
0.001
0.001
0.001
0.001
0.001
0.001
0.001
0.001
0.001
0.001
0.001
0.001
0.001
0.001
0.001
0.001
0.001
0.001
0.001
0.001
0.001
0.001
0.001
0.001
0.001
0.001
0.001
0.001
0.001
0.001
0.001
0.001
0.001
0.001
0.001044
0.001
0.001
0.001
0.00124849
0.001
0.001
2.7238
2.71091
2.7247
2.68379
2.68288
2.70349
2.69682
2.67178
2.69828
2.54968
2.60411
2.58514
2.57163
2.62593
2.7271
2.71983
2.57907
2.47466
2.50762
2.49792
2.49712
2.48396
2.52359
2.41342
1.3199
1.41468
1.32241
1.3541
1.36441
1.26125
1.26681
1.27225
1.26678
1.26698
1.24485
1.16273
1.13813
1.05346
1.05589
1.16749
1.27907
0.0223342
0.0369038
0.944933
0.947206
0.0506208
0.0671838
0.882254
0.75042
0.0642816
0.0820102
0.622732
0.554423
0.223343
0.186043
0.14666
0.555619
0.480122
0.240387
0.27412
0.377543
1.42267
1.35048
1.32571
1.41076
1.27768
1.30182
1.43707
1.36689
1.41365
1.49014
1.48281
0.0193966
0.014269
0.0248831
0.0142663
0.0722248
0.0502029
0.0784689
0.0743394
0.0755991
0.109559
0.160252
0.128544
0.165749
0.159277
0.222073
0.181978
0.279284
0.278521
0.27946
0.265587
0.277507
0.279273
0.276851
0.275968
0.001
0.001
0.001
0.00369762
0.001
0.00100998
0.00367087
0.001
0.001
0.001
0.001
0.001
0.001
0.001
0.001
0.001
0.001
0.001
0.001
0.00101
0.001
0.394239
0.410737
0.362974
0.420659
0.442569
0.495497
0.399868
0.112446
0.558917
0.578076
0.334534
0.274209
0.001
0.001
0.001
0.001
0.001
0.001
0.001
0.001
0.001
0.001
0.001
0.001
0.001
0.001
0.001
0.001
0.939118
0.940331
0.970832
0.941245
0.94256
0.939245
0.938787
0.760615
0.760387
0.845069
0.855961
0.723285
0.723365
0.682668
0.678357
0.677768
0.6727
0.646376
0.644625
0.686841
0.683983
0.58841
0.578487
0.535142
0.552096
0.863809
0.787824
0.729732
0.94412
0.845229
0.975733
1.07534
1.00214
0.684656
0.642837
0.741886
0.722812
0.509632
0.516821
0.520854
0.553965
0.581566
0.609739
0.639328
0.619313
2.26892
2.24779
2.25599
2.31928
2.29118
2.31215
2.29415
2.32692
2.34334
2.38106
2.38047
2.38134
2.41648
2.38426
2.483
2.19762
2.20095
2.20568
2.20999
2.20999
2.20965
2.21553
2.23738
2.22611
2.1757
2.18412
2.19255
2.19711
2.19722
1.87885
1.95437
1.76144
1.75611
1.67427
1.77287
1.835
1.76808
1.98961
2.00215
2.00682
1.99077
2.11679
2.07916
2.04822
2.08465
2.12904
2.11985