/*--------------------------------*- C++ -*----------------------------------*\
  =========                 |
  \\      /  F ield         | OpenFOAM: The Open Source CFD Toolbox
   \\    /   O peration     | Website:  https://openfoam.org
    \\  /    A nd           | Version:  8
     \\/     M anipulation  |
\*---------------------------------------------------------------------------*/
FoamFile
{
    version     2.0;
    format      ascii;
    class       volScalarField;
    location    "13800";
    object      H;
}
// * * * * * * * * * * * * * * * * * * * * * * * * * * * * * * * * * * * * * //

dimensions      [0 1 0 0 0 0 0];

internalField   nonuniform List<scalar> 
526318
(
0.769597
0.727247
0.800435
0.712374
0.78713
0.736673
0.755535
0.671156
0.732795
0.611069
0.589884
0.713367
0.656485
0.696977
0.656792
0.682074
0.654648
0.855919
0.766439
0.8084
0.806396
0.759154
0.5171
0.761627
0.645717
0.511277
0.783728
0.782496
0.782937
0.796145
0.824926
0.869497
0.854392
0.737351
0.734845
0.704941
0.709862
0.797375
0.732283
0.67858
0.741052
0.709462
0.371601
0.428736
0.33046
0.377529
0.352145
0.476405
0.657316
0.551034
0.645619
0.639559
0.5955
0.552682
0.0519
0.301463
0.294063
0.0911762
0.812453
0.823704
0.847127
0.798464
0.742415
0.871458
0.863344
0.824803
0.812889
0.810684
0.716093
0.710257
0.819562
0.600616
0.651235
0.545805
0.501557
0.490752
0.589043
0.58462
0.497261
0.542222
0.621261
0.622204
0.575823
0.531877
0.562072
0.627638
0.629987
0.603728
0.557825
0.624438
0.535178
0.47814
0.475851
0.408212
0.405182
0.407193
0.410392
0.403615
0.40247
0.399186
7.97638e-05
2.15653e-06
0.000293865
0.000723615
0.000900877
0.000148343
0.311301
0.12495
0.435574
0.403688
0.443442
0.56004
0.782017
0.674571
0.783016
0.796596
0.862352
0.834703
0.877308
0.399066
0.395749
0.40019
0.405431
0.359367
0.396503
0.309023
0.35276
0.26278
0.31045
0.261476
0.260158
0.250263
0.227462
0.216533
0.246668
0.186312
0.240187
0.192781
0.210939
0.156906
0.1606
0.18324
0.212935
0.199923
0.154427
0.154085
0.173853
0.158856
0.160759
0.163526
0.172259
0.166417
0.169157
0.161438
0.161629
0.136703
0.164854
0.156954
0.132646
0.0939
0.158797
0.121995
0.17272
0.665325
0.761164
0.706354
0.688512
0.493124
0.56191
0.494764
0.492715
0.492729
0.491819
0.514245
0.492806
0.428652
0.398684
0.365876
0.307291
0.365072
0.409306
0.408198
0.407869
0.294072
0.346499
0.233175
0.242141
0.252827
0.241675
0.245987
0.246801
0.236465
0.2395
0.235354
0.220725
0.201754
0.227348
0.219956
0.189332
0.168151
0.19894
0.183522
0.176184
0.192188
0.18594
0.186346
0.148828
0.166478
0.200023
0.192237
0.646873
0.664189
0.692176
0.674566
0.657021
0.648414
0.650336
0.525349
0.567379
0.314718
0.294331
0.287973
0.416527
0.552487
0.419894
0.455856
0.465012
0.412018
0.385726
0.000618929
1.08244e-16
4.78269e-10
0.234138
0.00027704
9.76159e-09
0.000995694
0.000255125
0.000396609
0.000963311
0.864085
0.844305
0.894371
0.886482
0.853569
0.84357
0.753655
0.835548
0.679723
0.630646
0.629658
0.625709
0.626643
0.630765
0.616357
0.615948
0.533299
0.594454
0.412824
0.469397
0.39687
0.411498
0.00100536
4.55059e-11
0.000154997
0.00100202
0.000103589
0.000987509
0.000142029
0.0305142
0.408562
0.222798
0.457675
0.462255
0.5714
0.673805
0.792276
0.795626
0.833617
0.811167
0.879143
0.905334
0.377751
0.377645
0.338142
0.31063
0.206793
0.245609
0.169766
0.181199
0.169881
0.165798
0.151761
0.156887
0.0937047
0.106627
0.143389
0.176255
0.230257
0.211318
0.159133
0.161761
0.0960338
0.0897198
0.132814
0.185094
0.107955
0.151579
0.151034
0.122791
0.118762
0.0856935
0.0775503
0.0439396
0.04573
0.0519274
0.0345052
0.16169
0.193384
0.163482
0.204923
0.563402
0.524941
0.428809
0.508755
0.428547
0.481648
0.492559
0.479709
0.493512
0.495091
0.404035
0.320513
0.251314
0.227255
0.308451
0.243554
0.234442
0.344136
0.230986
0.28747
0.223856
0.225781
0.234625
0.225535
0.240297
0.233841
0.232846
0.234826
0.231224
0.232833
0.241136
0.236422
0.248294
0.247008
0.248606
0.228821
0.242033
0.228788
0.202952
0.195206
0.229225
0.257138
0.246086
0.221051
0.211167
0.234125
0.274638
0.285668
0.281393
0.256555
0.281301
0.304961
0.336474
0.29726
0.295857
0.308429
0.350666
0.47089
0.556172
0.469299
0.500122
0.574322
0.641566
0.549519
0.412269
0.526334
0.427071
0.447835
0.183266
0.129851
0.159927
0.14393
0.266011
0.384859
0.312995
0.383829
0.380417
0.403819
0.382616
2.95166e-09
0.000699573
0.00053801
4.94584e-06
0.0386023
0.000585328
0.000599399
0.00100998
0.000476803
0.00100962
0.000664765
0.00100889
0.000730728
0.000955715
0.000582482
0.000952703
0.888683
0.878031
0.91562
0.903051
0.88052
0.851945
0.777957
0.695788
0.624725
0.642793
0.61806
0.620889
0.594856
0.598226
0.578546
0.576393
0.52523
0.571052
0.495973
0.432772
0.382373
0.336256
0.000937915
0.00107253
0.00107253
0.000663073
0.000612523
0.000731205
0.000593157
0.00107254
0.00107251
0.00107253
0.00100999
0.00100984
0.000550093
0.00100942
0.000924102
0.000172183
0.000288255
0.000487392
0.000977135
0.00096135
7.31626e-08
0.000978536
0.000793614
1.85613e-05
0.113408
0.000486887
0.324045
0.482028
0.496795
0.58803
0.80975
0.699935
0.82077
0.819755
0.836955
0.864008
0.896677
0.910883
0.297913
0.298314
0.252054
0.278355
0.216809
0.180078
0.172091
0.169218
0.163315
0.169291
0.12183
0.116271
0.0580216
0.0902896
0.134551
0.108205
0.0870692
0.131054
0.125327
0.140717
0.0487853
0.0402148
0.0594602
0.0754573
0.0742223
0.0313866
0.0358839
0.0306553
0.0360366
0.0172703
0.0185945
0.318601
0.289474
0.287584
0.303821
0.312361
0.423226
0.379619
0.361958
0.237661
0.285106
0.267061
0.273496
0.166698
0.114381
0.287762
0.405027
0.289267
0.294838
0.278348
0.361815
0.332972
0.408345
0.438708
0.370175
0.35009
0.382541
0.255757
0.233752
0.229403
0.230746
0.142664
0.196975
0.120978
0.0777403
0.0591422
0.178971
0.17547
0.227632
0.226371
0.223644
0.227295
0.22365
0.22876
0.223946
0.235657
0.228073
0.248374
0.24192
0.251063
0.252485
0.277619
0.262552
0.28668
0.287009
0.239155
0.224446
0.284488
0.271823
0.255679
0.280787
0.257491
0.247522
0.299484
0.278203
0.379675
0.389976
0.343823
0.385582
0.392668
0.357741
0.450812
0.417625
0.485432
0.51367
0.531498
0.44436
0.445612
0.449606
0.405617
0.39203
0.357118
0.446719
0.304863
0.272223
0.328292
0.348576
0.026727
0.0759308
0.160545
0.276411
0.30981
0.347471
0.250428
0.211157
0.17713
0.118618
0.000965631
0.000310861
1.18456e-06
1.84795e-07
0.00082927
0.0271028
0.000993891
0.000234006
0.00100979
0.000545241
0.00024476
0.000470015
0.000926911
0.000208943
0.000889372
0.000986846
0.000766556
0.000551352
0.000138864
0.000388285
0.00097475
0.00101
0.000137783
0.000999779
0.0009119
0.000354496
0.00118542
0.000875964
0.0010733
0.000989773
0.00118522
0.00118523
0.000911071
0.000999494
0.0009727
0.000201819
9.59135e-05
0.000989075
0.000892979
0.0009482
0.00100959
0.000881287
0.00100965
0.000996543
2.65749e-05
0.000931251
0.882616
0.892804
0.915516
0.901562
0.882306
0.810743
0.627749
0.716764
0.600758
0.597361
0.579604
0.576163
0.570944
0.570258
0.562136
0.565905
0.511083
0.478016
0.379305
0.423999
0.27817
0.317697
0.000991774
0.000624444
0.000948563
0.000967574
0.000969466
0.000982262
0.00097725
0.000870723
0.00101
0.000797378
0.000677989
0.000965569
0.000971308
0.000759356
0.000380116
0.000991326
0.000690401
0.00100737
0.000803925
0.000839513
0.000369052
0.000975289
0.000889611
0.000439439
0.000917861
0.00068906
0.00101
0.000641909
7.38314e-06
6.82991e-05
0.000555011
0.000719123
0.000305248
0.000695427
0.29566
0.12923
0.506223
0.466854
0.531253
0.638559
0.740942
0.820907
0.831824
0.822737
0.8642
0.892913
0.877532
0.87893
0.00115884
0.000879511
0.000886173
0.000251317
0.00065897
0.000922867
0.00081396
0.000937555
0.000890554
0.000725685
0.000975785
0.00092383
0.000794854
2.99799e-07
0.000880516
0.00101
0.000170373
0.277831
0.278155
0.277708
0.241644
0.166984
0.197692
0.122743
0.11363
0.0836109
0.0755643
0.0308441
0.0283215
0.0553847
0.056045
0.0159142
0.0530811
0.0396672
0.0994904
0.077913
0.0810192
0.00117144
0.000940328
0.000782167
0.0128762
0.0206486
0.020434
0.000438484
0.000991843
0.000869543
0.000997075
0.000920122
0.000388901
0.515619
0.487686
0.527555
0.535096
0.487886
0.437573
0.612396
0.629062
0.692326
0.700764
0.25256
0.292025
0.342769
0.427207
0.245275
0.187015
0.226378
0.22851
0.0693198
0.13079
0.169656
0.0625778
0.275902
0.278167
0.270165
0.275883
0.288412
0.273268
0.290363
0.300729
0.182185
0.181783
0.0753657
0.151812
0.166005
0.113878
0.0681188
0.0672452
0.019301
0.0392098
0.026236
0.112522
0.175087
0.10887
0.17067
0.22508
0.223295
0.222175
0.223606
0.228883
0.251631
0.242221
0.263786
0.260781
0.269527
0.268013
0.288183
0.287588
0.293316
0.296451
0.305682
0.301136
0.337098
0.305244
0.281038
0.283869
0.34158
0.308779
0.316639
0.351306
0.391899
0.391678
0.392078
0.387977
0.423795
0.482107
0.538064
0.563518
0.566646
0.54988
0.690564
0.625571
0.764399
0.804311
0.788335
0.826627
0.880562
0.749735
0.833385
0.852131
0.928091
0.976267
0.999554
1.02921
1.06108
0.992607
1.05156
1.00619
1.09845
1.10033
1.14049
1.10834
1.17155
1.20268
1.1924
1.14109
1.20386
1.22754
1.19333
1.19094
1.25769
1.23428
1.26465
1.20873
1.20408
1.273
1.2366
1.19686
1.19053
1.22471
1.25916
0.245444
0.216771
0.386951
0.383146
0.345055
0.339921
0.34778
0.101897
0.240121
0.000814194
7.64425e-05
0.0761396
0.0592572
0.000924874
0.000111263
0.00485711
0.179026
0.0844876
0.0827715
4.65297e-05
0.000384721
0.000871392
0.0143567
0.000348275
0.00101
4.64177e-07
5.8384e-05
9.07284e-06
5.35186e-05
0.00101
0.000966006
0.000995857
0.000562982
1.27013e-05
0.00167701
0.000842141
0.000928041
0.000844807
0.000691483
0.000347319
0.00069126
0.000943677
0.000831092
0.00135425
0.000413476
0.00012748
0.000146108
0.000949
0.000431299
6.93167e-06
1.61879e-05
0.000990101
0.00093513
0.00100829
0.000756912
0.000911134
0.000410555
0.00100928
0.000995856
0.000892749
0.0010493
0.00075839
0.00100665
0.000974989
0.000926586
0.00101
0.00057983
0.00103971
0.000989105
0.00103444
0.000909631
0.00100234
0.00090645
0.00101
0.00101
0.000467339
0.000585417
0.000993933
0.000773625
0.000877713
0.00099375
0.000922247
0.000776475
0.0010078
0.000994205
0.000136415
0.000956593
0.000950381
0.000921886
0.000915695
0.000919934
0.000616083
0.00101
0.000623175
0.000968314
0.869765
0.862302
0.833237
0.832271
0.749796
0.82229
0.641003
0.581592
0.571767
0.567535
0.572128
0.568849
0.507319
0.512366
0.358642
0.31842
0.277949
0.451384
0.451905
0.399052
0.402217
0.399962
0.000880895
0.00041693
0.00109227
0.00109203
0.000962471
0.000414864
0.00093308
0.000410365
0.00109135
0.000928456
0.000161511
0.00100893
0.000972717
0.000941946
0.000297472
0.000985833
0.000726155
0.00091818
0.00021426
0.00071546
0.000419804
0.000951565
0.00138851
0.00138863
3.81621e-05
5.75462e-06
0.000169957
0.000987693
0.131456
0.000579007
0.29692
0.46224
0.495985
0.52536
0.606506
0.717434
0.782622
0.762914
0.804089
0.742306
0.793408
0.832204
0.78947
0.786114
0.00104602
0.00099822
0.00101
0.000849207
0.000904219
0.00119383
0.00075934
0.000801148
0.00119383
0.000964874
0.000981161
0.000996251
2.95998e-06
1.14836e-05
0.000994615
0.000373012
6.03888e-18
0.00072123
0.00101
0.000253336
0.000277025
0.000765241
0.00096459
0.000879022
0.00205511
0.00101098
0.251905
0.251293
0.173582
0.187363
0.0668052
0.0896913
0.0256021
0.0254395
0.0233754
0.026871
0.000897557
0.000972812
0.000951465
0.000859649
0.000166457
0.000772386
0.0639887
0.0305469
0.0640651
0.0678507
0.000588541
0.000294559
0.000470009
0.0008342
0.00030944
0.000941822
0.000717662
0.000602104
0.000980152
0.000764758
0.00121155
0.000696663
0.74786
0.739379
0.569268
0.483716
0.47238
0.455085
0.735567
0.66162
0.893306
0.966514
0.872446
0.792326
0.985332
0.957144
1.02466
1.08312
1.11083
1.10831
1.13879
1.11128
1.16642
1.19416
1.18948
1.19273
1.20784
1.19273
1.19932
1.24514
1.18678
1.17904
0.306223
0.232264
0.367749
0.445176
0.221777
0.172867
0.225057
0.23488
0.0535942
0.114901
5.9263e-05
0.109619
0.000622009
0.269546
0.214842
0.270015
0.260168
0.273867
0.168377
0.0673489
0.00104383
0.000170601
6.17704e-05
0.0297389
3.95253e-323
9.16209e-34
1.64962e-06
0.000969649
0.0365978
0.0331288
2.53028e-05
0.0496324
0.119916
0.0697333
0.16968
0.116062
0.15958
0.214716
0.258857
0.22919
0.267056
0.264853
0.269108
0.262202
0.30477
0.316119
0.305563
0.323117
0.326892
0.32838
0.358577
0.361518
0.357882
0.352024
0.356356
0.35014
0.367463
0.381201
0.434792
0.420786
0.38894
0.417895
0.418648
0.453385
0.485127
0.553709
0.583516
0.57611
0.587852
0.665334
0.750011
0.818159
0.83094
0.951837
0.828404
0.878417
1.03566
1.05291
1.06251
1.09224
1.14325
1.19126
1.20076
1.20519
1.23639
1.26019
1.29181
1.28938
1.29076
1.29071
1.29107
1.27353
1.21377
1.27338
1.24138
1.19456
1.19827
1.22609
1.25826
1.26664
1.19414
1.25415
1.21548
0.035569
0.0276509
0.108029
0.178655
0.0777459
0.130926
0.277546
0.215229
0.229685
0.0567455
0.000744836
1.38464e-06
0.000706991
0.037835
0.0294875
0.00023517
0.000249607
0.000265442
0.000963336
0.00114565
0.00114567
0.000370642
0.000444648
0.00395057
0.0206559
0.000871197
0.000795729
0.000978231
0.000388671
0.00147435
0.00147468
0.00086849
0.000172666
0.000433752
0.00167687
0.000981197
0.000701519
0.000478021
0.000315336
0.000466479
0.00101
0.000778506
0.0013538
0.000928609
0.00101
0.000608562
0.000660221
0.000998234
0.000701989
0.000938544
0.000874495
0.00105202
0.000944861
0.000791252
0.000751098
0.000990039
7.57449e-05
0.00099613
0.000976554
0.000151024
0.000654096
0.000544652
0.000936558
0.000843756
0.000934788
0.000963659
0.00099826
0.000978339
0.000943996
0.000974885
0.00092222
0.000207016
0.000979907
0.000919067
0.00101
0.000732523
0.00100962
0.000641972
0.000367709
0.000916152
0.000960434
0.000963615
0.000892128
0.000593987
0.000479733
0.779596
0.779793
0.76351
0.768787
0.694198
0.761732
0.570659
0.634283
0.530605
0.524488
0.471846
0.458964
0.398347
0.401985
0.317125
0.21169
0.186511
0.355933
0.40081
0.399894
0.399893
0.400082
0.00109176
0.000991438
0.00109149
0.000601983
0.000973634
0.000973647
0.00094649
0.000972052
0.00100548
0.000830393
0.000135327
0.000443538
0.00093376
0.000997208
0.00060297
0.00100999
0.00098232
3.53596e-05
0.000985985
0.000873381
0.000276721
0.000445725
0.000655599
0.00101
0.000321117
3.32274e-05
0.000166925
0.000708275
0.193843
0.029323
0.33424
0.468748
0.440741
0.550905
0.717639
0.619829
0.699068
0.695596
0.692115
0.716019
0.77476
0.770697
0.775664
0.751056
0.000769413
0.000922585
0.000564318
0.000958878
0.000712787
0.000933944
0.000627141
0.000452485
0.000819551
0.000879841
0.000957505
0.000856862
0.000968979
1.09223e-13
0.000922039
0.000873917
0.00096514
0.000987798
0.000743529
0.00100999
0.000468733
8.53415e-07
0.00193177
0.000901385
0.00101
0.000860782
0.000668131
0.000489708
0.000136748
6.87913e-12
0.00098545
0.128193
0.12814
0.0862673
0.0647648
0.0262603
0.0482884
0.0126643
0.0129111
0.169768
0.112506
0.087422
0.000186446
0.000972598
0.000408908
0.00100989
0.00125071
0.0012507
0.000226997
0.000978539
0.0438061
0.000959318
0.0326287
0.0183381
0.000830286
0.000590945
0.000349619
0.000321103
0.000587295
0.00100971
1.30661e-05
0.00052455
0.000737284
0.000689738
0.000594218
0.000809643
1.3111
1.32136
1.34597
1.32252
1.36806
1.35412
1.37677
1.36824
1.42447
1.41232
1.3792
1.43039
1.39142
1.45243
1.27933
1.23172
1.25124
1.30012
1.27971
1.24774
1.25266
1.30778
1.30919
1.28888
1.26455
1.32234
1.30252
1.3075
1.34089
1.19393
1.20001
1.19852
1.19316
1.21272
1.23325
0.795931
0.729566
0.62735
0.532808
0.440048
0.518935
0.718656
0.713014
0.939628
0.96569
0.849774
0.946071
0.968647
1.02135
1.06333
1.11135
1.1066
1.10966
1.10684
1.13932
1.15032
1.1789
1.16635
1.16824
1.17186
1.18269
1.16208
1.1568
0.34913
0.283807
0.219971
0.213659
0.269949
0.440573
0.426595
0.158048
0.220886
0.074233
0.0165267
1.29827
1.31831
1.33592
1.34204
1.34603
1.35856
1.36054
1.39107
1.37083
1.3919
1.38524
1.43564
1.46134
1.48545
1.48927
1.49377
1.50393
1.5268
0.000895896
0.000602303
0.00145911
0.196045
0.0883295
0.2528
0.162078
0.0785632
0.00128808
0.000899469
0.00128866
0.00128776
0.000150505
0.000190351
0.000879062
0.000634227
1.55543e-49
6.10001e-120
0.0435144
0.000710712
0.000380532
0.0684235
0.0726064
0.0673945
0.118505
0.0729641
0.206528
0.151197
0.23947
0.208592
0.238754
0.265433
0.299015
0.31223
0.323889
0.326133
0.337995
0.333624
0.395787
0.380292
0.373087
0.370183
0.421689
0.401221
0.465965
0.429089
0.409555
0.452651
0.498644
0.486993
0.510905
0.555913
0.55631
0.496584
0.606987
0.63126
0.603619
0.59393
0.677168
0.758552
0.829029
0.897045
0.84452
0.857171
0.991347
1.04763
1.09619
1.0721
1.1389
1.1695
1.21186
1.22626
1.22384
1.24177
1.30054
1.28231
1.29336
1.29917
1.2888
1.2909
1.28906
1.28843
1.28804
1.28844
1.28834
0.0232715
0.0129893
0.0401417
0.00046321
0.000723554
0.000814099
0.000290214
0.0716192
0.000973899
0.000909845
0.000607395
0.000992538
5.01691e-05
0.000335296
0.00145906
9.8091e-05
0.000829817
0.000238083
4.28478e-05
0.00115113
0.000303605
0.00038011
0.000788772
0.000411171
0.000735431
0.000980699
0.000973851
0.000926557
0.0011234
0.00112339
0.00147379
0.000724109
0.00101097
0.000974149
0.000776109
0.00096702
0.000896738
0.000998449
0.00026155
0.000888291
0.00100984
0.000894905
0.00112332
0.000241599
0.000398457
0.000668916
0.00101
0.000330569
0.000740386
4.07943e-16
1.19888e-10
0.00241341
0.000379096
0.000850418
0.000694792
0.000545923
0.000997667
0.0003892
0.00100993
0.000972649
0.000977525
0.000963111
0.000999516
0.000736315
0.00101975
0.000925601
0.000706169
0.000988643
0.000740481
0.00101964
0.00089779
0.000955844
0.000631827
0.000258775
0.000741733
0.000964465
0.000941166
0.000838222
0.00101
0.000334973
0.000769708
0.000685233
0.000978177
0.000925692
0.000935309
0.000891422
0.00091709
0.000695524
0.000567275
0.00207937
0.000183405
0.000674617
0.000835469
0.000931281
0.00207933
1.48952
1.44733
1.42396
1.51871
1.55724
1.55075
0.759949
0.760014
0.751933
0.744451
0.670884
0.733252
0.565009
0.490187
0.419069
0.427397
0.403585
0.398738
0.399045
0.400275
0.279052
0.195404
0.28655
0.362493
0.364333
0.00093523
0.000793387
0.000875173
0.000890082
0.000922295
0.0009764
0.000965395
0.000493094
0.000931051
0.000554111
0.00100943
0.000959595
0.000969088
0.000957708
0.000822025
0.0268072
0.00100998
0.000498781
0.000128694
0.000927014
4.59314e-06
0.000276486
0.000921556
0.000785239
0.00052174
0.000783296
0.000978157
0.168537
0.310451
0.423869
0.419853
0.73853
0.659004
0.671282
0.458943
0.551641
0.637995
0.690041
0.68958
0.693127
0.70955
0.733894
0.731423
0.000704472
0.00115752
0.000625342
0.000982796
0.000704864
0.000720222
0.00100904
0.000845157
0.000719002
0.000865554
0.000823186
0.000932446
0.000763197
0.000831138
0.000896425
0.000558702
0.000627663
0.00100504
0.000978863
0.000935387
0.000938185
0.000682923
0.000770427
0.000937995
0.000997599
0.000978674
0.000347723
0.000953032
0.000978459
0.000973622
0.00101
0.000984843
0.000871643
0.000978065
0.000827832
0.000880774
0.000811322
0.121462
0.163866
0.146308
0.0920809
0.0913175
0.0633513
0.0844969
0.00049733
0.000583078
0.000333963
0.000919076
0.0984113
0.0843631
0.000406768
0.000986977
0.000612942
0.000962556
0.000490688
0.000432878
0.000690081
0.000136085
0.00103834
0.000652202
0.000164596
0.00143271
5.79952e-05
0.000680105
0.000702988
0.000407402
0.000653842
0.000551523
0.000693939
9.93495e-05
0.000358069
0.000994303
5.87897e-05
0.000979051
1.31131
1.32415
1.35025
1.36569
1.37869
1.37788
1.42698
1.39617
1.24292
1.24406
1.225
1.24389
1.2762
1.24
1.2857
1.25946
1.18277
1.16945
1.16814
1.20032
1.22531
1.20514
0.796357
0.709687
0.605525
0.696821
0.542084
0.455665
0.709364
0.706768
0.948472
0.958189
0.964966
0.862889
0.947664
1.0516
0.996823
0.945923
0.985561
1.08324
1.09547
1.08706
1.09199
1.10098
1.12421
1.15441
1.14327
1.15657
1.15684
1.15346
1.15714
1.16039
1.15428
0.190742
0.205196
0.340556
0.416201
0.195407
0.286017
0.438692
0.4495
0.201575
0.124629
0.0436981
0.0967071
1.32885
1.28482
1.30859
1.35494
1.35124
1.35302
1.36408
1.38695
1.4053
1.41519
1.41945
1.42224
1.44211
1.48381
1.46864
1.48776
1.50618
1.55136
1.52956
1.35934
1.37023
1.38596
1.54759
1.55255
1.55716
0.00145896
0.00145892
0.00145898
0.000673345
0.00598548
0.0190269
0.000639233
0.000899897
0.000366053
0.000659527
0.000757232
0.000881632
0.000578176
0.00101
0.000702905
0.00100987
0.000969713
3.94564e-06
0.000703999
2.20925e-09
0.00187526
0.00100647
0.0690148
0.00096874
0.144043
0.17311
0.10553
0.143809
0.202112
0.172078
0.290759
0.245692
0.30336
0.322164
0.33883
0.326964
0.375518
0.418852
0.445284
0.449285
0.450362
0.43767
0.463602
0.450109
0.492818
0.50359
0.52442
0.519022
0.500141
0.503829
0.620699
0.674445
0.564896
0.636343
0.679741
0.640076
0.740383
0.783311
0.883417
0.919261
0.902509
0.990236
1.04743
1.1463
1.13034
1.19012
1.1633
1.25845
1.26855
1.26282
1.29044
1.31991
1.31924
1.36932
1.33916
1.35896
1.32701
1.32236
1.35895
1.28821
1.32981
1.29444
0.000266901
0.000749993
0.000806578
0.000596604
0.000769361
0.000964183
0.00057408
3.63244e-07
0.00101
0.000707628
0.000103175
0.000512431
0.000316429
0.000632165
0.000511134
0.000291516
0.000336942
0.000161063
0.000508679
2.91623e-05
0.000124015
4.98173e-05
5.50518e-07
0.000214492
0.000788175
0.00103002
0.000969488
7.22736e-05
0.00112338
0.00112338
0.000977159
0.000995782
0.000992745
3.82214e-05
0.00101
0.000912008
0.0010004
0.000112849
0.00044385
0.000919656
1.45869e-11
0.000297927
0.00219528
7.68032e-11
0.000984734
5.72884e-05
0.0009581
0.000364482
0.00101
0.000172236
0.000988138
0.00220152
0.000978429
0.000134455
0.00096781
0.00100982
0.00129486
0.000383955
0.00100983
0.000979813
0.000465046
0.000983408
0.00101
0.000808151
0.00101972
0.00101977
0.000896998
0.000918623
0.0010196
0.00101971
0.000955402
0.000924958
0.000711032
0.000919589
0.0015848
7.62402e-05
0.00158467
0.00079419
0.00098702
0.000966821
0.00099923
0.00100984
0.00101
0.00100994
0.000799141
0.000805878
0.000827454
1.20946e-05
9.12481e-06
0
0.00090453
0.000799517
0.000430028
0.0008486
0.0012948
0.000898711
0.00100958
0.00100997
0.000811111
0.000998553
0.000946811
0.000914726
0.00101
1.44477
1.44744
1.44827
1.45219
1.48663
1.58996
1.57383
1.5628
1.59737
1.53564
0.670559
0.659225
0.591061
0.595556
0.550906
0.577491
0.495259
0.450725
0.434586
0.401481
0.376042
0.376614
0.283492
0.295531
0.165677
0.206347
0.207274
0.000529692
0.000965684
0.000913493
0.00101
0.000949844
0.000924031
0.000585991
0.000976404
0.140365
0.000774438
0.000919443
0.000220381
0.000959565
0.000979614
2.25986e-06
0.000368616
0.00101
0.000973661
0.000774893
0.0010216
0.000849804
0.000994999
0.000944045
0.000847483
0.00025022
0.53507
0.534698
0.584168
0.280714
0.423244
0.418549
0.457492
0.584036
0.649165
0.608413
0.520663
0.603764
0.62612
0.633105
0.553723
0.583605
0.000957717
0.000982061
0.00115756
0.00101
0.000653551
0.000823908
0.00101
0.00117522
0.000953789
0.000995596
0.000160682
0.000986054
0.000875008
0.000936631
0.000510229
0.00102671
0.000973461
0.00102684
0.00102674
0.00101
0.000771965
0.000895476
0.000833864
0.000976221
0.00092185
0.00100577
0
0
0
0.000740697
0.00108148
0.000970199
0.00100563
0.000944429
0.000473953
0.000911195
0.000978965
0.000968087
0.00097325
0.000338297
0.000895901
0.000914242
0.000926795
0.000924579
0.00102677
0.142998
0.153485
0.166933
0.029981
0.0540007
0.000592946
0.0115071
0.000898168
0.000735073
0.00148585
0.000667734
0.000818244
0.00148581
0.000724484
0.00090476
0.000406739
0.000485044
0.000242686
0.000584634
0.000446256
0.00102872
0.000270985
0.000575667
0.000665773
0.000877991
0.0198665
0.000883126
0.000150797
0.00119381
0.00048428
0.00102868
0.000312228
0.000747328
0.000802388
0.000346646
0.00101
0.000942721
0.000558526
0.00119379
1.3179
1.27124
1.34866
1.30887
1.32106
1.35427
1.34476
1.39849
1.37895
1.44541
1.40738
1.38093
1.44342
1.41811
1.21454
1.20862
1.20185
1.21109
1.22524
1.23727
1.23785
1.24707
1.15298
1.1556
1.17725
1.16421
1.19612
1.19757
0.792384
0.712421
0.623865
0.714343
0.506898
0.589564
0.704164
0.723973
0.942888
0.947287
0.946551
0.868291
1.03154
1.07295
0.990628
0.944599
1.07539
1.08295
1.0891
1.0811
1.11345
1.13764
1.1479
1.14584
1.14884
1.15248
1.15709
1.15225
1.15367
1.15413
0.196428
0.181597
0.358368
0.426214
0.33896
0.258362
0.487222
0.436158
0.167795
0.191693
0.153526
0.0753834
1.3266
1.36723
1.34632
1.3734
1.39197
1.37926
1.41499
1.42463
1.40202
1.41434
1.4119
1.42148
1.42181
1.44679
1.47097
1.48757
1.48697
1.54109
1.51421
1.56291
1.56426
1.43898
1.45492
1.5715
1.58291
0.000415286
8.73306e-05
0.000696944
0.000551543
0.000525579
9.19986e-05
0.000260243
0.000184516
0.00101
1.00585e-05
0.000927799
0.000258474
0.000705117
0.000657476
5.07035e-06
0.000780461
0.00187522
0.000422296
0.000872027
0.000687083
0.000473569
9.40281e-17
0.0565446
1.08694e-322
0.160685
0.159116
0.131782
0.0826791
0.195404
0.236465
0.296426
0.278918
0.305827
0.305784
0.417773
0.359512
0.463434
0.458888
0.482505
0.493054
0.462525
0.518441
0.563171
0.540673
0.521186
0.542183
0.598059
0.584271
0.563438
0.612165
0.694379
0.693532
0.688309
0.709672
0.833586
0.752319
0.919249
0.948805
0.946792
1.0178
1.0903
1.1676
1.17304
1.18688
1.23226
1.28487
1.31891
1.3239
1.36121
1.33242
1.38116
1.40117
1.39201
1.39885
1.39463
1.39663
1.36207
1.39901
1.36871
0.000853276
0.000158198
0.00711635
0.00102501
0.000697129
7.73581e-05
0.000686777
0.000944035
0.0013718
0.000700239
0.00101
0.00142496
0.000990501
0.00142734
0.001424
0.00142606
0.00142838
0.00099639
0.00142934
0.00693363
0.000976465
0.000638589
0.000184916
0.00103015
0.000453121
0.00103001
0.00103001
0.000431176
8.42201e-05
0.00100217
0.000993637
0.000687571
0.000856518
0.000795095
0.00101
0.00103603
0.000781826
0.000959982
0.00100986
0.000887496
0.000962023
0.000986305
0.00186673
0.000984451
0.000146754
1.36216e-05
0.000607696
0.00096357
0.000988249
0.000479144
0.000826696
0.000961729
0.00100941
0.00031059
4.76706e-05
0.000987756
0.00100992
0.000817418
0.000560979
0.000703731
0.00101
0.000799183
0.000968478
0.000279366
0.000905419
0.000941315
0.000934544
0.0010008
0.000939674
0.000880492
0.000886752
0.00100949
0.00097168
0.000773375
0.000984106
0.000952799
0.000551023
0.00098992
0.000934564
0.000964099
0.000974876
0.000974485
0.00101
0.00099424
0.000905098
0.000464111
0
0
0
0
0
0
0
0
0
0
0
0
0
0
0
0
0
0
0
0.00099334
0.000889964
0.000937661
0.000812305
0.000917384
0.000434354
0.000930589
0.00106386
0.000325168
0.000811332
0.00055229
0.000885277
1.62904
1.59814
1.63457
1.6203
1.6279
1.63112
1.47196
1.4856
1.54728
1.51041
1.58442
1.63174
1.57564
1.46598
1.44148
0.534151
0.53362
0.532999
0.523986
0.533454
0.464587
0.511105
0.295248
0.356099
0.219693
0.21895
0.161327
0.161738
0.164874
4.53839e-05
0.000772673
0.000495047
0.000982711
0.00089425
0.162255
0.000728884
0.000948865
0.000967043
0.000934686
0.000758798
0.000977274
0.000780662
0.000970402
0.000977458
0.000717645
0.000335301
0.00102138
0.00102131
0.000332596
0.00102113
0.000932938
0.0004632
0.000564851
0.536309
0.537764
0.536233
0.536923
0.536895
0.248104
0.363864
0.308299
0.42836
0.487748
0.510463
0.442526
0.528675
0.477668
0.475536
0.465009
0.000954778
0.00110086
0.000852939
0.000970576
0.000973219
0.000935143
0.000721033
0.0010146
0.000148186
0.000899395
0.00101254
0.000660022
6.92933e-05
0.000748197
0.00102019
0.000508825
0.000763669
0.000840859
0.000963178
0.000945015
0.00094707
0.000992639
0.000740767
0.000908685
0.000621516
0.00100955
0.000627569
0.000973579
0.000348921
2.15212e-05
0
0
0
0
0
0.000861021
0.00108132
0.000978274
0.00108108
0.000988902
0.000872265
0.00078846
0.000950347
0.00098805
0.00100037
0.00093197
0.000953825
0.000956596
0.000997349
0.000778615
0.00101
0
0
0
0
0
0
0.141884
0.0705248
0.0608298
0.000315919
0.000253689
0.00067149
0.000782658
0.000960083
0.000791447
0.000311719
0.00100956
0.000845094
0.000375808
0.000550644
0.00033854
0.000760208
0.000752664
0.000795758
0.000905726
0.000971356
0.000988778
6.50463e-05
0.0128302
0.000934794
0.000486704
0.000807836
0.000634249
0.000404769
0.000958393
0.00027789
0.000604758
1.31742e-05
0.000467482
0.00184715
0.00183885
0.000633084
0.000959699
0.000281529
0.000798649
0.00100972
0.000818552
1.27075
1.26074
1.29279
1.29845
1.28969
1.3222
1.35743
1.3434
1.34549
1.32691
1.43311
1.39008
1.36346
1.20175
1.2048
1.2285
1.21666
1.23981
1.23686
1.26651
1.24479
1.15254
1.157
1.1803
1.16827
1.18389
1.19237
0.834208
0.748032
0.667915
0.71232
0.650881
0.569599
0.754863
0.705796
0.942739
0.951014
0.902095
0.950925
1.04121
1.08371
0.945249
0.998293
1.09003
1.07953
1.09787
1.0886
1.12644
1.14022
1.1401
1.15094
1.14229
1.15223
1.14974
1.15278
1.15029
1.15087
0.182722
0.248228
0.426596
0.413912
0.335569
0.425841
0.43482
0.502392
0.178464
0.182252
0.169953
0.0902216
5.33898e-05
0.000855281
0.0562658
1.3969
1.40319
1.42979
1.41901
1.44187
1.45523
1.45572
1.45245
1.49203
1.4713
1.4914
1.45511
1.47918
1.50014
1.52267
1.53934
1.55058
1.54703
1.59516
1.59693
1.61323
1.60525
1.5166
1.51665
1.63427
1.62966
0.00016622
0.000334169
0.00101
7.2483e-06
0.000729054
0.00124713
0.00124702
0.000974208
0.000305007
0.000122846
0.000105783
0.00206629
0.00104061
0.000773505
0.000822227
0.000857244
0.00100232
0.000626775
0.000320397
0.000824137
8.63116e-05
0.000995528
7.94281e-05
0.0233412
0.00668692
0.096842
0.178968
0.0547215
0.285103
0.210941
0.291191
0.29007
0.383093
0.315984
0.442956
0.478181
0.475136
0.4852
0.604234
0.575805
0.545724
0.596324
0.6176
0.612361
0.604141
0.594689
0.616348
0.61331
0.691652
0.733454
0.768153
0.726572
0.771194
0.796885
0.937214
0.869117
0.960979
0.95168
1.02848
1.10683
1.18968
1.18821
1.22116
1.26306
1.34121
1.32542
1.35234
1.35274
1.37771
1.39363
1.4024
1.40345
1.40763
1.40805
1.39763
1.41002
1.40039
1.39886
0.000936017
0.000863994
0.00101
0.00067133
0.000948078
0.000657298
0.000566723
0.000789161
0.000642839
0.00142545
0.000414593
0.000933208
0.000295436
0.00142526
0.00142893
0.00142818
0.00143423
0.00142976
0.00142977
0.000379648
0.000371652
0.00100968
0.000655711
0.000938422
0.000788581
0.00100179
0.000680534
0.000997704
0.000180038
0.000954666
0.000624923
0.00101
0.000209386
0.000613088
0.00100863
0.00103604
0.000666327
0.000881619
0.000976948
0.00372103
5.92794e-05
0.000210438
0.00024578
0.00100989
0.000829584
6.4218e-09
0.000985759
0.00100983
0.000229592
0.000848872
0.00100647
0.000131712
0.00100976
0.000959372
0.000164076
0.000986414
0.000975827
0.000959308
0.0035181