/*--------------------------------*- C++ -*----------------------------------*\
  =========                 |
  \\      /  F ield         | OpenFOAM: The Open Source CFD Toolbox
   \\    /   O peration     | Website:  https://openfoam.org
    \\  /    A nd           | Version:  8
     \\/     M anipulation  |
\*---------------------------------------------------------------------------*/
FoamFile
{
    version     2.0;
    format      ascii;
    class       volScalarField;
    location    "6660";
    object      H;
}
// * * * * * * * * * * * * * * * * * * * * * * * * * * * * * * * * * * * * * //

dimensions      [0 1 0 0 0 0 0];

internalField   nonuniform List<scalar> 
526318
(
0.722413
0.68135
0.753936
0.665418
0.736955
0.693386
0.708267
0.624085
0.687105
0.563534
0.546192
0.667928
0.613879
0.651765
0.609989
0.637386
0.611641
0.807175
0.719743
0.763846
0.759662
0.712045
0.474287
0.716134
0.599453
0.466782
0.736586
0.738336
0.736191
0.750845
0.778993
0.825715
0.808012
0.688476
0.691992
0.656308
0.667007
0.751567
0.679594
0.632909
0.688452
0.663482
0.324734
0.379193
0.284623
0.33689
0.310561
0.427409
0.608605
0.510117
0.594639
0.598596
0.547838
0.5088
0.0069496
0.249611
0.247509
0.0485344
0.765775
0.778261
0.800925
0.750787
0.69639
0.825176
0.818447
0.778823
0.764025
0.766003
0.665999
0.657314
0.774382
0.55465
0.60846
0.499478
0.458744
0.444389
0.547496
0.537285
0.451906
0.496623
0.574924
0.577331
0.531591
0.485396
0.510873
0.58235
0.581485
0.55986
0.511198
0.581154
0.485254
0.434199
0.428071
0.360433
0.360376
0.36272
0.36102
0.359083
0.357153
0.3539
7.97638e-05
2.15653e-06
0.000946063
0.000235319
0.000843668
0.000148343
0.274453
0.0645026
0.398096
0.346282
0.394445
0.515937
0.740231
0.628015
0.735728
0.753127
0.816114
0.78771
0.833819
0.35282
0.35197
0.356308
0.358012
0.313421
0.351567
0.263898
0.305541
0.214136
0.263953
0.215813
0.213996
0.203065
0.180621
0.170261
0.201058
0.142963
0.194204
0.144179
0.16401
0.108049
0.11287
0.135048
0.165811
0.149232
0.108759
0.106653
0.126333
0.112303
0.105431
0.112949
0.12608
0.111499
0.120116
0.120141
0.119243
0.0857358
0.113967
0.120458
0.0829488
0.0431099
0.12004
0.0691719
0.125814
0.624274
0.713651
0.659936
0.643283
0.450738
0.51322
0.446686
0.449263
0.444715
0.448047
0.470229
0.445263
0.378847
0.354059
0.318476
0.257312
0.318678
0.361205
0.360719
0.361598
0.247374
0.299432
0.187294
0.196111
0.204601
0.195365
0.195757
0.20048
0.186254
0.192155
0.188493
0.177882
0.158204
0.182563
0.173341
0.146174
0.125975
0.151512
0.13614
0.130946
0.152928
0.138428
0.145038
0.0979743
0.12682
0.145691
0.150124
0.602434
0.618513
0.647413
0.62155
0.603887
0.605552
0.601834
0.484275
0.519262
0.267048
0.245431
0.245812
0.364482
0.502744
0.377429
0.415553
0.417591
0.36182
0.342887
0.000626599
1.83177e-16
1.37235e-07
0.189643
0.00027704
9.76159e-09
0.000995694
0.000255125
0.000396609
0.000963311
0.818066
0.796979
0.846492
0.83842
0.807691
0.797208
0.70642
0.794608
0.638662
0.581515
0.583592
0.581773
0.583066
0.581235
0.569824
0.56987
0.487448
0.550113
0.36808
0.423683
0.352814
0.366206
0.00100536
4.55059e-11
0.000154997
0.00100202
0.000103589
0.000987509
9.16589e-07
0.00132747
0.373153
0.166897
0.418399
0.408479
0.522916
0.629099
0.746637
0.755069
0.789905
0.761609
0.830019
0.86346
0.332657
0.331837
0.291249
0.263275
0.160421
0.196662
0.126551
0.13453
0.126323
0.118707
0.108317
0.116515
0.0406817
0.0638694
0.0958165
0.141084
0.188834
0.152498
0.132054
0.115529
0.0509759
0.0432394
0.0846164
0.153056
0.0716832
0.107879
0.108329
0.0793793
0.0763045
0.0420934
0.0378678
0.00118831
0.000678089
0.00594741
0.000969179
0.109589
0.153702
0.11833
0.153291
0.519189
0.480935
0.371358
0.464169
0.383585
0.438171
0.450447
0.433937
0.448443
0.446957
0.357906
0.273055
0.200679
0.181757
0.259632
0.199897
0.187697
0.299069
0.18832
0.240104
0.176265
0.178055
0.187412
0.177173
0.19231
0.183725
0.184316
0.188588
0.188573
0.186709
0.193117
0.189377
0.200576
0.200916
0.206461
0.180898
0.199243
0.177456
0.151556
0.156981
0.177618
0.212843
0.201931
0.179785
0.160907
0.187558
0.224439
0.231646
0.237766
0.196628
0.231889
0.249361
0.289475
0.240076
0.249395
0.275631
0.306425
0.42841
0.504867
0.419999
0.46079
0.529282
0.58894
0.512729
0.367597
0.485207
0.380665
0.396761
0.138979
0.0831013
0.115124
0.099478
0.216785
0.33775
0.272648
0.338467
0.339174
0.35818
0.338446
2.95166e-09
0.000979078
8.10466e-05
5.78497e-06
0.00102653
0.000885752
0.000599399
0.00100998
0.000160582
0.00100962
0.000664765
0.00100889
0.000730728
0.000955715
0.000582482
0.000952703
0.842096
0.830702
0.867495
0.85622
0.83834
0.805264
0.737144
0.645946
0.582292
0.595038
0.573128
0.5717
0.549838
0.551443
0.530485
0.530739
0.479732
0.523141
0.445858
0.389597
0.333762
0.29239
0.000966828
0.00111649
0.00111645
0.000663073
0.000446776
0.000731205
0.000593521
0.00071739
0.00111668
0.00111695
0.000883347
0.00100984
0.000665947
0.00100942
0.00123778
0.00017911
0.000293765
0.000487392
0.000977135
0.00096135
7.31626e-08
0.000978536
0.000793614
1.85613e-05
0.0702853
3.07034e-06
0.276337
0.441514
0.450191
0.543938
0.764578
0.655233
0.773183
0.778199
0.786588
0.820575
0.849026
0.869191
0.251701
0.249495
0.203879
0.233175
0.171985
0.134423
0.123443
0.123451
0.118874
0.122664
0.0755225
0.0714367
0.0197449
0.0338509
0.0872993
0.0588918
0.0338843
0.0807412
0.0789799
0.0851813
0.00246323
0.000959284
0.0163654
0.0254042
0.0268475
0.000718837
0.000196344
0.000873276
0.00090697
0.000387281
0.000872478
0.275303
0.247841
0.252341
0.251151
0.273912
0.372564
0.331557
0.309391
0.192007
0.239749
0.217138
0.227979
0.131941
0.0605999
0.241432
0.354374
0.242113
0.249188
0.227255
0.313394
0.290921
0.36502
0.397437
0.321024
0.302972
0.337475
0.210006
0.18547
0.181629
0.185847
0.101581
0.150391
0.0798075
0.0290614
0.0137287
0.131277
0.126543
0.175828
0.175026
0.175224
0.177643
0.178701
0.184183
0.180837
0.191921
0.183525
0.203839
0.197018
0.201798
0.204211
0.23093
0.211911
0.238342
0.245473
0.193822
0.171974
0.240125
0.218323
0.206391
0.228813
0.213413
0.195181
0.249871
0.227975
0.323845
0.337472
0.291754
0.339443
0.335796
0.298379
0.398202
0.372861
0.433135
0.458483
0.480676
0.398886
0.396776
0.40613
0.362591
0.337911
0.315108
0.396729
0.251432
0.233599
0.282834
0.297355
0.000426008
0.0327986
0.111785
0.230248
0.267874
0.301438
0.207367
0.167138
0.131242
0.0759669
0.000965631
0.000310861
1.42674e-06
1.84795e-07
0.000821797
0.00102539
0.000993891
0.000234006
0.00100979
0.000545241
0.00024476
0.000470015
0.000926911
0.000208943
0.000889372
0.000986846
0.000766556
0.000551352
0.000138864
0.000388285
0.00097475
0.00101
0.000137182
0.00100009
0.000977082
0.000354496
0.00107711
0.000989228
0.00108603
0.000954364
0.00113289
0.00112895
0.000856947
0.000999494
0.0009727
0.000201819
9.59135e-05
0.000989075
0.000892979
0.0009482
0.00100959
0.000881287
0.00100987
0.00100592
2.67802e-05
0.000978106
0.833569
0.848892
0.868512
0.855364
0.839329
0.759462
0.580706
0.670407
0.55041
0.554503
0.533267
0.530286
0.524299
0.523712
0.516774
0.517696
0.461122
0.430132
0.333256
0.375156
0.229408
0.270838
0.000910972
0.000624444
0.000948563
0.000967574
0.000969466
0.000982262
0.000986514
0.000879074
0.000998153
0.000679286
0.000677989
0.000965569
0.000971308
0.000759356
0.000380116
0.000991326
0.000690401
0.00100737
0.000803925
0.000839513
0.000369052
0.000975289
0.000889611
0.000439439
0.000917861
0.00068906
0.00101
0.000641909
9.15518e-06
6.82991e-05
0.000554867
0.000719123
0.00109967
0.000714772
0.254168
0.0832615
0.461688
0.420192
0.485624
0.591089
0.695101
0.77805
0.789599
0.774776
0.816771
0.849333
0.834404
0.831912
0.00119049
0.000888743
0.000886173
0.000278554
0.000988422
0.000922867
0.00081396
0.000933706
0.000890554
0.000725685
0.000975785
0.00092383
0.000794854
2.99799e-07
0.000836048
0.00101
0.000170373
0.232253
0.227533
0.232315
0.194992
0.118252
0.151336
0.0770067
0.0695202
0.0337234
0.0267154
0.000812744
0.000383883
0.0146506
0.00960275
0.00094627
0.00576994
0.000866005
0.0506015
0.0308231
0.031574
0.000859034
0.000921773
0.000703425
0.000679735
0.000780458
0.000818397
0.000964289
0.000555971
0.000325844
0.000996791
0.000920408
0.000390313
0.463103
0.434956
0.477046
0.484206
0.433223
0.392631
0.566299
0.586503
0.645532
0.653244
0.202877
0.24896
0.297665
0.38468
0.19746
0.151483
0.173889
0.18458
0.0212062
0.0733392
0.12721
0.0106003
0.225776
0.228478
0.22824
0.227149
0.248557
0.22765
0.242143
0.255815
0.135306
0.135267
0.0254161
0.11317
0.115668
0.0616518
0.0211523
0.0248236
1.2441e-40
0.000453214
0.000972569
0.0665454
0.125106
0.057072
0.127178
0.178516
0.174891
0.180188
0.182909
0.183115
0.201845
0.195237
0.210122
0.208332
0.234819
0.228336
0.240787
0.24103
0.247449
0.247807
0.255081
0.245879
0.286583
0.256419
0.23341
0.224882
0.296323
0.258807
0.277711
0.307771
0.352019
0.351212
0.356426
0.345444
0.375838
0.427393
0.50161
0.517141
0.522563
0.501484
0.639676
0.581901
0.711369
0.755261
0.740733
0.782788
0.835763
0.69659
0.788741
0.811924
0.88065
0.929903
0.957118
0.977244
1.00847
0.950247
1.00797
0.966505
1.04631
1.04887
1.09699
1.06612
1.12513
1.15664
1.14509
1.0949
1.15965
1.18204
1.15014
1.1449
1.21406
1.19101
1.22011
1.16227
1.15919
1.22776
1.19128
1.14706
1.14471
1.18012
1.21424
0.194532
0.1724
0.341854
0.333816
0.299962
0.298569
0.297235
0.0629143
0.196892
0.000956702
0.000483898
0.0286296
0.0164092
0.000954595
0.000372287
0.000318005
0.13166
0.0385456
0.0371948
0.000668204
0.00046097
0.000621919
0.00083399
0.000348275
0.00101
5.27544e-07
5.8384e-05
9.70941e-06
5.35186e-05
0.00101
0.000966006
0.000995857
0.000636206
1.78975e-05
0.00147699
0.000842141
0.000928041
0.000844807
0.000691483
0.000285162
0.00069126
0.000943677
0.000831092
0.00125616
0.000571445
0.00012748
0.000146108
0.000949
0.000429638
9.77421e-06
1.61879e-05
0.000990101
0.000932549
0.00100929
0.000961038
0.000911134
0.000410555
0.000778789
0.0010631
0.00115519
0.000877661
0.000991317
0.00106191
0.000989455
0.000983267
0.00101
0.00057983
0.000998353
0.000945804
0.00103839
0.00103846
0.00101187
0.000995874
0.00103855
0.00103829
0.00046961
0.00062373
0.00101
0.000773625
0.000908767
0.000377029
0.000991017
0.000960908
0.00100983
0.00100977
0.000136678
0.000970482
0.000950381
0.000921886
0.000915695
0.000919934
0.000737785
0.00115335
0.000731553
0.000968314
0.826893
0.811064
0.78489
0.786439
0.700694
0.774383
0.597178
0.534382
0.52379
0.522017
0.524792
0.521856
0.461824
0.467776
0.313435
0.271285
0.230536
0.402901
0.403253
0.351827
0.35394
0.352086
0.000647301
0.000454546
0.00105102
0.00105103
0.000962471
0.000414864
0.000711517
0.000410365
0.00105108
0.000980441
0.000161511
0.00100893
0.000972717
0.000941946
0.000297472
0.000985833
0.000726155
0.00091818
0.00021426
0.00071546
0.000519551
0.000951565
0.00125907
0.00125929
3.81621e-05
7.04885e-06
0.00017443
0.00110038
0.0834219
7.89898e-07
0.250449
0.418168
0.448975
0.47734
0.558721
0.674114
0.740056
0.716302
0.760562
0.695762
0.745487
0.786044
0.74242
0.737988
0.00122555
0.00092807
0.00101
0.000849207
0.000999606
0.00119919
0.000757562
0.000799171
0.0011992
0.000952606
0.000973001
0.00100941
3.95354e-05
1.14836e-05
0.000911811
0.000379696
3.74525e-06
0.000656439
0.00098774
0.000236686
0.000248866
0.000888315
0.00096459
0.000795867
0.00110286
0.00100957
0.202926
0.20476
0.12761
0.142509
0.0187961
0.041912
0.000969367
0.000169411
0.000732698
0.00160439
0.000275067
0.000751573
0.000687394
0.000630537
0.000119564
0.000697378
0.0241081
0.000796086
0.0249137
0.0219124
0.000528392
0.0002975
0.000353339
0.0008342
0.00030944
0.000950196
0.000717662
0.000602104
0.000980152
0.000764758
0.00123725
0.000732688
0.691086
0.693632
0.523337
0.433954
0.418882
0.409813
0.685674
0.610504
0.842731
0.922614
0.824423
0.738831
0.933133
0.915935
0.98664
1.03184
1.06314
1.06651
1.09301
1.06541
1.12138
1.14752
1.14037
1.14421
1.16127
1.14405
1.14686
1.19522
1.13726
1.12975
0.258151
0.177423
0.327824
0.400931
0.175576
0.127946
0.175384
0.179283
0.0108036
0.0638178
0.000508088
0.062448
0.000609081
0.226981
0.169686
0.228129
0.217224
0.230539
0.120808
0.02281
0.00093067
1.42474e-16
8.82333e-06
0.000984149
1.63082e-233
2.01105e-28
1.81001e-06
0.000998818
0.000839477
0.000820415
3.63154e-05
0.00557766
0.0686511
0.0206802
0.13237
0.0713811
0.113037
0.170688
0.20208
0.181608
0.217465
0.217759
0.224875
0.21732
0.252293
0.268293
0.254415
0.270442
0.280903
0.285924
0.317865
0.325493
0.315295
0.311547
0.315751
0.31498
0.32675
0.338536
0.384896
0.373687
0.347131
0.374054
0.376044
0.411986
0.449748
0.506263
0.540812
0.537209
0.54259
0.61518
0.70033
0.770688
0.7844
0.905965
0.783249
0.832277
0.985408
1.00641
1.01283
1.04773
1.09627
1.14586
1.15563
1.15857
1.1907
1.21533
1.24726
1.2425
1.24291
1.24689
1.24532
1.22521
1.16178
1.22567
1.19203
1.14658
1.14394
1.17433
1.20708
1.21394
1.14418
1.20239
1.16159
0.000658178
0.000615562
0.0589342
0.135463
0.0193881
0.0844265
0.224767
0.158642
0.185601
0.018978
0.000968312
2.05328e-06
0.000762966
0.00204843
1.94617e-05
7.89859e-05
1.58647e-05
0.00014739
0.000978156
0.00137205
0.00137077
0.000284872
0.000319133
0.000184832
0.000999876
0.000871197
0.000795729
0.000978231
0.000939167
0.0013423
0.00134262
0.00086849
0.000172666
0.000645998
0.00147669
0.000981197
0.000811663
0.000478021
0.000315336
0.000559839
0.00101
0.000794558
0.00125581
0.000928857
0.00101022
0.000692804
0.000660221
0.000998234
0.000701989
0.000866819
0.000874495
0.00105255
0.000949563
0.000796769
0.000751098
0.000990039
8.20965e-05
0.00099613
0.000976554
0.000151024
0.000650036
0.000544652
0.000936558
0.000816347
0.000895563
0.000770107
0.000993967
0.000978339
0.000943996
0.000974885
0.00092222
0.000225357
0.00125285
0.000928651
0.00103029
0.000782691
0.00100962
0.000641972
0.000367709
0.000916152
0.000960434
0.0009597
0.000892128
0.000611897
0.000479733
0.736146
0.732634
0.71601
0.723848
0.65168
0.714957
0.52239
0.588416
0.485797
0.481011
0.425767
0.411544
0.354073
0.354455
0.271108
0.166003
0.142382
0.309352
0.354757
0.352859
0.355906
0.353381
0.00105108
0.000920368
0.00105105
0.000389239
0.000973634
0.000973647
0.00094649
0.000972052
0.00100548
0.000830393
0.000135327
0.000443538
0.00093376
0.000997208
0.00060297
0.00100999
0.00098232
3.53596e-05
0.000985985
0.000873381
0.000276721
0.00060202
0.000655599
0.00101
0.000321117
3.32274e-05
0.00016739
0.000967041
0.147637
3.84543e-07
0.287771
0.422566
0.395135
0.505252
0.671443
0.574811
0.651205
0.650618
0.644052
0.671863
0.730389
0.722932
0.72682
0.702187
0.000769413
0.000922585
0.000573493
0.000958878
0.000712787
0.000933944
0.000627141
0.000414803
0.000815917
0.000879841
0.000957505
0.00103691
0.000971614
7.37399e-06
0.000915771
0.000873917
0.00096514
0.000987798
0.000819223
0.00106368
0.000477746
0.00106276
0.00106839
0.000901385
0.00101
0.000860782
0.000668131
0.000489708
0.000136748
5.4911e-05
0.00098545
0.0787628
0.0785218
0.0440306
0.0222783
0.000383857
0.00259538
0.000956993
0.000443402
0.124028
0.0641894
0.0431489
0.000187059
0.0009323
0.000408908
0.00100989
0.00133515
0.00133519
0.000251437
0.000595685
0.000864661
0.00081527
0.000753518
0.000809211
0.000830286
0.000589236
0.000349619
0.000337914
0.000587295
0.00100971
1.30661e-05
0.00052455
0.000737284
0.000689738
0.000594218
0.000809643
1.26843
1.27602
1.30347
1.28416
1.3233
1.31082
1.33139
1.3281
1.38335
1.37102
1.33342
1.38766
1.35307
1.4023
1.2302
1.1797
1.19942
1.24801
1.2351
1.20107
1.20278
1.25729
1.26867
1.24238
1.21857
1.27334
1.25676
1.2645
1.29213
1.14668
1.14712
1.14474
1.14351
1.16394
1.18106
0.736135
0.687726
0.58222
0.479831
0.393796
0.468912
0.673089
0.660897
0.890782
0.919126
0.806062
0.890753
0.926914
0.969388
1.02337
1.05944
1.06334
1.05982
1.06232
1.08969
1.10379
1.13185
1.11844
1.12148
1.1211
1.13094
1.11159
1.11298
0.308446
0.231916
0.175471
0.163322
0.217659
0.401332
0.379133
0.107
0.165595
0.0354602
0.000782467
1.24541
1.26569
1.28394
1.29444
1.29555
1.30951
1.31696
1.34356
1.32845
1.34843
1.34837
1.3942
1.41913
1.43913
1.43893
1.44198
1.45896
1.48494
0.000387654
0.000600546
0.00140905
0.152958
0.038819
0.210247
0.113312
0.031857
0.00122838
1.24042e-14
0.0012285
0.00122837
0.000150505
0.000231954
0.000604367
0.000634227
1.56935e-49
6.10001e-120
0.000836762
0.000805344
0.000395231
0.020752
0.0218105
0.0209105
0.0756669
0.0327174
0.158884
0.103377
0.189933
0.160914
0.197261
0.218173
0.24999
0.263959
0.284585
0.276616
0.301401
0.29159
0.352962
0.331588
0.332671
0.324596
0.376215
0.354643
0.426484
0.381964
0.358818
0.406916
0.448825
0.444049
0.466091
0.502373
0.504003
0.450294
0.553591
0.588288
0.556351
0.543631
0.626033
0.70952
0.78135
0.844551
0.792819
0.811916
0.944934
0.999057
1.04959
1.02811
1.09266
1.12455
1.16502
1.18016
1.17751
1.19559
1.25182
1.2375
1.24388
1.25586
1.24363
1.23702
1.24017
1.24306
1.23687
1.2376
1.23523
0.000998342
2.10033e-05
0.00187719
0.000453332
0.000310757
0.00020296
0.000617036
0.029409
0.000596987
0.000814367
0.000878991
0.000992538
9.49493e-05
0.00051693
0.00140899
0.000974877
0.000243313
9.6222e-05
4.28478e-05
0.00136872
0.000691021
0.00038011
0.000924899
0.0001026
0.000735431
0.00014751
0.000728231
0.000792481
0.0011243
0.000956127
0.00134187
0.000821195
0.00105094
0.000979869
0.000776109
0.00096702
0.000896738
0.000998449
0.00026155
0.000888291
0.00100984
0.000894905
0.00112398
0.000408506
0.000398457
0.000668916
0.000992284
0.000269368
0.000740386
2.40312e-10
4.88611e-07
0.00240327
0.000384175
0.00102194
0.000694792
0.000545923
0.000997667
0.0003892
0.00100993
0.000972649
0.000977525
0.000963111
0.000999516
0.000713156
0.00109919
0.000813334
0.000766253
0.000993876
0.000845723
0.00109877
0.00089779
0.000955844
0.000631827
0.000258775
0.000775458
0.000964465
0.000941166
0.000838222
0.00101
0.000334973
0.000769708
0.000685233
0.000978177
0.000925692
0.000935309
0.000914501
0.00091709
0.000695524
0.000567275
0.00194304
0.000216428
0.000674617
0.000835469
0.000996024
0.00194394
1.42379
1.39704
1.38103
1.47557
1.50903
1.50144
0.714056
0.717118
0.705834
0.697398
0.622836
0.690063
0.5161
0.4438
0.372215
0.382298
0.354452
0.353168
0.356253
0.353768
0.23501
0.1427
0.239915
0.316147
0.32026
0.00093523
0.000821388
0.000875173
0.000890082
0.00093947
0.0009764
0.000965395
0.000493094
0.000931051
0.000554111
0.00100943
0.00103795
0.000996334
0.000968182
0.000314705
0.000635559
0.00100998
0.000498781
0.000128694
0.000927014
4.59314e-06
0.000274204
0.000921556
0.000785239
0.00052174
0.000783296
0.000978157
0.11891
0.263129
0.37598
0.375153
0.69188
0.614401
0.626972
0.414266
0.502103
0.591341
0.641282
0.644061
0.642611
0.661493
0.688952
0.684481
0.00073223
0.00113223
0.00062246
0.000982796
0.000729902
0.000720222
0.00100904
0.000845157
0.000731433
0.000951017
0.000817811
0.000932446
0.000763197
0.000834556
0.00100996
0.000846627
0.000739974
0.00101127
0.000972601
0.000892626
0.000929628
0.000682923
0.000770427
0.000937995
0.000997599
0.000988048
0.0003406
0.00103922
0.000959748
0.000973622
0.00101
0.000984843
0.000871643
0.000978065
0.000827832
0.00112001
0.000965322
0.0793362
0.117237
0.101672
0.0430959
0.0430743
0.0140879
0.0375114
0.000182089
0.000884757
0.000278868
0.000919076
0.0499867
0.0368191
0.000406768
0.000959892
0.000612942
0.000962556
0.000490688
0.000432878
0.000753925
0.000136085
7.42918e-05
0.00065721
0.000224512
0.00098692
5.79952e-05
0.000680105
0.000702988
0.000420221
0.000653842
0.000551523
0.000693939
9.93495e-05
0.000358069
0.000994303
6.35179e-05
0.000979051
1.26637
1.28171
1.30234
1.32906
1.33654
1.33447
1.36588
1.34405
1.19241
1.19287
1.17461
1.1991
1.23126
1.18863
1.2449
1.20994
1.13399
1.12243
1.12001
1.15126
1.17825
1.1534
0.740808
0.672251
0.553635
0.653552
0.490776
0.407394
0.662648
0.668063
0.899632
0.908857
0.917309
0.821117
0.892293
1.00303
0.951017
0.893485
0.939717
1.03785
1.04877
1.04018
1.04559
1.05758
1.07891
1.11249
1.09837
1.11372
1.10727
1.10738
1.10686
1.11341
1.10949
0.151652
0.150608
0.296289
0.376191
0.146237
0.231452
0.396276
0.407811
0.14989
0.0845004
0.000596168
0.0603533
1.27815
1.23609
1.25393
1.3057
1.29938
1.30436
1.31844
1.33982
1.36312
1.37308
1.37496
1.37938
1.39998
1.4438
1.42237
1.43791
1.45914
1.50027
1.47917
1.31471
1.32426
1.34265
1.5082
1.50809
1.50585
0.00140846
0.00140836
0.00140858
0.000313231
0.000114645
0.000778015
0.00065888
0.000928091
0.000623224
0.000659527
0.000757232
0.000881632
0.000637005
0.0011785
0.000642373
0.00117846
0.000969713
4.6514e-06
0.000753117
2.53398e-09
0.00179551
0.000417172
0.02332
0.000896839
0.0963973
0.125595
0.055842
0.0967479
0.156607
0.127371
0.247006
0.195294
0.263998
0.279889
0.289259
0.280957
0.3224
0.364295
0.398063
0.391812
0.406931
0.391479
0.41307
0.398601
0.4391
0.455131
0.47343
0.466356
0.457204
0.455444
0.576981
0.617994
0.522783
0.58096
0.636025
0.590851
0.698836
0.733374
0.837487
0.871955
0.849294
0.945204
0.996946
1.10166
1.08585
1.14493
1.11859
1.21408
1.21918
1.21238
1.24419
1.27591
1.2703
1.32589
1.28616
1.31455
1.27246
1.27544
1.31236
1.23562
1.27713
1.24182
0.000278737
5.44999e-06
0.000809039
0.000599838
0.000769361
0.000964183
0.00057408
7.33145e-07
0.00101
0.000199154
0.000148471
0.000512431
0.000164523
0.000632165
0.000514521
0.000344116
0.000715248
0.000114698
0.000302915
2.84851e-05
0.000124015
4.98173e-05
5.50518e-07
0.000283166
0.000978557
0.00098326
0.000999883
3.97308e-05
0.00112404
0.00112401
0.00099522
0.000995782
0.000992745
3.82214e-05
0.00101
0.000912008
0.0010004
0.000112849
0.00044385
0.000919656
1.10972e-05
0.000297927
0.0020684
4.06727e-06
0.000984734
6.98665e-05
0.0009581
0.000364482
0.000979731
3.20685e-05
0.000982315
0.00220286
0.000992537
0.000134455
0.000960724
0.00116429
0.0011853
0.000437671
0.00100983
0.000979813
0.000465046
0.000983408
0.000969573
0.000835887
0.00109888
0.00109881
0.000938621
0.000913856
0.00109877
0.00109878
0.000955402
0.00071364
0.000711032
0.000919589
0.0013986
0.000101613
0.00139837
0.000881046
0.00098702
0.000966821
0.000988399
0.00100119
0.00104986
0.00105085
0.000822881
0.000805878
0.000827454
1.22783e-05
9.12481e-06
0
0.000995918
0.000799517
0.000430028
0.000877334
0.00118522
0.000898711
0.00100958
0.00100997
0.000966868
0.000998553
0.000946811
0.000914726
0.00101
1.37814
1.41196
1.41605
1.40932
1.43838
1.54212
1.52153
1.52649
1.54873
1.4849
0.625857
0.609701
0.544071
0.548968
0.508284
0.533222
0.448058
0.402556
0.38837
0.35382
0.325905
0.331422
0.236141
0.25431
0.116258
0.158179
0.162447
0.000529692
0.000965684
0.000913493
0.00101
0.000990525
0.000917688
0.000585991
0.00119223
0.0905693
3.07626e-06
0.000919443
0.000220381
0.000954139
0.000961382
1.54496e-06
0.000368616
0.00101
0.000973131
0.000924551
0.00102223
0.000849804
0.00099281
0.000944045
0.000847483
0.00025022
0.48873
0.492758
0.534301
0.234893
0.377153
0.375009
0.410604
0.537082
0.602651
0.565041
0.472926
0.555608
0.581255
0.58703
0.504772
0.535579
0.000957717
0.000985381
0.00113228
0.00102217
0.000629404
0.000832598
0.00101
0.00118919
0.000990227
0.000995183
0.000160682
0.000890443
0.000827345
0.000936631
0.000510229
0.00148657
0.00148681
0.000990627
0.000648662
0.000984644
0.000795041
0.00101127
0.000850427
0.000971486
0.000927594
0.00101685
0
0
0
0.000943083
0.00105445
0.000972198
0.00100563
0.000960895
0.000473953
0.000983298
0.000981389
0.000963917
0.00097325
0.000338297
0.000895901
0.000914242
0.000953661
0.000987215
0.000970716
0.0950697
0.108839
0.119995
0.000166554
0.00599669
0.000334918
0.000577261
0.000973332
0.00075147
0.000929583
0.000479969
0.00104677
0.00204676
0.000514327
0.000499652
0.000406739
0.000493224
0.000242686
0.000584634
0.000389242
0.000910083
0.000270985
0.000575667
0.000666396
0.000877991
0.000991374
7.38125e-07
0.000157948
0.00114011
0.000598798
0.00115281
0.000312228
0.000747328
0.000743097
0.000346646
0.00101
0.000942721
0.000628757
0.00113995
1.26911
1.22448
1.29684
1.26531
1.27327
1.31987
1.31734
1.35447
1.37549
1.37392
1.37494
1.30957
1.37189
1.32765
1.1606
1.16566
1.14899
1.16691
1.17366
1.19119
1.18698
1.1944
1.10621
1.11046
1.13415
1.11877
1.14903
1.1545
0.745839
0.671692
0.582441
0.661239
0.457209
0.545766
0.662853
0.670764
0.897866
0.8955
0.895235
0.828878
0.977826
1.03053
0.943786
0.89538
1.03423
1.03093
1.04678
1.03223
1.06815
1.09466
1.10594
1.10739
1.1131
1.10415
1.10923
1.10766
1.11023
1.10188
0.145594
0.139134
0.312719
0.392776
0.285054
0.202999
0.441308
0.392493
0.119969
0.146917
0.112802
0.0259824
1.27977
1.31421
1.29697
1.32778
1.34338
1.3321
1.37406
1.38289
1.36339
1.37393
1.36512
1.37517
1.37802
1.40244
1.4222
1.44164
1.4399
1.49152
1.46846
1.51426
1.52519
1.39781
1.40866
1.51589
1.53188
0.000415286
0.000114186
0.000696944
0.000551543
0.000525579
9.3846e-05
0.000260243
0.000210606
0.00101
1.00585e-05
0.000927799
0.000258474
0.000643535
0.000657476
5.07035e-06
0.000780461
0.00179545
0.000523201
0.000872027
0.000687083
0.000534874
2.06471e-16
0.016026
4.71167e-181
0.121764
0.111376
0.0781412
0.0290648
0.146686
0.185934
0.249932
0.245905
0.260161
0.254824
0.368689
0.308625
0.414214
0.411461
0.437629
0.442566
0.416401
0.477309
0.519197
0.49481
0.469746
0.497993
0.552876
0.537768
0.521743
0.560319
0.647124
0.644368
0.641443
0.660692
0.787103
0.70481
0.872038
0.899297
0.900478
0.967496
1.04585
1.12086
1.12901
1.1406
1.18908
1.23436
1.27632
1.27034
1.30755
1.28908
1.33841
1.34768
1.34865
1.34393
1.34759
1.34563
1.31089
1.34771
1.3196
0.000849857
0.000121617
0.00651985
0.00102553
0.00069366
7.73581e-05
0.000686777
0.000538285
0.00079675
0.000700239
0.00101
0.00128614
0.000599677
0.00128459
0.0012858
0.00128449
0.00128348
0.000998694
0.00128304
0.0061783
0.000998745
0.000638589
0.000184916
0.00204707
0.000428356
0.00204651
0.00204702
0.000407433
0.000255484
0.00100217
0.000993637
0.000687571
0.000856518
0.000790963
0.00101
0.00104144
0.000780507
0.000959982
0.00100986
0.000887496
0.000962023
0.000998273
0.00181701
0.00096897
0.000146754
1.36216e-05
0.000607696
0.00096357
0.000988249
0.000479144
0.000826696
0.000959955
0.00100941
0.00031059
4.5179e-05
0.000987756
0.00100992
0.000817418
0.000560979
0.000817322
0.00101
0.000799183
0.000971974
0.000279366
0.000904827
0.00095865
0.000983761
0.000998751
0.000952709
0.000941374
0.000886752
0.00100949
0.00097168
0.000773375
0.000984106
0.000952799
0.000746861
0.00098992
0.000934564
0.000964099
0.000974876
0.000974485
0.00109289
0.000992342
0.000905098
0.000511057
0
0
0
0
0
0
0
0
0
0
0
0
0
0
0
0
0
0
0
0.00099334
0.000900363
0.000937661
0.000812305
0.000909392
0.000434354
0.000930589
0.00106653
0.000325168
0.000811332
0.00035232
0.000878445
1.57499
1.56774
1.58294
1.57107
1.58138
1.58244
1.41655
1.41972
1.48196
1.45018
1.56328
1.57728
1.54631
1.4314
1.3552
0.486152
0.48673
0.488933
0.475379
0.489484
0.419726
0.462034
0.24833
0.306689
0.167792
0.17338
0.117372
0.118443
0.118738
4.53839e-05
0.000867602
0.000495047
0.000982711
0.000833353
0.11628
0.000168661
0.000961728
0.000977449
0.000688066
0.000686377
0.000984192
0.000961616
0.000962997
0.00097202
0.000717645
0.000335301
0.000983795
0.00101
0.000213894
0.00100974
0.000932938
0.0004632
0.000595474
0.489387
0.48882
0.492207
0.491538
0.490125
0.203903
0.317699
0.261848
0.382033
0.441269
0.467175
0.39564
0.480875
0.429543
0.43229
0.417416
0.000954778
0.00113492
0.000716629
0.000970576
0.000973219
0.000935143
0.000869471
0.0010149
0.000145031
0.000882642
0.00101383
0.000628345
6.92933e-05
0.000527482
0.000979577
0.000516055
0.000763669
0.000753016
0.000999076
0.00101578
0.000821066
0.000950546
0.000740767
0.000726241
0.000621516
0.00100972
0.000684552
0.000984909
0.000351873
2.15212e-05
0
0
0
0
0
0.000929525
0.00105427
0.000978274
0.00105396
0.000956566
0.000918145
0.000786567
0.000898052
0.000952909
0.00100113
0.000954283
0.000953825
0.00102665
0.000991715
0.000787048
0.000895145
0
0
0
0
0
0
0.0938869
0.0235351
0.0106881
0.000737564
0.000673643
0.000680509
0.00078824
0.000960083
0.000791447
0.000311719
0.00100956
0.000874081
0.000375808
0.000550644
0.00033854
0.000760208
0.000752664
0.000795758
0.000905726
0.000971356
0.000983325
6.51335e-05
0.00102382
3.91753e-05
0.000486704
0.000731931
0.000634249
0.000404769
0.000958393
0.00027789
0.000629628
1.31742e-05
0.000467482
0.00184236
0.00184209
0.00068488
0.000959699
0.000281529
0.000798649
0.00100972
0.000818552
1.25414
1.21536
1.24882
1.24449
1.23924
1.27603
1.24539
1.291
1.30435
1.33409
1.40278
1.3554
1.29775
1.15895
1.15455
1.17826
1.16514
1.18853
1.18479
1.21323
1.19569
1.10554
1.1135
1.13728
1.12102
1.13646
1.14775
0.786986
0.705878
0.626012
0.659216
0.608603
0.517816
0.703471
0.663643
0.904089
0.898618
0.86113
0.90392
0.988777
1.03993
0.902419
0.949055
1.03747
1.03666
1.0572
1.04054
1.08103
1.0989
1.09163
1.09952
1.10638
1.10084
1.10289
1.10734
1.10559
1.10423
0.138053
0.197842
0.386752
0.371778
0.282822
0.373261
0.39042
0.466904
0.134587
0.13035
0.123505
0.0356863
5.3971e-05
6.45982e-05
0.00687761
1.35164
1.3545
1.38549
1.37306
1.39916
1.41489
1.41576
1.41294
1.44862
1.42854
1.44176
1.40478
1.43724
1.44856
1.46986
1.49038
1.50276
1.49655
1.54918
1.55056
1.5733
1.55085
1.46733
1.47367
1.59121
1.58669
0.00016622
0.000334169
0.00101
8.2374e-06
0.000729054
0.00122828
0.00122804
0.000976726
0.000305007
0.000141484
0.000152318
0.00194196
0.00120411
0.000537276
0.000822227
0.000856688
0.00100232
0.000626775
0.000320397
0.000824137
8.63116e-05
0.000995528
0.000301624
0.000858763
0.000992302
0.0608646
0.135714
0.0112989
0.234095
0.170575
0.247064
0.236363
0.333889
0.275104
0.409943
0.429193
0.429303
0.432147
0.554303
0.525367
0.493713
0.549845
0.571463
0.566589
0.553903
0.549692
0.56413
0.561206
0.64389
0.687173
0.720269
0.675226
0.72239
0.746044
0.886465
0.817397
0.913436
0.901725
0.983565
1.05781
1.14483
1.13904
1.17832
1.21234
1.28695
1.28383
1.2978
1.31076
1.3351
1.33873
1.3596
1.34919
1.36184
1.35672
1.35062
1.36179
1.35257
1.35097
0.000947463
0.000864682
0.00101
0.00067133
0.000954478
0.000657298
0.000566723
0.000789161
0.000642839
0.00128421
0.000342914
0.000777264
0.000295436
0.00128505
0.00128529
0.00128547
0.00128556
0.00128479
0.00128561
0.000311686
0.000371652
0.00100461
0.000689527
0.000938422
0.000788581
0.00100179
0.000927855
0.000997704
0.000180038
0.000954666
0.000624923
0.00101
0.000209386
0.000613088
0.00100863
0.00104148
0.000663273
0.000881619
0.000974583