/*--------------------------------*- C++ -*----------------------------------*\
  =========                 |
  \\      /  F ield         | OpenFOAM: The Open Source CFD Toolbox
   \\    /   O peration     | Website:  https://openfoam.org
    \\  /    A nd           | Version:  8
     \\/     M anipulation  |
\*---------------------------------------------------------------------------*/
FoamFile
{
    version     2.0;
    format      ascii;
    class       volScalarField;
    location    "6660";
    object      Hclip;
}
// * * * * * * * * * * * * * * * * * * * * * * * * * * * * * * * * * * * * * //

dimensions      [0 1 0 0 0 0 0];

internalField   nonuniform List<scalar> 
526318
(
0.722413
0.68135
0.753936
0.665418
0.736955
0.693386
0.708267
0.624085
0.687105
0.563534
0.546192
0.667928
0.613879
0.651765
0.609989
0.637386
0.611641
0.807175
0.719743
0.763846
0.759662
0.712045
0.474287
0.716134
0.599453
0.466782
0.736586
0.738336
0.736191
0.750845
0.778993
0.825715
0.808012
0.688476
0.691992
0.656308
0.667007
0.751567
0.679594
0.632909
0.688452
0.663482
0.324734
0.379193
0.284623
0.33689
0.310561
0.427409
0.608605
0.510117
0.594639
0.598596
0.547838
0.5088
0.0069496
0.249611
0.247509
0.0485344
0.765775
0.778261
0.800925
0.750787
0.69639
0.825176
0.818447
0.778823
0.764025
0.766003
0.665999
0.657314
0.774382
0.55465
0.60846
0.499478
0.458744
0.444389
0.547496
0.537285
0.451906
0.496623
0.574924
0.577331
0.531591
0.485396
0.510873
0.58235
0.581485
0.55986
0.511198
0.581154
0.485254
0.434199
0.428071
0.360433
0.360376
0.36272
0.36102
0.359083
0.357153
0.3539
0.001
0.001
0.001
0.001
0.001
0.001
0.274453
0.0645026
0.398096
0.346282
0.394445
0.515937
0.740231
0.628015
0.735728
0.753127
0.816114
0.78771
0.833819
0.35282
0.35197
0.356308
0.358012
0.313421
0.351567
0.263898
0.305541
0.214136
0.263953
0.215813
0.213996
0.203065
0.180621
0.170261
0.201058
0.142963
0.194204
0.144179
0.16401
0.108049
0.11287
0.135048
0.165811
0.149232
0.108759
0.106653
0.126333
0.112303
0.105431
0.112949
0.12608
0.111499
0.120116
0.120141
0.119243
0.0857358
0.113967
0.120458
0.0829488
0.0431099
0.12004
0.0691719
0.125814
0.624274
0.713651
0.659936
0.643283
0.450738
0.51322
0.446686
0.449263
0.444715
0.448047
0.470229
0.445263
0.378847
0.354059
0.318476
0.257312
0.318678
0.361205
0.360719
0.361598
0.247374
0.299432
0.187294
0.196111
0.204601
0.195365
0.195757
0.20048
0.186254
0.192155
0.188493
0.177882
0.158204
0.182563
0.173341
0.146174
0.125975
0.151512
0.13614
0.130946
0.152928
0.138428
0.145038
0.0979743
0.12682
0.145691
0.150124
0.602434
0.618513
0.647413
0.62155
0.603887
0.605552
0.601834
0.484275
0.519262
0.267048
0.245431
0.245812
0.364482
0.502744
0.377429
0.415553
0.417591
0.36182
0.342887
0.001
0.001
0.001
0.189643
0.001
0.001
0.001
0.001
0.001
0.001
0.818066
0.796979
0.846492
0.83842
0.807691
0.797208
0.70642
0.794608
0.638662
0.581515
0.583592
0.581773
0.583066
0.581235
0.569824
0.56987
0.487448
0.550113
0.36808
0.423683
0.352814
0.366206
0.00100536
0.001
0.001
0.00100202
0.001
0.001
0.001
0.00132747
0.373153
0.166897
0.418399
0.408479
0.522916
0.629099
0.746637
0.755069
0.789905
0.761609
0.830019
0.86346
0.332657
0.331837
0.291249
0.263275
0.160421
0.196662
0.126551
0.13453
0.126323
0.118707
0.108317
0.116515
0.0406817
0.0638694
0.0958165
0.141084
0.188834
0.152498
0.132054
0.115529
0.0509759
0.0432394
0.0846164
0.153056
0.0716832
0.107879
0.108329
0.0793793
0.0763045
0.0420934
0.0378678
0.00118831
0.001
0.00594741
0.001
0.109589
0.153702
0.11833
0.153291
0.519189
0.480935
0.371358
0.464169
0.383585
0.438171
0.450447
0.433937
0.448443
0.446957
0.357906
0.273055
0.200679
0.181757
0.259632
0.199897
0.187697
0.299069
0.18832
0.240104
0.176265
0.178055
0.187412
0.177173
0.19231
0.183725
0.184316
0.188588
0.188573
0.186709
0.193117
0.189377
0.200576
0.200916
0.206461
0.180898
0.199243
0.177456
0.151556
0.156981
0.177618
0.212843
0.201931
0.179785
0.160907
0.187558
0.224439
0.231646
0.237766
0.196628
0.231889
0.249361
0.289475
0.240076
0.249395
0.275631
0.306425
0.42841
0.504867
0.419999
0.46079
0.529282
0.58894
0.512729
0.367597
0.485207
0.380665
0.396761
0.138979
0.0831013
0.115124
0.099478
0.216785
0.33775
0.272648
0.338467
0.339174
0.35818
0.338446
0.001
0.001
0.001
0.001
0.00102653
0.001
0.001
0.00100998
0.001
0.00100962
0.001
0.00100889
0.001
0.001
0.001
0.001
0.842096
0.830702
0.867495
0.85622
0.83834
0.805264
0.737144
0.645946
0.582292
0.595038
0.573128
0.5717
0.549838
0.551443
0.530485
0.530739
0.479732
0.523141
0.445858
0.389597
0.333762
0.29239
0.001
0.00111649
0.00111645
0.001
0.001
0.001
0.001
0.001
0.00111668
0.00111695
0.001
0.00100984
0.001
0.00100942
0.00123778
0.001
0.001
0.001
0.001
0.001
0.001
0.001
0.001
0.001
0.0702853
0.001
0.276337
0.441514
0.450191
0.543938
0.764578
0.655233
0.773183
0.778199
0.786588
0.820575
0.849026
0.869191
0.251701
0.249495
0.203879
0.233175
0.171985
0.134423
0.123443
0.123451
0.118874
0.122664
0.0755225
0.0714367
0.0197449
0.0338509
0.0872993
0.0588918
0.0338843
0.0807412
0.0789799
0.0851813
0.00246323
0.001
0.0163654
0.0254042
0.0268475
0.001
0.001
0.001
0.001
0.001
0.001
0.275303
0.247841
0.252341
0.251151
0.273912
0.372564
0.331557
0.309391
0.192007
0.239749
0.217138
0.227979
0.131941
0.0605999
0.241432
0.354374
0.242113
0.249188
0.227255
0.313394
0.290921
0.36502
0.397437
0.321024
0.302972
0.337475
0.210006
0.18547
0.181629
0.185847
0.101581
0.150391
0.0798075
0.0290614
0.0137287
0.131277
0.126543
0.175828
0.175026
0.175224
0.177643
0.178701
0.184183
0.180837
0.191921
0.183525
0.203839
0.197018
0.201798
0.204211
0.23093
0.211911
0.238342
0.245473
0.193822
0.171974
0.240125
0.218323
0.206391
0.228813
0.213413
0.195181
0.249871
0.227975
0.323845
0.337472
0.291754
0.339443
0.335796
0.298379
0.398202
0.372861
0.433135
0.458483
0.480676
0.398886
0.396776
0.40613
0.362591
0.337911
0.315108
0.396729
0.251432
0.233599
0.282834
0.297355
0.001
0.0327986
0.111785
0.230248
0.267874
0.301438
0.207367
0.167138
0.131242
0.0759669
0.001
0.001
0.001
0.001
0.001
0.00102539
0.001
0.001
0.00100979
0.001
0.001
0.001
0.001
0.001
0.001
0.001
0.001
0.001
0.001
0.001
0.001
0.00101
0.001
0.00100009
0.001
0.001
0.00107711
0.001
0.00108603
0.001
0.00113289
0.00112895
0.001
0.001
0.001
0.001
0.001
0.001
0.001
0.001
0.00100959
0.001
0.00100987
0.00100592
0.001
0.001
0.833569
0.848892
0.868512
0.855364
0.839329
0.759462
0.580706
0.670407
0.55041
0.554503
0.533267
0.530286
0.524299
0.523712
0.516774
0.517696
0.461122
0.430132
0.333256
0.375156
0.229408
0.270838
0.001
0.001
0.001
0.001
0.001
0.001
0.001
0.001
0.001
0.001
0.001
0.001
0.001
0.001
0.001
0.001
0.001
0.00100737
0.001
0.001
0.001
0.001
0.001
0.001
0.001
0.001
0.00101
0.001
0.001
0.001
0.001
0.001
0.00109967
0.001
0.254168
0.0832615
0.461688
0.420192
0.485624
0.591089
0.695101
0.77805
0.789599
0.774776
0.816771
0.849333
0.834404
0.831912
0.00119049
0.001
0.001
0.001
0.001
0.001
0.001
0.001
0.001
0.001
0.001
0.001
0.001
0.001
0.001
0.00101
0.001
0.232253
0.227533
0.232315
0.194992
0.118252
0.151336
0.0770067
0.0695202
0.0337234
0.0267154
0.001
0.001
0.0146506
0.00960275
0.001
0.00576994
0.001
0.0506015
0.0308231
0.031574
0.001
0.001
0.001
0.001
0.001
0.001
0.001
0.001
0.001
0.001
0.001
0.001
0.463103
0.434956
0.477046
0.484206
0.433223
0.392631
0.566299
0.586503
0.645532
0.653244
0.202877
0.24896
0.297665
0.38468
0.19746
0.151483
0.173889
0.18458
0.0212062
0.0733392
0.12721
0.0106003
0.225776
0.228478
0.22824
0.227149
0.248557
0.22765
0.242143
0.255815
0.135306
0.135267
0.0254161
0.11317
0.115668
0.0616518
0.0211523
0.0248236
0.001
0.001
0.001
0.0665454
0.125106
0.057072
0.127178
0.178516
0.174891
0.180188
0.182909
0.183115
0.201845
0.195237
0.210122
0.208332
0.234819
0.228336
0.240787
0.24103
0.247449
0.247807
0.255081
0.245879
0.286583
0.256419
0.23341
0.224882
0.296323
0.258807
0.277711
0.307771
0.352019
0.351212
0.356426
0.345444
0.375838
0.427393
0.50161
0.517141
0.522563
0.501484
0.639676
0.581901
0.711369
0.755261
0.740733
0.782788
0.835763
0.69659
0.788741
0.811924
0.88065
0.929903
0.957118
0.977244
1.00847
0.950247
1.00797
0.966505
1.04631
1.04887
1.09699
1.06612
1.12513
1.15664
1.14509
1.0949
1.15965
1.18204
1.15014
1.1449
1.21406
1.19101
1.22011
1.16227
1.15919
1.22776
1.19128
1.14706
1.14471
1.18012
1.21424
0.194532
0.1724
0.341854
0.333816
0.299962
0.298569
0.297235
0.0629143
0.196892
0.001
0.001
0.0286296
0.0164092
0.001
0.001
0.001
0.13166
0.0385456
0.0371948
0.001
0.001
0.001
0.001
0.001
0.00101
0.001
0.001
0.001
0.001
0.00101
0.001
0.001
0.001
0.001
0.00147699
0.001
0.001
0.001
0.001
0.001
0.001
0.001
0.001
0.00125616
0.001
0.001
0.001
0.001
0.001
0.001
0.001
0.001
0.001
0.00100929
0.001
0.001
0.001
0.001
0.0010631
0.00115519
0.001
0.001
0.00106191
0.001
0.001
0.00101
0.001
0.001
0.001
0.00103839
0.00103846
0.00101187
0.001
0.00103855
0.00103829
0.001
0.001
0.00101
0.001
0.001
0.001
0.001
0.001
0.00100983
0.00100977
0.001
0.001
0.001
0.001
0.001
0.001
0.001
0.00115335
0.001
0.001
0.826893
0.811064
0.78489
0.786439
0.700694
0.774383
0.597178
0.534382
0.52379
0.522017
0.524792
0.521856
0.461824
0.467776
0.313435
0.271285
0.230536
0.402901
0.403253
0.351827
0.35394
0.352086
0.001
0.001
0.00105102
0.00105103
0.001
0.001
0.001
0.001
0.00105108
0.001
0.001
0.00100893
0.001
0.001
0.001
0.001
0.001
0.001
0.001
0.001
0.001
0.001
0.00125907
0.00125929
0.001
0.001
0.001
0.00110038
0.0834219
0.001
0.250449
0.418168
0.448975
0.47734
0.558721
0.674114
0.740056
0.716302
0.760562
0.695762
0.745487
0.786044
0.74242
0.737988
0.00122555
0.001
0.00101
0.001
0.001
0.00119919
0.001
0.001
0.0011992
0.001
0.001
0.00100941
0.001
0.001
0.001
0.001
0.001
0.001
0.001
0.001
0.001
0.001
0.001
0.001
0.00110286
0.00100957
0.202926
0.20476
0.12761
0.142509
0.0187961
0.041912
0.001
0.001
0.001
0.00160439
0.001
0.001
0.001
0.001
0.001
0.001
0.0241081
0.001
0.0249137
0.0219124
0.001
0.001
0.001
0.001
0.001
0.001
0.001
0.001
0.001
0.001
0.00123725
0.001
0.691086
0.693632
0.523337
0.433954
0.418882
0.409813
0.685674
0.610504
0.842731
0.922614
0.824423
0.738831
0.933133
0.915935
0.98664
1.03184
1.06314
1.06651
1.09301
1.06541
1.12138
1.14752
1.14037
1.14421
1.16127
1.14405
1.14686
1.19522
1.13726
1.12975
0.258151
0.177423
0.327824
0.400931
0.175576
0.127946
0.175384
0.179283
0.0108036
0.0638178
0.001
0.062448
0.001
0.226981
0.169686
0.228129
0.217224
0.230539
0.120808
0.02281
0.001
0.001
0.001
0.001
0.001
0.001
0.001
0.001
0.001
0.001
0.001
0.00557766
0.0686511
0.0206802
0.13237
0.0713811
0.113037
0.170688
0.20208
0.181608
0.217465
0.217759
0.224875
0.21732
0.252293
0.268293
0.254415
0.270442
0.280903
0.285924
0.317865
0.325493
0.315295
0.311547
0.315751
0.31498
0.32675
0.338536
0.384896
0.373687
0.347131
0.374054
0.376044
0.411986
0.449748
0.506263
0.540812
0.537209
0.54259
0.61518
0.70033
0.770688
0.7844
0.905965
0.783249
0.832277
0.985408
1.00641
1.01283
1.04773
1.09627
1.14586
1.15563
1.15857
1.1907
1.21533
1.24726
1.2425
1.24291
1.24689
1.24532
1.22521
1.16178
1.22567
1.19203
1.14658
1.14394
1.17433
1.20708
1.21394
1.14418
1.20239
1.16159
0.001
0.001
0.0589342
0.135463
0.0193881
0.0844265
0.224767
0.158642
0.185601
0.018978
0.001
0.001
0.001
0.00204843
0.001
0.001
0.001
0.001
0.001
0.00137205
0.00137077
0.001
0.001
0.001
0.001
0.001
0.001
0.001
0.001
0.0013423
0.00134262
0.001
0.001
0.001
0.00147669
0.001
0.001
0.001
0.001
0.001
0.00101
0.001
0.00125581
0.001
0.00101022
0.001
0.001
0.001
0.001
0.001
0.001
0.00105255
0.001
0.001
0.001
0.001
0.001
0.001
0.001
0.001
0.001
0.001
0.001
0.001
0.001
0.001
0.001
0.001
0.001
0.001
0.001
0.001
0.00125285
0.001
0.00103029
0.001
0.00100962
0.001
0.001
0.001
0.001
0.001
0.001
0.001
0.001
0.736146
0.732634
0.71601
0.723848
0.65168
0.714957
0.52239
0.588416
0.485797
0.481011
0.425767
0.411544
0.354073
0.354455
0.271108
0.166003
0.142382
0.309352
0.354757
0.352859
0.355906
0.353381
0.00105108
0.001
0.00105105
0.001
0.001
0.001
0.001
0.001
0.00100548
0.001
0.001
0.001
0.001
0.001
0.001
0.00100999
0.001
0.001
0.001
0.001
0.001
0.001
0.001
0.00101
0.001
0.001
0.001
0.001
0.147637
0.001
0.287771
0.422566
0.395135
0.505252
0.671443
0.574811
0.651205
0.650618
0.644052
0.671863
0.730389
0.722932
0.72682
0.702187
0.001
0.001
0.001
0.001
0.001
0.001
0.001
0.001
0.001
0.001
0.001
0.00103691
0.001
0.001
0.001
0.001
0.001
0.001
0.001
0.00106368
0.001
0.00106276
0.00106839
0.001
0.00101
0.001
0.001
0.001
0.001
0.001
0.001
0.0787628
0.0785218
0.0440306
0.0222783
0.001
0.00259538
0.001
0.001
0.124028
0.0641894
0.0431489
0.001
0.001
0.001
0.00100989
0.00133515
0.00133519
0.001
0.001
0.001
0.001
0.001
0.001
0.001
0.001
0.001
0.001
0.001
0.00100971
0.001
0.001
0.001
0.001
0.001
0.001
1.26843
1.27602
1.30347
1.28416
1.3233
1.31082
1.33139
1.3281
1.38335
1.37102
1.33342
1.38766
1.35307
1.4023
1.2302
1.1797
1.19942
1.24801
1.2351
1.20107
1.20278
1.25729
1.26867
1.24238
1.21857
1.27334
1.25676
1.2645
1.29213
1.14668
1.14712
1.14474
1.14351
1.16394
1.18106
0.736135
0.687726
0.58222
0.479831
0.393796
0.468912
0.673089
0.660897
0.890782
0.919126
0.806062
0.890753
0.926914
0.969388
1.02337
1.05944
1.06334
1.05982
1.06232
1.08969
1.10379
1.13185
1.11844
1.12148
1.1211
1.13094
1.11159
1.11298
0.308446
0.231916
0.175471
0.163322
0.217659
0.401332
0.379133
0.107
0.165595
0.0354602
0.001
1.24541
1.26569
1.28394
1.29444
1.29555
1.30951
1.31696
1.34356
1.32845
1.34843
1.34837
1.3942
1.41913
1.43913
1.43893
1.44198
1.45896
1.48494
0.001
0.001
0.00140905
0.152958
0.038819
0.210247
0.113312
0.031857
0.00122838
0.001
0.0012285
0.00122837
0.001
0.001
0.001
0.001
0.001
0.001
0.001
0.001
0.001
0.020752
0.0218105
0.0209105
0.0756669
0.0327174
0.158884
0.103377
0.189933
0.160914
0.197261
0.218173
0.24999
0.263959
0.284585
0.276616
0.301401
0.29159
0.352962
0.331588
0.332671
0.324596
0.376215
0.354643
0.426484
0.381964
0.358818
0.406916
0.448825
0.444049
0.466091
0.502373
0.504003
0.450294
0.553591
0.588288
0.556351
0.543631
0.626033
0.70952
0.78135
0.844551
0.792819
0.811916
0.944934
0.999057
1.04959
1.02811
1.09266
1.12455
1.16502
1.18016
1.17751
1.19559
1.25182
1.2375
1.24388
1.25586
1.24363
1.23702
1.24017
1.24306
1.23687
1.2376
1.23523
0.001
0.001
0.00187719
0.001
0.001
0.001
0.001
0.029409
0.001
0.001
0.001
0.001
0.001
0.001
0.00140899
0.001
0.001
0.001
0.001
0.00136872
0.001
0.001
0.001
0.001
0.001
0.001
0.001
0.001
0.0011243
0.001
0.00134187
0.001
0.00105094
0.001
0.001
0.001
0.001
0.001
0.001
0.001
0.00100984
0.001
0.00112398
0.001
0.001
0.001
0.001
0.001
0.001
0.001
0.001
0.00240327
0.001
0.00102194
0.001
0.001
0.001
0.001
0.00100993
0.001
0.001
0.001
0.001
0.001
0.00109919
0.001
0.001
0.001
0.001
0.00109877
0.001
0.001
0.001
0.001
0.001
0.001
0.001
0.001
0.00101
0.001
0.001
0.001
0.001
0.001
0.001
0.001
0.001
0.001
0.001
0.00194304
0.001
0.001
0.001
0.001
0.00194394
1.42379
1.39704
1.38103
1.47557
1.50903
1.50144
0.714056
0.717118
0.705834
0.697398
0.622836
0.690063
0.5161
0.4438
0.372215
0.382298
0.354452
0.353168
0.356253
0.353768
0.23501
0.1427
0.239915
0.316147
0.32026
0.001
0.001
0.001
0.001
0.001
0.001
0.001
0.001
0.001
0.001
0.00100943
0.00103795
0.001
0.001
0.001
0.001
0.00100998
0.001
0.001
0.001
0.001
0.001
0.001
0.001
0.001
0.001
0.001
0.11891
0.263129
0.37598
0.375153
0.69188
0.614401
0.626972
0.414266
0.502103
0.591341
0.641282
0.644061
0.642611
0.661493
0.688952
0.684481
0.001
0.00113223
0.001
0.001
0.001
0.001
0.00100904
0.001
0.001
0.001
0.001
0.001
0.001
0.001
0.00100996
0.001
0.001
0.00101127
0.001
0.001
0.001
0.001
0.001
0.001
0.001
0.001
0.001
0.00103922
0.001
0.001
0.00101
0.001
0.001
0.001
0.001
0.00112001
0.001
0.0793362
0.117237
0.101672
0.0430959
0.0430743
0.0140879
0.0375114
0.001
0.001
0.001
0.001
0.0499867
0.0368191
0.001
0.001
0.001
0.001
0.001
0.001
0.001
0.001
0.001
0.001
0.001
0.001
0.001
0.001
0.001
0.001
0.001
0.001
0.001
0.001
0.001
0.001
0.001
0.001
1.26637
1.28171
1.30234
1.32906
1.33654
1.33447
1.36588
1.34405
1.19241
1.19287
1.17461
1.1991
1.23126
1.18863
1.2449
1.20994
1.13399
1.12243
1.12001
1.15126
1.17825
1.1534
0.740808
0.672251
0.553635
0.653552
0.490776
0.407394
0.662648
0.668063
0.899632
0.908857
0.917309
0.821117
0.892293
1.00303
0.951017
0.893485
0.939717
1.03785
1.04877
1.04018
1.04559
1.05758
1.07891
1.11249
1.09837
1.11372
1.10727
1.10738
1.10686
1.11341
1.10949
0.151652
0.150608
0.296289
0.376191
0.146237
0.231452
0.396276
0.407811
0.14989
0.0845004
0.001
0.0603533
1.27815
1.23609
1.25393
1.3057
1.29938
1.30436
1.31844
1.33982
1.36312
1.37308
1.37496
1.37938
1.39998
1.4438
1.42237
1.43791
1.45914
1.50027
1.47917
1.31471
1.32426
1.34265
1.5082
1.50809
1.50585
0.00140846
0.00140836
0.00140858
0.001
0.001
0.001
0.001
0.001
0.001
0.001
0.001
0.001
0.001
0.0011785
0.001
0.00117846
0.001
0.001
0.001
0.001
0.00179551
0.001
0.02332
0.001
0.0963973
0.125595
0.055842
0.0967479
0.156607
0.127371
0.247006
0.195294
0.263998
0.279889
0.289259
0.280957
0.3224
0.364295
0.398063
0.391812
0.406931
0.391479
0.41307
0.398601
0.4391
0.455131
0.47343
0.466356
0.457204
0.455444
0.576981
0.617994
0.522783
0.58096
0.636025
0.590851
0.698836
0.733374
0.837487
0.871955
0.849294
0.945204
0.996946
1.10166
1.08585
1.14493
1.11859
1.21408
1.21918
1.21238
1.24419
1.27591
1.2703
1.32589
1.28616
1.31455
1.27246
1.27544
1.31236
1.23562
1.27713
1.24182
0.001
0.001
0.001
0.001
0.001
0.001
0.001
0.001
0.00101
0.001
0.001
0.001
0.001
0.001
0.001
0.001
0.001
0.001
0.001
0.001
0.001
0.001
0.001
0.001
0.001
0.001
0.001
0.001
0.00112404
0.00112401
0.001
0.001
0.001
0.001
0.00101
0.001
0.0010004
0.001
0.001
0.001
0.001
0.001
0.0020684
0.001
0.001
0.001
0.001
0.001
0.001
0.001
0.001
0.00220286
0.001
0.001
0.001
0.00116429
0.0011853
0.001
0.00100983
0.001
0.001
0.001
0.001
0.001
0.00109888
0.00109881
0.001
0.001
0.00109877
0.00109878
0.001
0.001
0.001
0.001
0.0013986
0.001
0.00139837
0.001
0.001
0.001
0.001
0.00100119
0.00104986
0.00105085
0.001
0.001
0.001
0.001
0.001
0.001
0.001
0.001
0.001
0.001
0.00118522
0.001
0.00100958
0.00100997
0.001
0.001
0.001
0.001
0.00101
1.37814
1.41196
1.41605
1.40932
1.43838
1.54212
1.52153
1.52649
1.54873
1.4849
0.625857
0.609701
0.544071
0.548968
0.508284
0.533222
0.448058
0.402556
0.38837
0.35382
0.325905
0.331422
0.236141
0.25431
0.116258
0.158179
0.162447
0.001
0.001
0.001
0.00101
0.001
0.001
0.001
0.00119223
0.0905693
0.001
0.001
0.001
0.001
0.001
0.001
0.001
0.00101
0.001
0.001
0.00102223
0.001
0.001
0.001
0.001
0.001
0.48873
0.492758
0.534301
0.234893
0.377153
0.375009
0.410604
0.537082
0.602651
0.565041
0.472926
0.555608
0.581255
0.58703
0.504772
0.535579
0.001
0.001
0.00113228
0.00102217
0.001
0.001
0.00101
0.00118919
0.001
0.001
0.001
0.001
0.001
0.001
0.001
0.00148657
0.00148681
0.001
0.001
0.001
0.001
0.00101127
0.001
0.001
0.001
0.00101685
0.001
0.001
0.001
0.001
0.00105445
0.001
0.00100563
0.001
0.001
0.001
0.001
0.001
0.001
0.001
0.001
0.001
0.001
0.001
0.001
0.0950697
0.108839
0.119995
0.001
0.00599669
0.001
0.001
0.001
0.001
0.001
0.001
0.00104677
0.00204676
0.001
0.001
0.001
0.001
0.001
0.001
0.001
0.001
0.001
0.001
0.001
0.001
0.001
0.001
0.001
0.00114011
0.001
0.00115281
0.001
0.001
0.001
0.001
0.00101
0.001
0.001
0.00113995
1.26911
1.22448
1.29684
1.26531
1.27327
1.31987
1.31734
1.35447
1.37549
1.37392
1.37494
1.30957
1.37189
1.32765
1.1606
1.16566
1.14899
1.16691
1.17366
1.19119
1.18698
1.1944
1.10621
1.11046
1.13415
1.11877
1.14903
1.1545
0.745839
0.671692
0.582441
0.661239
0.457209
0.545766
0.662853
0.670764
0.897866
0.8955
0.895235
0.828878
0.977826
1.03053
0.943786
0.89538
1.03423
1.03093
1.04678
1.03223
1.06815
1.09466
1.10594
1.10739
1.1131
1.10415
1.10923
1.10766
1.11023
1.10188
0.145594
0.139134
0.312719
0.392776
0.285054
0.202999
0.441308
0.392493
0.119969
0.146917
0.112802
0.0259824
1.27977
1.31421
1.29697
1.32778
1.34338
1.3321
1.37406
1.38289
1.36339
1.37393
1.36512
1.37517
1.37802
1.40244
1.4222
1.44164
1.4399
1.49152
1.46846
1.51426
1.52519
1.39781
1.40866
1.51589
1.53188
0.001
0.001
0.001
0.001
0.001
0.001
0.001
0.001
0.00101
0.001
0.001
0.001
0.001
0.001
0.001
0.001
0.00179545
0.001
0.001
0.001
0.001
0.001
0.016026
0.001
0.121764
0.111376
0.0781412
0.0290648
0.146686
0.185934
0.249932
0.245905
0.260161
0.254824
0.368689
0.308625
0.414214
0.411461
0.437629
0.442566
0.416401
0.477309
0.519197
0.49481
0.469746
0.497993
0.552876
0.537768
0.521743
0.560319
0.647124
0.644368
0.641443
0.660692
0.787103
0.70481
0.872038
0.899297
0.900478
0.967496
1.04585
1.12086
1.12901
1.1406
1.18908
1.23436
1.27632
1.27034
1.30755
1.28908
1.33841
1.34768
1.34865
1.34393
1.34759
1.34563
1.31089
1.34771
1.3196
0.001
0.001
0.00651985
0.00102553
0.001
0.001
0.001
0.001
0.001
0.001
0.00101
0.00128614
0.001
0.00128459
0.0012858
0.00128449
0.00128348
0.001
0.00128304
0.0061783
0.001
0.001
0.001
0.00204707
0.001
0.00204651
0.00204702
0.001
0.001
0.00100217
0.001
0.001
0.001
0.001
0.00101
0.00104144
0.001
0.001
0.00100986
0.001
0.001
0.001
0.00181701
0.001
0.001
0.001
0.001
0.001
0.001
0.001
0.001
0.001
0.00100941
0.001
0.001
0.001
0.00100992
0.001
0.001
0.001
0.00101
0.001
0.001
0.001
0.001
0.001
0.001
0.001
0.001
0.001
0.001
0.00100949
0.001
0.001
0.001
0.001
0.001
0.001
0.001
0.001
0.001
0.001
0.00109289
0.001
0.001
0.001
0.001
0.001
0.001
0.001
0.001
0.001
0.001
0.001
0.001
0.001
0.001
0.001
0.001
0.001
0.001
0.001
0.001
0.001
0.001
0.001
0.001
0.001
0.001
0.001
0.001
0.001
0.00106653
0.001
0.001
0.001
0.001
1.57499
1.56774
1.58294
1.57107
1.58138
1.58244
1.41655
1.41972
1.48196
1.45018
1.56328
1.57728
1.54631
1.4314
1.3552
0.486152
0.48673
0.488933
0.475379
0.489484
0.419726
0.462034
0.24833
0.306689
0.167792
0.17338
0.117372
0.118443
0.118738
0.001
0.001
0.001
0.001
0.001
0.11628
0.001
0.001
0.001
0.001
0.001
0.001
0.001
0.001
0.001
0.001
0.001
0.001
0.00101
0.001
0.00100974
0.001
0.001
0.001
0.489387
0.48882
0.492207
0.491538
0.490125
0.203903
0.317699
0.261848
0.382033
0.441269
0.467175
0.39564
0.480875
0.429543
0.43229
0.417416
0.001
0.00113492
0.001
0.001
0.001
0.001
0.001
0.0010149
0.001
0.001
0.00101383
0.001
0.001
0.001
0.001
0.001
0.001
0.001
0.001
0.00101578
0.001
0.001
0.001
0.001
0.001
0.00100972
0.001
0.001
0.001
0.001
0.001
0.001
0.001
0.001
0.001
0.001
0.00105427
0.001
0.00105396
0.001
0.001
0.001
0.001
0.001
0.00100113
0.001
0.001
0.00102665
0.001
0.001
0.001
0.001
0.001
0.001
0.001
0.001
0.001
0.0938869
0.0235351
0.0106881
0.001
0.001
0.001
0.001
0.001
0.001
0.001
0.00100956
0.001
0.001
0.001
0.001
0.001
0.001
0.001
0.001
0.001
0.001
0.001
0.00102382
0.001
0.001
0.001
0.001
0.001
0.001
0.001
0.001
0.001
0.001
0.00184236
0.00184209
0.001
0.001
0.001
0.001
0.00100972
0.001
1.25414
1.21536
1.24882
1.24449
1.23924
1.27603
1.24539
1.291
1.30435
1.33409
1.40278
1.3554
1.29775
1.15895
1.15455
1.17826
1.16514
1.18853
1.18479
1.21323
1.19569
1.10554
1.1135
1.13728
1.12102
1.13646
1.14775
0.786986
0.705878
0.626012
0.659216
0.608603
0.517816
0.703471
0.663643
0.904089
0.898618
0.86113
0.90392
0.988777
1.03993
0.902419
0.949055
1.03747
1.03666
1.0572
1.04054
1.08103
1.0989
1.09163
1.09952
1.10638
1.10084
1.10289
1.10734
1.10559
1.10423
0.138053
0.197842
0.386752
0.371778
0.282822
0.373261
0.39042
0.466904
0.134587
0.13035
0.123505
0.0356863
0.001
0.001
0.00687761
1.35164
1.3545
1.38549
1.37306
1.39916
1.41489
1.41576
1.41294
1.44862
1.42854
1.44176
1.40478
1.43724
1.44856
1.46986
1.49038
1.50276
1.49655
1.54918
1.55056
1.5733
1.55085
1.46733
1.47367
1.59121
1.58669
0.001
0.001
0.00101
0.001
0.001
0.00122828
0.00122804
0.001
0.001
0.001
0.001
0.00194196
0.00120411
0.001
0.001
0.001
0.00100232
0.001
0.001
0.001
0.001
0.001
0.001
0.001
0.001
0.0608646
0.135714
0.0112989
0.234095
0.170575
0.247064
0.236363
0.333889
0.275104
0.409943
0.429193
0.429303
0.432147
0.554303
0.525367
0.493713
0.549845
0.571463
0.566589
0.553903
0.549692
0.56413
0.561206
0.64389
0.687173
0.720269
0.675226
0.72239
0.746044
0.886465
0.817397
0.913436
0.901725
0.983565
1.05781
1.14483
1.13904
1.17832
1.21234
1.28695
1.28383
1.2978
1.31076
1.3351
1.33873
1.3596
1.34919
1.36184
1.35672
1.35062
1.36179
1.35257
1.35097
0.001
0.001
0.00101
0.001
0.001
0.001
0.001
0.001
0.001
0.00128421
0.001
0.001
0.001
0.00128505
0.00128529
0.00128547
0.00128556
0.00128479
0.00128561
0.001
0.001
0.00100461
0.001
0.001
0.001
0.00100179
0.001
0.001
0.001
0.001
0.001
0.00101
0.001
0.001
0.00100863
0.00104148
0.001
0.001
0.001
0.00380331
0.001
0.001
0.001
0.00100994
0.001
0.001
0.001
0.00100983
0.001
0.001
0.00100647
0.001
0.00100976
0.001
0.001
0.001
0.001
0.001
0.00346926
0.001
0.001
0.001
0.001
0.001
0.00116187
0.00116175
0.00116177
0.001
0.001
0.001
0.001
0.001
0.001
0.001
0.001
0.001
0.001
0.001
0.001
0.001
0.001
0.001
0.001
0.001
0.001
0.001
0.001
0.001
0.001
0.001
0.001
0.001
0.001
0.001
0.001
0.001
0.001
0.001
0.001
0.001
0.001
0.001
0.001
0.001
0.001
0.001
0.00101
0.001
0.00113594
0.001
0.00115807
0.001
0.001
0.00108799
0.001
0.00109499
1.5984
1.61989
1.62325
1.58602
1.59599
1.57286
1.5871
1.49676
1.49234
1.49857
1.51282
1.53875
1.55843
1.57531
1.42476
1.45356
1.37653
1.41748
1.40736
0.48317
0.479011
0.384737
0.348758
0.444543
0.376114
0.384218
0.253733
0.281314
0.149394
0.117246
0.119532
0.117559
0.0956121
0.001
0.001
0.035977
0.145045
0.001
0.001
0.001
0.00107078
0.001
0.001
0.001
0.001
0.001
0.001
0.001
0.001
0.001
0.00104466
0.001
0.001
0.0010248
0.001
0.001
0.001
0.447426
0.490917
0.46638
0.44031
0.208193
0.207659
0.230827
0.302053
0.418613
0.417472
0.368582
0.418692
0.416997
0.00100999
0.001
0.001
0.001
0.001
0.001
0.00132215
0.00132052
0.001
0.001
0.00101675
0.00100946
0.001
0.001
0.00100978
0.001
0.00100993
0.00342402
0.001
0.001
0.001
0.001
0.001
0.001
0.001
0.001
0.001
0.001
0.00125008
0.001
0.001
0.001
0.001
0.001
0.001
0.001
0.001
0.001
0.001
0.001
0.001
0.001
0.001
0.001
0.001
0.001
0.001
0.001
0.001
0.001
0.001
0.00184026
0.001
0.001
0.001
0.001
0.001
0.001
0.001
0.001
0.001
0.001
0.001
0.0106621
0.001
0.001
0.001
0.001
0.001
0.001
0.001
0.0011831
0.001
0.001
0.001
0.001
0.001
0.001
0.001
0.001
0.001
0.001
0.001
0.001
0.001
0.001
0.001
0.001
0.001
0.001
0.001
0.001
0.001
0.001
0.001
0.001
0.001
0.00137108
0.00101
0.001
0.001
0.001
0.001
0.00100999
0.001
0.001
1.1998
1.23044
1.23119
1.26064
1.27969
1.27177
1.30497
1.26713
1.2885
1.3457
1.30264
1.38201
1.34205
1.41729
1.14081
1.16034
1.15535
1.17284
1.15278
1.17483
1.221
1.16827
1.10285
1.1133
1.12027
1.12669
1.11781
1.12959
0.84231
0.75499
0.646051
0.658501
0.566646
0.657425
0.668771
0.725738
0.905793
0.906894
0.909041
0.880046
0.995893
1.04281
0.961774
0.91891
1.04473
1.04294
1.0465
1.06467
1.09252
1.094
1.09439
1.10166
1.0918
1.10256
1.10142
1.09453
1.10477
1.11488
0.219472
0.124354
0.395958
0.397945
0.307516
0.404747
0.405299
0.504195
0.121461
0.131987
0.103423
0.0830759
0.0257912
0.123208
1.36652
1.38893
1.40767
1.44224
1.43852
1.4557
1.46946
1.47688
1.48475
1.47205
1.48016
1.50359
1.51951
1.53346
1.53411
1.54329
1.55826
1.58143
1.59453
1.59356
1.60512
1.48444
1.47139
1.62617
1.65348
0.001
0.001
0.001
0.001
0.001
0.001
0.001
0.001
0.001
0.00194183
0.001
0.001
0.001
0.001
0.001
0.00106256
0.00106257
0.001
0.001
0.001
0.001
0.001
0.001
0.001
0.001
0.0591731
0.0607366
0.147985
0.211599
0.180359
0.270835
0.207848
0.392351
0.327829
0.420963
0.430769
0.435615
0.50047
0.623463
0.637308
0.574871
0.601899
0.641837
0.586926
0.69498
0.625707
0.596927
0.631568
0.766817
0.778527
0.839575
0.893589
0.777383
0.869101
1.01528
0.963054
1.0325
1.0048
1.19509
1.16253
1.22881
1.24628
1.32061
1.32635
1.39103
1.35179
1.40056
1.38054
1.3984
1.43376
1.40524
1.43582
1.44491
1.4062
1.3978
1.43711
1.43775
1.41187
0.001
0.001
0.00101
0.001
0.001
0.001
0.001
0.001
0.001
0.001
0.001
0.001
0.001
0.001
0.001
0.001
0.00100968
0.00128804
0.001
0.001
0.00128413
0.00100329
0.001
0.001
0.00131838
0.001
0.001
0.001
0.001
0.001
0.00136992
0.00100982
0.001
0.001
0.001
0.001
0.001
0.00100967
0.001
0.001
0.001
0.001
0.001
0.001
0.001
0.001
0.00101748
0.00101783
0.00101765
0.001
0.001
0.001
0.001
0.00110078
0.001
0.001
0.00110067
0.001
0.001
0.001
0.00100996
0.00113585
0.001
0.00108794
0.001
0.001
0.001
0.001
0.00101
0.001
0.001
0.001
0.001
0.001
0.00105247
0.001
0.00101971
0.001
0.001
0.001
0.001
0.001
0.001
0.001
0.001
0.001
0.001
0.001
0.001
0.001
0.001
0.001
0.001
0.001
0.001
0.001
0.001
0.001
0.001
0.001
0.001
0.001
0.001
0.001
0.001
0.001
0.001
0.001
0.001
0.001
0.001
0.001
0.001
0.001
0.001
0.001
0.001
0.00115807
0.001
0.001
0.001
0.00108901
0.001
0.001
1.65252
1.63907
1.64956
1.62431
1.61554
1.63795
1.62824
1.60632
1.62411
1.47216
1.50725
1.49107
1.50133
1.5721
1.62631
1.64476
1.53891
1.42224
1.45583
1.41331
1.41442
1.40943
1.45964
1.33811
0.249948
0.344276
0.246382
0.284703
0.289183
0.197677
0.192746
0.192928
0.2007
0.194012
0.172114
0.0905999
0.067184
0.001
0.001
0.0950115
0.206857
0.001
0.001
0.00116075
0.001
0.001
0.00109326
0.001
0.001
0.001
0.001
0.00115258
0.001
0.001
0.001
0.001
0.00117899
0.001
0.00108337
0.001
0.001
0.353885
0.281557
0.255647
0.342669
0.208288
0.229133
0.369737
0.29646
0.342792
0.418279
0.413022
0.00111374
0.001
0.001
0.00116239
0.001
0.001
0.00132158
0.0013222
0.001
0.001
0.00100995
0.001
0.001
0.001
0.001
0.001
0.00355536
0.00368244
0.001
0.001
0.00363574
0.001
0.00184054
0.001
0.001
0.001
0.001
0.00304777
0.001
0.00124999
0.00317098
0.001
0.001
0.001
0.001
0.001
0.001
0.001
0.001
0.001
0.001
0.001
0.001
0.00101
0.001
0.001
0.001
0.001
0.001
0.00109948
0.001
0.001
0.001
0.00139142
0.001
0.001
0.001
0.001
0.001
0.001
0.001
0.001
0.001
0.001
0.001
0.001
0.001
0.001
0.001
0.001
0.001
0.001
0.001
0.001
0.001
0.001
0.00117974
0.00117973
0.001
0.001
0.001
0.001
0.001
0.001
0.001
0.001
0.0015462
0.001
0.001
0.001
0.001
0.001
0.001
0.0015462
0.001
0.001
0.001
0.001
0.001
0.001
0.001
0.001
0.001
0.001
0.00560694
0.001
0.001
0.00101
0.00106634
0.001
0.00101
0.001
0.001
0.001
0.001
0.001
0.001
0.001
1.18345
1.21374
1.1774
1.2285
1.22316
1.24527
1.2238
1.26111
1.26966
1.3095
1.31052
1.30847
1.34833
1.31469
1.41485
1.12875
1.13443
1.13537
1.14218
1.13667
1.13764
1.14189
1.15651
1.15274
1.10312
1.10893
1.12761
1.12499
1.12412
0.798851
0.881244
0.68901
0.674585
0.598924
0.702882
0.752897
0.694409
0.920057
0.930425
0.936867
0.912992
1.0425
1.009
0.983139
1.00954
1.05422
1.04895
1.08296
1.09358
1.09393
1.1049
1.09998