/*--------------------------------*- C++ -*----------------------------------*\
  =========                 |
  \\      /  F ield         | OpenFOAM: The Open Source CFD Toolbox
   \\    /   O peration     | Website:  https://openfoam.org
    \\  /    A nd           | Version:  8
     \\/     M anipulation  |
\*---------------------------------------------------------------------------*/
FoamFile
{
    version     2.0;
    format      ascii;
    class       surfaceScalarField;
    location    "12600";
    object      phi;
}
// * * * * * * * * * * * * * * * * * * * * * * * * * * * * * * * * * * * * * //

dimensions      [0 3 -1 0 0 0 0];

internalField   nonuniform List<scalar> 
788991
(
-0.0406042
0.0251984
-0.032346
-0.0272081
0.0163442
-0.0639082
0.0105408
0.0029236
-0.0722443
0.0552021
-0.0440473
0.0422593
0.00689357
-0.0593819
-0.0497004
-0.0232506
0.0550877
0.0139999
-0.0400592
0.0364164
0.0368189
0.00605024
-0.0689764
0.0387542
-0.0205152
0.0613747
-0.0397791
0.0461937
-0.022619
0.0578574
0.0111805
0.0208895
0.0718318
-0.00373116
0.077614
-0.0259321
-0.0422284
-0.0433789
-0.0537432
-0.0104938
-0.0600361
0.0525591
0.0339464
-0.0241081
0.0629999
-0.0261542
-0.0310905
0.0102781
-0.00652129
-0.0735012
-0.0429431
0.000900182
-0.0224611
0.0278663
0.0202656
0.038023
-0.00623885
0.045741
0.0306457
0.0230416
0.029957
0.00794054
-0.0193705
-0.00549823
-0.00492435
-0.027781
0.0113198
0.0151814
-0.0150086
-0.00729675
-0.0096541
0.0109634
0.0932736
0.0374895
0.0603968
0.0187573
-0.0393488
-0.0619848
0.00674453
0.035963
0.0334386
-0.022316
0.0564567
-0.0589052
0.00757574
-0.0534585
0.042864
-0.0440685
-0.0489433
-0.0229804
0.0272234
-0.00884013
-0.047805
-0.0572665
0.0208297
0.0164752
-0.0223812
0.0511368
-0.0582506
-0.0340509
0.0117613
-0.0214675
-0.0429224
-0.0412652
-0.021097
-0.00842536
-0.027991
0.025654
-0.038186
0.020723
-0.00713502
-0.0277784
-0.0144722
-0.0287199
-0.0432371
-0.0269425
-0.0364031
-0.0160017
-0.0216398
0.0415411
0.0155373
-0.0487372
0.0184824
0.0103183
-0.0223468
-0.000561759
0.00400829
-0.0194081
-0.00384486
0.0184944
0
0
0
0
0
0
0.0328809
0
0.0618317
-0.0776238
0.0207541
0.064312
0.0242401
0.0577554
0.0269072
-0.055836
0.0705855
0.00949869
0.0603691
-0.00671803
0.00119882
-0.0536779
-0.0160779
-0.0353091
0.0290759
0.00794458
-0.0590941
-0.00809855
-0.0261249
0.0309326
-0.0203496
0.0393091
-0.0150288
-0.0362433
0.043208
-0.0316863
0.0412354
-0.0191637
-0.0543794
0.0276108
-0.0213845
0.0373582
-0.0131625
-0.0466012
-0.0208794
-0.0272625
-0.0299479
-0.00196561
-0.0444279
-0.0315308
-0.0420702
0.0214681
-0.00705446
-0.0429517
0.0326849
-0.0229025
0.0325566
-0.0214439
-0.0443598
-0.024623
-0.0221444
-0.0286329
-0.0233812
-0.0378365
0.0167337
-0.00479864
0.021414
-0.0418504
-0.0410628
0.0377401
-0.0111745
-0.0282373
0.0146399
-0.0341024
-0.00349542
-0.0455324
-0.005931
0.0336821
-0.0233685
-0.0113188
0.0033702
-0.019029
-0.0021403
0.0207517
0.0371146
0.0115839
0.0144909
0.0199343
0.0115577
-0.0054746
0.0188096
0.00129181
-0.0040682
-0.0143848
-0.00658696
-0.0189983
-0.0204385
-0.0040061
-0.027954
0.00865007
-0.0263185
-0.0233491
-0.017295
-0.0650338
-0.02432
0.0221106
-0.0205056
-0.0799306
-0.0237426
-0.00327664
0.00484956
-0.0305346
-0.0241246
-0.0381946
0.046288
-0.0243617
-0.0645019
-0.0305997
-0.0293034
-0.0593398
0.0304581
-0.0322925
-0.0586069
0.0199834
-0.0123377
-0.0465809
0.0267359
-0.00682494
-0.0478178
-0.0423188
-0.0221987
-0.0469587
0.0354804
0.00470288
-0.00760357
-0.0245746
0.0320684
-0.0147899
0.0231003
-0.0168698
0.00405813
-0.0387383
-0.0530399
-0.052493
0.025753
-0.0604276
-0.0523987
-0.0171175
-0.0362043
0.0274362
-0.0300847
-0.00128332
-0.0279542
0.0131552
-0.0131554
-0.0075443
0.0180227
-0.00132287
0.0234922
-0.0296872
0.000881963
-0.0143418
0.0139191
-0.0112508
0.0306885
0.0630706
-0.00475401
-0.0383155
0.0761394
0.0640037
0.0149845
0.00955703
-0.0105428
0.0144469
-0.000346385
-0.0265522
-0.0123072
-0.0100696
0.0230746
-0.0133181
0
0
0.0518347
0
0.0422936
0
0
0
0
0
0
0
0
-0.0495316
-0.0224204
-0.0355288
-0.0471232
-0.0101165
-0.0314656
-0.042771
-0.0494622
-0.0170827
-0.0211418
-0.0469628
0.0169673
-0.0103741
-0.0439722
-0.0176302
-0.00544097
-0.0320078
-0.0209466
0.000408885
-0.0288313
-0.0375009
0.018257
-0.0157763
0.0337611
-0.0140599
-0.0214844
-0.00385032
0.00899703
-0.0155527
0.00976422
0.0126313
-0.00661039
0.0266712
0
0
0
0
0
0
0
0
-0.0284565
0
0
0.130077
0.0963528
0.0265727
0.0945222
0.0750732
0.066758
0.0743127
0.033668
-0.0445085
0.0430888
0.0175575
-0.0393798
0.00394479
0.00392246
0.0133554
-0.0267113
-0.0124791
0.00374383
0.0147497
-0.0242373
0.0244616
0.00553919
-0.0176259
-0.0394925
0.0181233
-0.00973705
0.0183551
6.75484e-05
-0.0366565
0.0288526
0.00663129
-0.0181083
-0.0183463
0.0235102
-0.0126599
0.0200671
0.0307045
-0.0163211
-0.0144516
0.0510135
-0.0194118
-0.0282228
0.00209676
-0.05463
-0.0527354
-0.000642199
-0.0562086
0.00207627
0.0349786
0.00543021
0.0297625
-0.00864832
-0.00602977
0.0132576
-0.00409796
-0.0090898
0.00572587
-0.0135317
0.0383121
0.0412102
0.0219218
0.010568
-0.00869052
0.00171272
0
-0.0177663
0
0
-0.00244339
-0.0574555
-0.0221317
0.0227754
-0.0320335
0.0103875
0.0196985
0.00708868
0.0389119
0.030639
-0.00302597
0.0180838
0.0193801
-0.00341163
0.00200553
0.0168658
-0.0153467
-0.00802944
0.0093982
-0.0204588
-0.0290197
-0.0167069
0.0143023
0.0165662
0.0200472
-0.0195471
-0.0747757
-0.00849818
0.00493369
-0.0216928
-0.129445
0.0352311
-0.00257631
-0.00813761
-0.028123
-0.0238753
-0.0424863
-0.0439802
-0.0310072
-0.0615437
0.0235707
-0.0270044
-0.0630805
0.0246557
-0.0209222
-0.0571077
-0.0146398
-0.028709
-0.0681549
0.0432166
-0.0149663
-0.0584565
0.0281349
0.0170635
-0.0101001
0.0157837
-0.0152879
-0.0621334
-0.0352773
-0.00146516
-0.0109106
-0.0636773
-0.0414652
0.020418
-0.0521685
0.00285473
0.0480181
0.052533
-0.0248395
-0.000841949
0.0522269
-0.0191148
0.0352235
-0.0293756
0.0293854
-0.0366094
-0.0318036
-0.0302518
0.0117346
-0.0423296
0.0274322
-0.0616696
-0.0142873
-0.0449463
-0.0383921
-0.00802861
-0.0320847
-0.0464711
-0.00167796
0.0192245
0.0354014
0.00182823
0.0243428
-0.0326403
-0.0176472
0.0194804
-0.017611
-0.0041678
-0.0331465
0.00907046
0.0092312
0.00317196
-0.00310944
0.031022
0.0128932
-0.0448554
0.0274001
-0.043201
-0.0847327
-0.06115
0.0468071
0.0157452
0.0142177
0.017236
0.0170741
-0.011563
-0.0132575
0.0300688
-0.0176022
-0.0135068
-0.00571791
0
0
0
-0.0393285
0
0
-0.0285285
0
0
0
0
0
0
0
0
0
0
0
0
0
0
0
0
-0.0443762
-0.0324118
-0.009901
-0.0227566
-0.0341144
0.00986303
-0.0201556
-0.0350184
-0.00528887
-0.020348
-0.0318666
-0.00434167
-0.0116845
-0.0298191
0.00855021
0.00553197
-0.0189998
-0.0195848
0.0118853
-0.00512715
0.0253942
-0.00836784
-0.0209557
-0.0271306
-0.00376409
-0.0115435
0.00548682
3.12709e-05
-0.00767739
-0.00943048
0.00157205
-0.0160166
-0.016569
1.05079e-05
0
1.15553e-05
0
0
-4.12295e-06
9.29144e-06
-2.11961e-05
1.25156e-05
6.95017e-06
-1.03452e-06
0
0
0
0
0
0
0
0
0
0
0
0
0
0
0
0
0
0
0
0.103842
0
-0.0811645
0.099669
0.264535
-0.0800769
0.0725407
0.0518176
-0.0357375
0.0457854
0.0370055
0.0182066
0.0187541
0.0164494
-0.00498949
-0.000946468
0.0114538
0.0108573
-0.0300909
-0.00247042
0.0299193
-0.00158542
-0.00113606
-0.0256038
-0.00980979
-0.0274739
-0.00158836
-0.015899
-0.0171644
-0.0125564
0.00365675
-0.0244969
0.00717411
-0.00319201
-0.0181514
0.0192609
0.00886079
-0.0173205
-0.0144324
0.011691
0.00183472
0.00554668
0.0205609
-0.00866194
0.0135029
-0.0255931
0.0303589
-0.0462602
-0.0482329
0.0244379
-0.0428963
0
-0.00595303
0
0
-0.0318426
-0.037144
0.0156161
0.00108592
0.000931355
0
0
0
0
0
0
0
0.0397447
0.00511241
-0.0272604
-0.00860493
0.00160427
0.017054
-0.0292291
0.00940301
0.0313212
-0.000834654
-0.0130732
-0.030158
-0.0473417
-0.00081483
0.0103613
-0.0224061
-0.0144918
0.0212683
-0.119495
0.0146812
0.0176618
-0.0286046
0.0214236
0.0143519
0.00971853
0.0213154
0.0164128
0.0151528
0.00455513
0.0262063
0.0277435
0.00945928
0.0406371
-0.0495423
-0.0331948
0.0250486
-0.0281379
-0.0109054
0.0231647
0.0459755
0.00122695
0.0416945
0.0344689
-0.160809
0.0566144
-0.099275
-0.0386333
-0.0809863
0
-0.0175353
-0.00066921
-0.0235238
-0.031127
-0.0526439
-0.028978
-0.0294565
-0.0499795
0.0133486
-0.0242752
-0.042994
0.0212926
-0.0191789
-0.0432875
0.0299278
0.00354433
-0.0644423
0.0396552
-0.0216229
-0.0486079
0.0288192
0.00621265
-0.0350368
-0.0178092
0.0239807
-0.00307119
0.0164225
0.0112292
-0.0733512
0.0343717
-0.0351876
0.0232769
-0.0440958
-0.067369
-0.00724383
-0.0652556
-0.0448658
0.0133003
-0.056098
-0.0494885
0.0038346
0.057539
0.0220359
-0.0461242
0.0565094
-0.0309699
-0.0250987
-0.0243602
-0.0324049
0.00765313
-0.0482963
-0.0136106
-0.00464562
-0.00409753
-0.00655106
-0.0250321
0.00112764
-0.0155967
0.00235683
0.00637025
-0.0170999
0.00971003
0.0169412
-0.0112066
0.0200066
0.00779268
0.00208399
-0.00813317
-0.0504961
0.0131122
0.0414742
0.013682
-0.0173895
-0.0407062
0.000954844
0.022823
0.0165412
-0.0185093
0
0.0183137
-0.000952157
0.0171331
-0.00295509
-0.0114745
-0.0196699
-0.0301808
-0.0299508
0.0168479
-0.0506304
0.020752
-0.0615497
0.0200244
0
0
0
0
0
0
0
0
0
0
0
0
0
0
0
0
0
0
0
0
0
0
0
0
0
0
0
0
0
0
0
0
0
-1.25032e-05
0
-6.22999e-06
0
-2.1395e-05
-2.14957e-08
-1.26364e-05
6.73855e-06
1.16541e-05
-4.66057e-05
0
0
1.47631e-05
0
0
0
0
0
0
0
0
0
0
0
0
0
0
0
0
0
-0.0278141
-0.0254182
-0.0142422
-0.00688149
-0.0371794
0.0333397
-0.0212862
-0.0168966
0.0111702
-0.0349573
-0.0232688
0.00252243
-0.00376513
-0.0139288
-0.0058472
0.00271916
0.00252691
0.00993477
-0.00118057
-0.017383
0.0112805
-0.00818426
-0.0137369
0.0188927
-0.00453683
-0.00552263
0.00152775
0.00625389
-0.00336099
-0.0130817
-0.00227665
0.00734892
-0.000126858
0
6.83057e-06
0
0
0
0
0
0
0
6.11771e-06
0
0
0
0
0
0
0
0
0
0
0
0
0
0
0
0
0
0
0
0
0
0
0
0
0
0
0
0
0
0
0
0
0
0
0
0
0
0.0303462
0
0.0270178
0.165852
0.17891
-0.0639263
0.0667358
0.151626
-0.000183533
0.0458007
0.0855094
0.0216285
0.0259886
0.0511485
0.020149
0.00975218
0.0384037
-0.0352294
-0.0108572
0.0370952
0.0489638
-0.0364728
0.0187801
-0.0543558
2.17815e-05
0
0
-5.66545e-05
-2.22108e-06
0
0
2.57238e-05
0
0
0
0
0
0
0
0
0
0
0
0
0
0
0.0102119
-0.0222693
-0.000507219
0.00898434
0.00777461
-0.00949492
-0.00423625
-0.00636888
0.0117668
-0.0138064
-0.000173267
0.0272748
-0.0289997
-0.035571
-0.0136503
-0.00618641
-0.00900831
0
-0.0255448
0
0
-0.053314
0
0
0.0441307
0
0.00183874
-0.0119763
-0.0084337
0.0321636
0
0
0
0
0
0
0
0
0
0
0
0
0
0
0
0
0
0
0.0125328
-0.0529774
-0.0200207
0.0312441
0.00280669
0.0275396
0.0266843
0.00257996
-0.0167389
0.0580388
-0.0512671
0.0510501
0.00108055
0.011142
0.0169979
0.0430685
0.0218163
0.0298095
0.00212688
0.0469309
0.020345
0.017714
0.0125994
0.00991109
0.0205515
0.00731408
-0.0804559
0.0570317
0.0106043
-0.0350043
-0.0483447
-0.00538392
0.0272765
0.0204916
0.0130875
0.00263631
0.0161642
-0.0175112
0.0334123
-0.0701393
-0.0194243
0.0322888
0.0583264
-0.101682
0.0419629
0.071822
-0.00579999
-0.0300301
0.10902
-0.0157119
-0.010783
-0.0914941
0.0434393
0.00196328
-0.010303
0
-0.0466754
0
0
0.00427714
0.0127533
-0.0359243
-0.0346213
0.0371304
-0.0298482
-0.037908
0.00866555
-0.0379722
-0.0476366
0.0307449
-0.0302932
-0.0658445
-0.0257292
-0.00221307
-0.0521007
0.021868
0.000489887
-0.0283108
-0.0402053
-0.0161223
-0.0200223
0.026645
-0.0156646
-0.0282761
-0.0579205
-0.0166878
-0.0392639
-0.0633176
-0.0346428
-0.000382939
-0.0579055
-0.0476039
0.0121653
0.0469959
-0.0436505
0.00850673
-0.0563342
-0.0395533
0.025295
-0.0710234
0.0331759
-0.0105499
-0.048921
0.00138453
-0.000156484
-0.00491676
-0.00914527
0.0232688
-0.0264684
-0.0531755
-0.0645869
-0.00140458
-0.0369859
-0.0321215
0.0251762
-0.0589974
-0.0264879
0.0118819
-0.0668911
-0.017972
-0.0383043
-0.0651386
-0.00175845
-0.0133634
0.0602397
-0.0710473
0.0686497
-0.064028
-0.00793489
-0.0075238
-0.0588688
0.00782693
-0.0691979
-0.0123504
0.0647367
-0.0510069
0.0693015
-0.0231678
-0.00413092
0.0702148
-0.0457843
0.0742825
0.0219799
0.0184782
0.0765318
-0.0457858
0.0775155
0.0300206
0.0331756
-0.0782371
0.0256804
0.0825949
0.0668449
0.0339217
0.0852308
-0.00719236
0.0926952
0.0890031
0.0456772
0.0825666
0.00902461
0.0856805
-0.0982781
0.0603243
0.0861155
0.0850891
0.00994078
-0.0983585
0.0854674
-0.0840501
0.0188045
-0.0032558
-0.0180152
0.0359345
0.0162033
0.014533
-0.0123908
-0.0577068
0.0197828
0.0782712
-0.0714826
0.00392555
-0.0114843
0
-0.0417414
0
-0.0149091
0.00505316
0.00921997
-0.0195113
0
0
-0.022285
0
0.0436124
-0.0194164
-0.0351144
-0.0270877
-0.0345575
-0.00960397
0
0
0
0
0
0
0
0
0
0
0
0
0
0
0
0
0
0
0
0
2.59783e-05
7.60291e-05
0
0
0
0
0
0
0
0
0
0
0
0
0
0.000140225
-9.57687e-06
0
0
0
0
0
0
0
0
0
0
0
0
-6.7545e-05
0
0
0
0
0
0
0
0
0
0
0
0
0
0
0
0
0
0
-3.45932e-06
-2.39412e-05
0
4.11514e-06
2.39309e-05
0
-2.0655e-05
-4.28576e-05
0
0
0
0
0
0
0
0
0
0
0
0
0
0
0
0
0
0
0
0
0
0
0
0
0
0
0
0
0
0
-0.00779732
-0.0359776
0.0328645
0.0134898
-0.0397875
-0.0396439
-0.0320581
-0.00815666
-0.0129908
-0.00369535
-0.0118105
0.0067782
-0.00643546
0.00183471
0.00960842
0.0102993
0.00980483
-0.0110618
0.00185207
-0.0104027
0.0216911
0.00326182
0.00390448
-0.0190065
-0.00888739
-0.00453405
-0.0142047
0.00442008
0.000359974
-0.00418397
-0.0142585
-0.00226192
0.00846578
0
0
0
-0.000119103
0.000150592
0.000508847
0
0
0
0
0
0
0.000151673
0
-3.15592e-05
0
0
0
0
0
0
0
0
0
0
0
0
0
0
0
0
0
0
4.84588e-05
4.64464e-05
1.83365e-05
0
-4.58424e-05
0
0
0
0
-0.0141717
0
-0.0777983
0.0819041
-0.0162518
0.0272318
0.0611873
0.0763923
0.0355288
0.0395912
0.100952
0.0598174
0.0166457
0.0818725
-0.0689195
-0.00610146
0.0766172
-0.0850805
-0.0250993
0.0617137
0.0743555
-0.0336832
0.0549235
0.0381942
0.000218662
0
0
0.000236445
0
-3.2333e-05
0
-8.56978e-07
0
5.11107e-07
0
-1.12457e-06
4.99253e-09
0
0
0
0
0
0
-1.22085e-06
0
0
0
0
0
0
0
0
0
0
0
0
0
0
0
0.00432106
0.0328308
-0.0070034
0.00617408
0.021824
0.00660321
0.00586948
-0.00865989
0.00367517
-0.0101627
-0.00848955
0.00508739
-0.0168773
0
0
0
-0.000374446
0.000258896
0
0
0
0
0
0
0
0
0
-0.0164436
0
0
-0.00161798
0.00150082
0.00296932
0
0
0
0
0
0
0
0
0
0
0
0
0
0
0
-1.14704e-05
0
-1.18661e-05
0.054789
0.0551383
-0.0168605
0.026155
0.038218
-0.0296238
0.0305705
0.032639
-0.0017233
0.023556
0.0447607
-0.0165794
0.0758657
0.0435598
0.0325954
0.0685331
0.0418468
-0.0334549
0.0452676
0.0691982
-0.0418826
0.0484049
0.0775525
0.0254895
0.0197201
0.0804409
-0.0611488
-0.0169997
0.0876703
-0.11045
-0.0325668
0.0881846
0.123367
-0.0303923
0.0876178
0.121293
0.0836995
0.0863571
-0.0844057
-0.00216896
0.0867441
0.0834798
-0.0150446
-0.112536
-0.0281017
0.00406253
-0.0277716
0.0422747
0.0190456
0.0293586
0.0294891
0.0327314
-0.108791
0.012694
0.00479711
-0.00625764
-0.00145807
0.00585949
0.051565
0.041135
0
0
-0.04407
0.0218982
0.0600158
0.0141767
-0.0311433
0.0121302
0.000216169
0.00606325
-0.00747703
-0.0242948
-0.0466282
0.00663657
-0.0170179
0
0
-0.0902558
0
0
-0.305304
0
0
0
0
0
0
0
0
0
-0.0226749
0
-0.0463827
0
-0.0301874
-0.0346407
-0.019302
-0.0241294
-0.0284186
-0.00600894
-0.0322547
-0.0325961
-0.0678917
0.0296782
-0.019013
-0.0532037
0.000201322
-0.0021066
-0.0421908
0.00966225
0.00765775
-0.028748
-0.0274632
0.0205735
-0.0460728
0.0426213
0.042743
-0.0459985
-0.0458218
-0.00536384
0.058297
-0.0555115
-0.033009
0.0262809
0.0570584
-0.00584761
0.0447724
0.0578068
-0.0646056
0.00699051
-0.066258
-0.0191612
-0.0481778
-0.0460994
-0.0639309
-0.0575627
-0.0209141
-0.0514223
-0.0181445
0.0569552
-0.0600265
-0.0511901
0.0132118
-0.0528659
-0.0425846
-0.023722
-0.0531695
-0.0277474
0.0233537
-0.0630591
-0.018617
0.0441955
-0.0581149
-0.0273736
-0.0674334
-0.0734614
-0.0343769
-0.0535176
-0.063253
-0.0226617
0.0631335
-0.0500495
0.00201573
0.0724693
-0.0418934
0.0309449
0.0768462
-0.0534772
0.0352316
0.0786657
-0.0400065
0.0151724
0.0780924
-0.0149174
0.0284607
0.070357
0.00244398
0.0662888
-0.0777385
0.00623031
0.0914258
0.0782242
0.00220243
0.0804449
0.0954057
0.0785701
0.0188462
0.0785453
0.0882761
0.0876725
-0.07651
-0.0251475
0.0723089
0.09103
0.0696458
0.0976706
-0.0135706
0.00702651
0
0.014064
0.0253572
-0.00639688
-0.0311222
-0.0656707
0.0597712
0.0768994
-0.00269881
0.00139194
0.0300074
0
-0.0205254
-0.00129025
0
0
0
0
0.00526516
-0.00782232
0
0
0
-0.0208531
0
0
-0.000322906
0.000166428
0.000272068
0
-0.000105489
0
0
0
0
0
0
0
0
0
0
-6.75607e-06
0.000274135
-5.49492e-05
0
0
0
-1.34659e-05
0
8.62824e-05
0
-2.91537e-05
0
0
0
0
0
0
0
0
-1.57236e-05
0.000267251
0
0
0
0
0.000101121
0
0
0
0
0
0
0
0
-1.46432e-07
-9.03372e-07
0
0
0
0
0
0
0
0
0
0
0
0
0
0
0
-1.89937e-05
0
0
0
-9.49987e-06
-9.37066e-06
0
0
0
0
0
0
0
0
0
0
0
0
0
0
0
0
0
0
0
0
0
0
7.57476e-07
0
0
0
0
0.00106319
-0.0430238
0.0330984
0.0221858
-0.0157849
-0.0319979
-0.0130119
-0.000623024
-0.00263393
-0.00535727
0.00458385
-0.00537501
-0.000792488
0.00881477
-0.0234195
0.00569211
0.0110789
-0.0135422
0.0110387
-0.00448713
-0.0156334
-0.0142672
-0.0131894
0.00629194
0.00421382
-0.00405135
0.0117387
0.0119264
0.00508157
-0.00375593
0.0136223
-0.00314761
-0.00050706
-0.000544901
0
-7.19346e-05
6.43135e-05
-0.000758502
-0.000247054
0
0
0
0
0
0
0
0
0
0
0
0
0
0
0
0
0
0
0
0
0
0
0
0
-6.61368e-05
0
0
0
0
0
0
0
0
0
0
0
-0.0509822
0
-0.072689
0.0277635
-0.0317659
0.0102133
0.0301327
0.0396891
0.0353101
0.0224452
0.0737145
-0.0663521
0.00670269
0.0784618
0.0690964
-0.027527
0.06871
0.066742
-0.0261671
-0.0102917
0.0374
-0.025791
0.050536
-0.0471929
0
0
0
0
0
0
0
0
0
0
3.5405e-07
0
0
0
0
0
0
0
0
-0.00657528
0
0
0
0
0
0
0
0
0
0
0.00506086
0
0.00244081
0
0
0
0
0
0
0
0
0
0
-0.00562058
0
-0.0241995
-0.0308107
-0.0071673
-0.00859008
-0.00906088
0.00580435
0
0
0
-0.0001158
0
0
0.0117827
-0.0351857
-0.0288643
-0.00539133
0
0
0
0
0
0
-1.45763e-05
-2.23635e-05
3.04087e-06
0
-7.96196e-06
0
-0.00130048
0
0
0
0
0
0
3.72234e-07
0
-1.27043e-05
0
0
0
0
0
0
0
0
0
0
0
0
0
0
0.0340162
0.0075367
0.0685004
-0.0418813
0.0499105
-0.0672597
0.0442797
0.0709477
0.0380188
0.0385987
-0.0881308
0.0730992
-0.0288696
-0.0351736
0.0333927
0.0825528
-0.0185212
0.06821
0.093543
-0.0623137
0.0843968
-0.0329384
0.0754572
-0.0544697
0.0622901
0.0913311
-0.0395346
0.0802857
-0.0512399
0.0568547
-0.094082
0.0933685
-0.0616846
-0.0470213
0.0658838
0.0982929
-0.0124417
0.0814626
0.0839749
-0.0167667
0.0758543
-0.0782341
-0.0130888
0.0720528
0.0752325
0.0486453
0.0176735
-0.0448622
0.0395146
0.0127429
-0.0357585
0.0421646
0.0184261
-0.00385069
-0.000195652
0.0419048
-0.0328785
0.0671816
0.0330318
0.0499395
0.0627952
0.0120587
0.0647649
0.0404273
0.0760084
0.0462698
0.0207224
0.0792263
0.0631548
-0.0193206
0.0789803
0.101548
-0.0389201
0.0887682
0.127335
-0.0348597
0.0922316
0.127634
-0.0183322
0.0892155
0.114109
0.084696
-0.0136815
0.111158
0.0902365
-0.0233739
0.11635
0.0349361
-0.0360569
-0.00354051
-0.0142216
-0.000585562
0.00723758
0.0141189
0.0114973
0.0135226
-0.0701465
0.00564842
-0.0037794
0.00733006
0
-0.0895822
-0.068655
0.0164886
0.0175736
0.0792308
0.0624208
0.0116262
0.0737421
-0.0571698
0.0328126
0.0623317
0.0488387
0.0384891
0.0837031
0.0489166
0.0309553
0.0898597
0.0416985
0.039456
0.0810599
0.0245746
0.0405018
0.0679849
0.0221171
0.051621
0.0364352
0.0509867
0.013723
0
1.56124e-05
2.45662e-05
0
-0.00351953
-0.00134965
0.0162802
0.0198377
0.0281437
-0.09315
0.0720153
-0.117461
1.0615e-05
-0.0878386
-1.31209e-05
2.03883e-05
-1.20997e-05
-6.58926e-06
0
-4.25896e-05
0
0
0
0
0
0
0
0
0
0
0
0
0
-0.0332809
0.00115999
0.00161493
-0.0138884
0.0575707
-0.0670352
-0.0449678
0.0287697
-0.0731387
-0.0109645
-0.0164981
0.00591809
-0.00646463
-0.0639004
-0.0135176
0.0297978
0.0337469
-0.0384659
1.04778e-05
-0.0463673
0.0569639
0.0265971
0.0152618
0.0505989
0.0214893
-0.0475192
0.0415246
-0.0326088
0.0165317
-0.0932292
-0.030354
0.0399214
-0.0696122
-0.0468182
-0.000944415
0.0552806
-0.0376711
0.0356775
-0.0659525
-0.0118857
-0.0362375
-0.0630192
-0.0503571
-0.0433576
-0.0212634
-0.0557184
-0.0168674
0.0601438
-0.052704
-0.0425315
-0.0191658
-0.0420685
-0.0455437
0.0315553
-0.0564214
-0.0409463
0.0309638
-0.0417016
-0.0424871
-0.0863256
-0.0823172
-0.0440922
-0.042292
-0.0726303
-0.0426754
0.0559239
-0.0653427
-0.0122426
0.0669171
-0.0504569
0.00876165
0.0759943
-0.0528563
0.0240733
-0.0755612
-0.0629288
0.0143385
0.0762649
-0.0358454
0.00253806
-0.0651043
-5.35957e-05
0.0346139
-0.0593433
0.0157489
0.071415
0.0622648
0.0168262
0.0890162
-0.0636535
0.00933575
0.0859102
-0.0651313
-0.0639292
0.0793332
0
-0.0135804
0.0217588
0
0
0
0
0.00134289
0
0
-0.0117698
0
0
0.00268567
0
0
0
0
0
1.59753e-05
0
7.92883e-05
0
-0.00484661
0
0
1.69443e-07
0
1.69597e-05
0
-0.000105638
0
1.15353e-05
0
0
0
0
0
0
0
0
3.60347e-05
5.11836e-05
-1.72542e-05
8.37299e-05
0
-0.000389532
3.54743e-06
0.000251304
2.2097e-06
0
0
0
0
0
0
0
0
0
0
0
0
-4.10896e-05
0
-0.000108993
0
0
0
0
0
0
0
0
0
0
0.00310749
0.00191846
0
0
0
0
0
0
0
0
0
0
0
0
0
0
0
0
0
0
0
1.29548e-07
-7.10439e-06
-1.93273e-05
0
0
0
-3.69008e-05
4.49236e-07
0
0
0
0
0
0
0
0
0
0
0
0
0
0
0
0
0
0
0
0
0
0
0
0
0
0
0
9.37918e-06
0
-4.06564e-05
0
0
0
-9.23713e-06
0
1.64642e-05
0.0276854
0.0234104
-0.0738871
-0.028082
0.0597637
-0.0123127
0.0539602
0.0317722
0.0115423
-0.0111578
-0.0256878
0.0177166
0.00830197
0.02076
0.000807821
0.0143573
0.000727439
0.00500425
0.00926648
0.0131741
0.00387137
0.0215052
-0.0049653
0.000601805
-0.0136546
0.0104356
0.00100868
-0.0110442
-0.00414351
-0.0128823
0.00193187
0.00332733
-0.000263812
0.0133663
-0.00145892
-0.0111971
0.00541306
-0.000156084
0
0
0
0
0
0
0
0
0
0
0
0
0
0
0
0
0
0
0
0
0
0
0
0
0
0
0
0
0
0
0
0
0
0
0
0
0
0
0
0
-0.0188412
0.0238915
-0.0302187
-0.0107508
-0.0155009
-0.00297423
-0.0111466
-0.00362236
0.00153601
-0.00330822
0.00438819
0.0271751
0.0234385
0.00985521
0.0335396
0.0296979
-0.00756354
0.0383056
-0.0198987
-0.017053
0.0203479
0.0129922
-0.00261062
0.00652081
0
0
9.36307e-06
7.2934e-07
0
0
0
0
0
0
0
0
0
0
0
0
0
0
0
0
0
0
0
0
0
0
0
0
0
0
0
0
0
0
0
0
0
0
0
0
0
0
0
0
0
0
0
0
0
0
0
0
0
0
0.0285913
-0.0098557
0.00147149
0.0202927
-0.00889599
-0.00617569
0.00719982
0
-0.065194
0.0338018
0
0
0
0
0
0
0.0138275
-0.00270693
-0.00889619
0
0
0
0
0
0
0
0
0
0
0
0
0
0
0
0
0
0
0
0
0
0
0
0
0
0
0
0
0
0
0
0
0
0
0
0
-0.0124768
0.0460336
0.0574279
-0.0476878
0.0418057
0.0770992
-0.0542341
0.0298355
-0.077363
-0.0515591
0.0637721
-0.0615868
-0.0312341
0.0691697
-0.0984296
-0.0365693
0.0724372
0.111914
-0.0321463
0.0724247
-0.107004
-0.0178069
0.0697147
-0.0672614
-0.00460149
0.0834577
-0.0902651
0.00805219
0.0821181
0.0651221
-0.0132724
0.0790662
-0.0879118
0.0553654
-0.012466
-0.0795767
0.0380202
-0.00290832
0.0540735
0.0140563
-0.00383763
-0.0217296
-0.0152052
0.0385728
0.0577583
0.0592205
0.0350714
0.0413878
0.0975675
0.0580211
-0.031866
0.092045
0.0792687
0.00555806
-0.0888493
0.0567235
-0.00768642
0.0951758
-0.0171769
0.0831872
0.112122
-0.0337338
0.0871448
0.125068
-0.0322437
0.0877216
0.11743
-0.0168707
0.0955363
-0.0978007
-0.0189929
0.0933946
-0.110348
0.0959547
-0.00847396
-0.110157
0.0762844
-0.0230874
0.116561
-0.0146986
-0.0235608
0.0220705
-0.00297084
-0.0350661
0.023891
0.0102724
-0.0415996
0.015732
-0.0300235
-0.00200012
0.0893593
0.0661942
-0.0572551
-0.0294155
0
-0.0196578
0.022912
0.0100612
0.00908721
0.0527112
-0.0468619
0.0103063
0.0579533
-0.0496434
0.0152357
0.0488043
0.0631409
0.0420707
0.0670201
0.0447931
0.0505245
0.0907081
-0.0348908
0.0404716
0.0892922
0.0344186
0.0337434
0.0627976
-0.0204569
0.0362037
0.0513782
0.00637133
0.0383771
0.0501028
-0.0191182
0.0218674
0.0670165
0.0282295
0.0394828
0.0368393
0.0494115
0.0456111
-0.00049674
-2.48943e-05
3.19374e-05
6.2178e-05
-6.19487e-05
-0.00688672
3.37264e-05
0
0.00039194
0
0
0
0
-0.000105271
0
0
0
0
0
0
0
0
0
0
0
0
0
0
0
3.73723e-05
3.11381e-05
0
-0.000460334
0
0.0126192
0
0.00662191
-0.0416703
-0.0389226
-0.0437866
0.00364202
0.0163199
-0.00188716
0.000905986
-0.0154611
-0.00735305
0.0115147
0.073502
0.0215412
0.0378489
-0.0388384
-0.0432981
0.0388587
0.0351235
0.064136
0.0503895
-0.053683
-0.0355594
0.0334096
-0.0300208
-0.0608202
-0.0148092
0.0555433
0.0855079
-0.0299965
0.0451743
0.0785892
-0.0308129
0.0220373
-0.0652966
-0.0493509
0.0364929
0.0782226
-0.0109657
-0.0622711
-0.0740001
-0.0556432
-0.0482907
-0.020173
-0.0701128
-0.0296208
-0.057625
-0.0711832
-0.060745
0.00854444
-0.0690388
-0.0615551
0.0367183
-0.0439614
-0.0437237
-0.0903723
-0.0873106
0.0136181
-0.0870155
-0.0675634
0.0425157
-0.0759182
-0.0343502
0.0612656
-0.0773205
-0.0128966
-0.0723521
-0.0685184
-0.00706167
0.0773133
-0.0679635
-0.0013669
-0.0767177
-0.0551086
0.00405869
0.0622999
-0.0194205
0.00805814
0.0442844
0.00884516
0.0377968
0.0391049
0.0213399
0.0515656
-0.0443831
0.0196477
0.0624238
-0.0437702
-0.0482466
0.059227
0
0
0
0
0
0
0
0
0
0
0
0
0
0
0
0
0
0
0
0
0
0
-0.00013293
0
0
0
0
0
0
1.33514e-06
0
0
0
0
0
0
0
0
-1.03788e-07
2.69871e-06
0
0
2.87085e-05
-2.08124e-05
-2.21096e-05
0
1.82431e-06
0
0
0
0
0
0
0
0
0
0
0
0
0
0
0
0
0
0.00359791
-0.00295923
-6.83631e-05
0
0
0
0
0
0
0
0
-0.00884615
0
-0.00221419
0
-0.0161011
0
0
0
0
5.71233e-06
0
-3.05149e-05
0
0
0
0
0
0
0
0
0
3.50878e-05
7.06167e-06
7.57992e-05
0
-1.55341e-05
0
-5.10237e-05
9.75673e-05
-9.39154e-05
0
3.02094e-05
0
0
0
0
9.68459e-06
0
-6.30695e-05
0
-1.43957e-05
-2.2549e-05
0
0
0
0
0
0
0
0
0
0
0
0
0
0
0
0
0
0
0
0
0
-5.43531e-06
0
7.24674e-06
0
0
0
-4.28902e-05
0
0
0
0
0
0
0
0
0.0231082
0.0284638
0.064501
0.0211873
0.0210523
0.0310704
0.0482159
0.0329537
0.0570859
0.018264
0.02765
-0.0510978
0.0651978
-0.0260377
0.0118612
0.00653461
-0.00600906
0.000666013
-0.00322896
0.0240099
0.0120494
0.00909206
-0.00190523
0.0122782
0.0103649
0.0161435
0.0046838
-0.00520813
-0.0286104
0.00127837
-0.0113184
0.0130322
0.0120143
-0.00644188
-0.00335682
-0.00835243
-0.0027578
0.0189344
-0.0126176
0.010095
0
0
0
0
0
0
0
0
0
0
0
3.2685e-06
-0.00497191
-0.0575337
9.99715e-06
0
0
0
0
0
0
0
-6.71852e-06
0
0
0
0
-3.94953e-07
0
7.73255e-07
0
3.77423e-07
0
0
0
0
0
0
0.0189506
0.00457677
0.0120055
-0.00230131
-0.00931778
0.0281108
0.046012
0.0124605
-0.00784308
0.0165231
0.00545028
0.016247
0.00455768
0.00838844
0.0131949
-0.0107677
-0.00544213
0.00852602
0.00167851
0.0117661
0.00491792
-0.0036038
0.012895
-0.011599
8.51414e-09
0
0
7.4747e-07
0
-7.88008e-06
0
0
0
0
1.36119e-05
0
-2.13586e-05
0
3.50107e-05
0
0
0
0
0
0
0
8.28794e-05
0
1.28404e-05
-5.73516e-05
3.00676e-05
4.16264e-05
0
0
0
0
0
0
0
0
0
0
0
0
0
0
0
0
-1.67068e-05
8.26428e-05
0
0
0
0
0
0
0
0
0
0
0
0
0
0
0
0
0
-2.08362e-05
0
2.61463e-05
0.0175266
0.0308814
-0.0124682
0.0091634
-0.0124013
-0.0185807
0
-0.0476263
-0.0158566
0
0
0
0
1.13135e-05
0
-1.0367e-05
0
5.92272e-06
1.44016e-05
0
0
0
0
0
0
0
0
0
0
2.66279e-05
-1.38494e-05
0
0
0
0
0
0
0
0
0
0
1.81415e-05
1.08768e-05
3.99826e-06
0
3.82885e-05
0
0
0
0
0
0
0
0
0
-7.89903e-06
0
2.7775e-05
-0.0283219
0.047326
-0.0588617
-0.036616
0.0369892
-0.0664039
-0.0307578
0.0115383
0.0994519
-0.0422853
-0.016135
0.0575834
-0.0237201
0.0419545
0.000305081
-0.0144984
0.0300202
-0.0204813
-0.00342811
0.024195
-0.0324375
0.0796468
0.10739
-0.0304639
0.0736388
0.103876
-0.00530405
0.0749438
0.0770949
0.00208996
0.0677147
0.0643649
0.0171053
0.0920519
-0.0776425
0.00201834
0.0878447
-0.079848
-0.0197084
0.0790649
0.0996159
0.0444945
-0.0418203
-0.0826158
0.0259016
-0.0202378
0.0662135
-0.00134747
-0.0302605
0.02502
-0.0263025
0.0368281
0.063927
0.0530876
-0.0311158
0.0905788
0.0459582
-0.038616
-0.0813542
0.0827849
-0.0318969
0.127478
0.0646464
-0.0480204
-0.117202
-0.0445774
0.0753907
-0.136705
-0.0328841
0.0825965
-0.122251
-0.0138719
0.0851812
0.0970369
-0.0234853
0.072111
0.0868561
-0.0217025
0.0860396
-0.0705861
0.0806831
0.00129211
0.100772
0.0987578
-0.00494371
-0.0724004
-0.00944514
0.0166036
-0.0307668
-0.0184405
-0.0409964
0.0261742
-0.00417599
-0.0292231
0.0103101
-0.0588299
0.00213022
-0.0640988
0.00194291
-0.0379971
0.0166589
0.00853023
0.0128302
-0.0892497
0.0087157
0.00914021
0.0313792
0.0289452
0.015528
0.0396574
-0.0274372
-0.0367739
0.0515043
0.0367307
0.029822
0.0606309
0.026179
0.0517326
0.0743343
-0.0357763
0.0564586
0.0789545
0.0215287
0.0429643
0.0711379
0.00778712
0.0403579
0.048748
0.0107126
0.0392134
0.048
0.00694107
0.0372008
0.047011
-0.00604755
0.0645584
0.0353367
-0.0281352
0.0306544
0.0288795
0.00192827
-5.04812e-05
0
0
0
0
0
0
0
0
0
0
0
0
0
0
0
0
0
0
0
0
0
0
0
-9.07924e-06
0
-4.55166e-05
0
-2.43711e-05
0
0
0
0
-0.0296759
0
0
-0.0318487
-0.0122569
-0.00876661
0.0105373
0.0310918
-0.0500587
-0.00343929
0.0271939
0.0147298
0.015127
-0.0498675
0.0300763
-0.00802059
-0.00513903
0.0558008
0.0361259
-0.0359121
0.0199945
0.0503899
0.0327329
-0.0639747
0.0249358
0.023385
0.0949143
0.116627
-0.0320423
0.0331612
-0.0929353
-0.0773435
0.0622573
-0.0504171
0.015788
0.0825959
-0.04444
0.0333447
-0.0905903
-0.00694928
-0.0682649
-0.0828723
-0.0635329
-0.070917
-0.0229252
-0.073154
-0.0392003
-0.0620869
-0.0915691
-0.078116
0.00444132
-0.105671
-0.081897
0.0159011
-0.104905
-0.0834732
0.0354955
-0.0937293
-0.0587201
0.0573143
-0.0979564
-0.0422364
0.0688418
-0.0957726
-0.0326835
0.0775928
-0.0774533
-0.0271606
0.0726607
-0.0569723
-0.00410174
-0.0624884
-0.0344648
0.00458719
0.0348346
-0.0115361
0.0103768
0.030087
0.00237152
0.0157053
0.0246209
0.0121921
0.0200152
-0.0291482
-0.0271079
0.0322585
0
0.00440294
0.00283447
0
0
-7.04897e-07
7.42362e-07
0
0
0
0
0
0
0
0
0
-8.70903e-05
5.24997e-05
-3.53829e-05
-0.000106165
-5.91599e-05
-0.000114828
-4.86393e-07
-1.86466e-05
0.000137794
0
5.38184e-05
-2.30145e-05
0
-0.0273515
-0.00458992
0
0
0
5.29535e-05
0
1.76287e-05
-4.3216e-07
-5.29452e-06
2.28529e-05
0
1.94749e-05
0
0
0
0
0
0
0
0
0
0
0
-1.15939e-06
3.77948e-07
0
0
0
0
0
0
0.0052266
0
0.00657726
0
0.00514601
0
0
0
0
0
0
0
0
0
0
0
0
0
0
0
0
0
0
0
0
-3.43861e-05
0
0
0
0
0
0
0
0
0
0
0
0
8.45432e-06
0
0
0
0
0
0
0
0
0
0
0
0
0
-7.56488e-05
0
0
0
0
0
0
0
0
0
0
0
0
0
0
0
0
0
0
0
0
0
0
0
0
0
0
0
0
0
0
0
0
0
0
0
0
0
0
0
0
0
0
0
0
0
0
0
0
0
-1.05333e-06
3.01097e-11
0
0
0
0
0
0
0.00693867
0.0372008
-0.00896326
0.0283461
0.0122278
0.0415753
-0.00159274
0.00214993
0.00201628
0.0131111
-0.0466533
0.035423
0.0498171
-0.0352142
0.00882986
0.0371772
0.02941
-0.0150677
-0.0317131
0.0248233
0.016747
-0.0185158
-0.00302813
0.0109371
0.000241115
-0.00966444
0.025336
0.016893
0.0178659
0.0145526
0.00199542
-0.00582324
0.0104208
-0.000684099
-0.00836648
0.0120575