/*--------------------------------*- C++ -*----------------------------------*\
  =========                 |
  \\      /  F ield         | OpenFOAM: The Open Source CFD Toolbox
   \\    /   O peration     | Website:  https://openfoam.org
    \\  /    A nd           | Version:  8
     \\/     M anipulation  |
\*---------------------------------------------------------------------------*/
FoamFile
{
    version     2.0;
    format      ascii;
    class       volScalarField;
    location    "12600";
    object      SH;
}
// * * * * * * * * * * * * * * * * * * * * * * * * * * * * * * * * * * * * * //

dimensions      [0 1 0 0 0 0 0];

internalField   nonuniform List<scalar> 
526318
(
69.7068
69.7017
69.7036
69.7055
69.7006
69.7051
69.7034
69.7035
69.7051
69.7032
69.7043
69.7001
69.7028
69.7061
69.7026
69.7035
69.7051
69.7
69.7029
69.7036
69.7026
69.7012
69.7038
69.702
69.7071
69.7013
69.7035
69.7038
69.7054
69.7048
69.7064
69.7044
69.703
69.7008
69.7058
69.7087
69.7021
69.7036
69.7018
69.6996
69.6962
69.7067
69.7066
69.7055
69.6996
69.7012
69.6965
69.708
69.7037
69.6968
69.7011
69.7079
69.6989
69.7053
69.721
69.6976
69.7087
69.702
69.7049
69.7036
69.7029
69.7008
69.7035
69.7022
69.7034
69.705
69.7039
69.7032
69.7036
69.7025
69.7026
69.702
69.7019
69.7034
69.7036
69.7078
69.7051
69.7041
69.7067
69.7039
69.7037
69.7025
69.7022
69.7039
69.703
69.7062
69.7023
69.7028
69.7045
69.7031
69.7006
69.7033
69.7018
69.7041
69.7054
69.7023
69.7027
69.702
69.7058
69.7025
69.934
69.994
69.906
69.87
69.809
70.027
69.7044
69.6998
69.7069
69.7013
69.7063
69.7038
69.7024
69.705
69.7023
69.7045
69.7071
69.6991
69.7018
69.7038
69.7022
69.7019
69.7048
69.7032
69.7031
69.7039
69.7035
69.7048
69.7039
69.7055
69.7044
69.704
69.7041
69.7035
69.7051
69.7033
69.7031
69.7043
69.704
69.7038
69.7042
69.7024
69.7048
69.7041
69.7034
69.7023
69.7036
69.7028
69.7045
69.7037
69.704
69.7037
69.7032
69.7025
69.7041
69.7041
69.7027
69.7033
69.7053
69.704
69.7028
69.704
69.7047
69.7042
69.705
69.7017
69.7064
69.7002
69.7054
69.7032
69.7005
69.7042
69.7
69.7047
69.7054
69.7019
69.7047
69.7037
69.7041
69.7018
69.7034
69.7035
69.7028
69.7032
69.7026
69.7056
69.7048
69.7042
69.7043
69.7016
69.7024
69.7027
69.7028
69.7036
69.7047
69.7036
69.7046
69.7005
69.7013
69.7018
69.7037
69.7038
69.7048
69.7051
69.7049
69.7045
69.7038
69.7022
69.7017
69.7033
69.6992
69.7028
69.7103
69.6956
69.7067
69.705
69.7019
69.7034
69.7071
69.7081
69.7057
69.703
69.7086
69.7033
69.7077
69.7039
69.7019
69.7016
69.7025
69.879
70.078
69.738
69.7017
70.282
70.443
70.145
70.045
70.078
70.078
69.7043
69.7037
69.7043
69.7016
69.7047
69.7035
69.7031
69.7033
69.7047
69.7024
69.702
69.7052
69.7055
69.7008
69.7037
69.7027
69.7049
69.704
69.7047
69.7042
69.7016
69.7043
70.56
70.636
70.175
70.396
69.896
69.953
69.896
69.745
69.6966
69.7047
69.7104
69.704
69.7014
69.7051
69.701
69.7027
69.7069
69.6981
69.701
69.7028
69.7026
69.704
69.7028
69.7043
69.7047
69.7046
69.7027
69.7025
69.7045
69.7059
69.7046
69.7028
69.7041
69.705
69.7019
69.7088
69.7026
69.7028
69.7025
69.7022
69.7053
69.7061
69.7012
69.7029
69.7056
69.7048
69.7045
69.7045
69.7039
69.7035
69.7025
69.727
69.727
69.722
69.735
69.7043
69.7043
69.7011
69.7074
69.7045
69.7018
69.7049
69.7027
69.7069
69.7036
69.7033
69.7026
69.7026
69.7066
69.7015
69.7045
69.7037
69.7036
69.7032
69.7001
69.704
69.7017
69.7033
69.7051
69.7038
69.7059
69.7026
69.7041
69.7008
69.7033
69.7027
69.7026
69.7057
69.7046
69.7007
69.7034
69.7059
69.7042
69.7061
69.7064
69.7021
69.7033
69.7034
69.7022
69.7016
69.7025
69.708
69.7021
69.7035
69.7058
69.7043
69.706
69.7032
69.7031
69.7056
69.7037
69.707
69.7014
69.706
69.7071
69.7092
69.6996
69.7051
69.7012
69.703
69.7064
69.7014
69.7055
69.7076
69.7034
69.7002
69.7025
69.7028
69.7013
69.7039
69.7058
69.6985
69.7031
69.7019
69.7047
69.6978
69.7032
69.7013
70.112
69.971
69.817
69.975
69.734
69.848
70.713
70.56
70.622
70.699
70.789
70.552
70.324
70.087
70.2
70.175
69.7048
69.7028
69.7054
69.7012
69.7052
69.702
69.7064
69.7025
69.7054
69.7041
69.7058
69.7044
69.7029
69.7033
69.705
69.7022
69.7059
69.7054
69.7045
69.7047
69.7029
69.7014
71.727
71.7771
71.7771
71.989
71.887
71.829
71.777
71.7771
71.7771
71.7771
70.718
71.092
70.954
71.071
70.757
70.895
70.661
70.56
70.552
70.388
69.929
70.142
69.83
69.855
69.7052
69.813
69.7076
69.7013
69.7022
69.7072
69.7042
69.7005
69.6996
69.7026
69.7024
69.7039
69.706
69.7018
69.7048
69.702
69.7037
69.7061
69.7036
69.7038
69.7014
69.703
69.7029
69.7031
69.7044
69.7031
69.708
69.7045
69.7044
69.7047
69.706
69.707
69.7064
69.7049
69.725
69.735
69.712
69.7035
69.7032
69.743
69.738
69.743
69.737
69.754
69.756
69.7068
69.6969
69.7055
69.708
69.705
69.7038
69.7097
69.7029
69.716
69.7036
69.7037
69.707
69.6974
69.7047
69.7013
69.701
69.7046
69.7048
69.7035
69.6995
69.7006
69.7036
69.7025
69.706
69.7044
69.7045
69.704
69.7035
69.7019
69.7044
69.7052
69.7018
69.7031
69.696
69.715
69.7042
69.7044
69.705
69.7031
69.7035
69.7029
69.7023
69.7049
69.7029
69.7047
69.7062
69.7053
69.7033
69.7019
69.7016
69.7037
69.7008
69.7058
69.7053
69.7043
69.7056
69.7071
69.7069
69.706
69.7064
69.7077
69.7074
69.7036
69.7047
69.7044
69.7013
69.7044
69.7026
69.6966
69.6958
69.7045
69.7025
69.7053
69.7059
69.7024
69.7033
69.7045
69.6999
69.7032
69.7095
69.7064
69.7006
69.7033
69.7042
69.7067
69.7064
69.747
69.7022
69.7013
69.7027
69.7009
69.7072
69.7064
69.7025
69.7037
69.7014
70.289
70.204
69.929
70.128
69.815
69.747
70.775
70.875
70.789
70.789
70.65
70.878
70.264
70.501
70.343
70.343
71.286
71.194
71.265
71.378
71.067
71.281
71.8
71.862
71.839
71.822
71.8452
71.766
71.7661
71.845
71.8452
71.8452
71.962
72.002
71.636
71.89
71.813
71.619
71.722
71.816
72.099
72.016
71.998
71.95
72.108
72.108
69.7023
69.7051
69.7059
69.7021
69.7055
69.7008
69.7037
69.7043
69.7046
69.7019
69.7045
69.7033
69.7015
69.7058
69.7034
69.7032
69.7063
69.7041
69.7011
69.7046
69.7005
69.704
71.657
71.713
71.576
71.663
71.651
71.575
71.753
71.677
71.638
71.548
71.479
71.558
71.427
71.713
71.549
71.549
71.286
71.154
71.246
71.43
71.153
71.153
71.104
71.007
70.777
70.629
70.463
70.488
70.423
70.242
69.789
69.987
69.772
69.772
69.7021
69.6999
69.705
69.7057
69.7016
69.7034
69.7012
69.7033
69.7008
69.7036
69.7069
69.7017
69.7018
69.7062
71.6432
71.6
71.734
71.855
71.52
71.534
71.549
71.549
71.812
71.681
71.68
71.812
71.479
71.87
71.734
71.609
71.876
69.7038
69.7045
69.7028
69.7032
69.7055
69.7037
69.7019
69.7017
69.7035
69.7046
69.743
69.745
69.714
69.718
69.757
69.723
69.727
69.7056
69.7055
69.7061
69.775
69.804
69.804
69.761
69.753
69.753
69.777
69.773
69.812
69.823
69.86
69.854
69.7056
69.7004
69.6999
69.7055
69.7054
69.7017
69.7042
69.703
69.7048
69.7045
69.7061
69.6987
69.7033
69.7094
69.7053
69.7003
69.705
69.7052
69.705
69.705
69.7041
69.715
69.7034
69.7028
69.7023
69.7057
69.7022
69.7048
69.7052
69.7007
69.702
69.7018
69.704
69.7028
69.7075
69.7033
69.7162
69.7002
69.749
69.73
69.749
69.7034
69.7047
69.7053
69.7016
69.7035
69.7063
69.7035
69.7035
69.7021
69.7027
69.7045
69.7029
69.7044
69.7068
69.7032
69.7026
69.7062
69.7053
69.703
69.7035
69.7059
69.7016
69.705
69.7042
69.7013
69.7035
69.6983
69.7016
69.6976
69.7
69.7022
69.7041
69.7076
69.7062
69.7089
69.7045
69.71
69.7037
69.712
69.7048
69.7026
69.7026
69.7015
69.704
69.7043
69.7043
69.7044
69.7023
69.7032
69.7042
69.7044
69.7041
69.7037
69.7033
69.7046
69.7019
69.7035
69.7049
69.7019
69.7013
69.7029
69.7028
69.702
69.7006
69.7023
69.7003
69.7042
69.7015
69.7031
69.7037
69.7021
69.7062
69.7048
69.7047
69.7058
69.7059
69.704
69.7037
69.7051
69.7062
69.7035
69.7043
69.7034
69.706
69.7052
69.7013
69.6979
69.7024
69.7061
69.827
69.801
69.7036
69.711
69.838
69.755
69.768
69.7051
69.7029
69.7023
69.783
69.786
69.774
69.757
70.227
70.358
69.955
70.168
69.958
70.008
71.005
70.827
70.915
70.966
70.818
71.0557
70.627
70.39
70.49
70.458
71.429
71.521
71.664
71.807
71.4293
71.394
71.292
71.468
71.858
71.858
72.074
72.103
71.876
71.866
71.914
71.903
71.876
71.876
71.55
71.831
71.596
71.736
71.69
71.831
71.588
71.864
71.864
71.87
71.858
71.763
71.8581
71.858
71.763
71.858
71.858
71.858
71.856
71.858
71.838
71.84
71.749
71.826
71.965
71.889
72.079
72.02
72.18
72.196
71.894
71.977
72.061
72.108
72.122
72.108
72.171
72.171
69.705
69.7032
69.7041
69.705
69.7021
69.7019
69.6991
69.7064
69.7021
69.7075
69.7047
69.704
69.7041
69.7007
69.7067
69.7019
69.7046
69.7039
69.7005
69.7043
69.703
69.7035
71.476
71.462
71.4341
71.4341
71.486
71.537
71.497
71.472
71.4341
71.407
71.417
71.549
71.383
71.446
71.205
71.073
71.017
70.986
70.931
70.787
70.399
70.574
70.3674
70.3674
70.125
70.323
69.926
69.772
69.7079
69.772
69.7015
69.7009
69.7047
69.7033
69.7015
69.7022
69.7028
69.7035
69.7007
69.7058
69.7043
69.7022
69.7034
69.7026
71.4761
71.476
71.462
71.478
71.477
71.4812
71.477
71.48
71.4812
71.448
71.462
71.437
71.437
71.715
71.623
71.482
71.482
71.574
71.626
71.735
71.951
72.109
71.471
71.438
71.438
71.437
69.7045
69.7055
69.7033
69.7029
69.707
69.7036
69.747
69.747
69.749
69.7473
69.775
69.773
69.8
69.8
69.823
69.784
69.705
69.744
69.7053
69.7052
69.885
69.864
69.823
69.844
69.834
69.831
69.884
69.891
69.906
69.893
69.8852
69.887
69.7034
69.7061
69.699
69.7023
69.7067
69.7034
69.7044
69.7053
69.7038
69.7061
69.7057
69.7039
69.7044
69.7044
69.7043
69.7069
69.7042
69.7035
69.7024
69.7032
69.7017
69.7022
69.7012
69.7016
69.7047
69.7034
69.7047
69.7058
69.7012
69.7013
69.7016
69.706
69.7018
69.705
69.6968
69.704
69.7065
69.7029
69.716
69.7054
69.827
69.7031
69.774
69.7057
69.7038
69.7048
69.7052
69.703
69.7019
69.704
69.782
69.796
69.782
69.745
69.817
69.832
69.905
69.816
69.736
69.743
69.823
69.722
69.706
69.707
69.7037
69.7036
69.7037
69.7052
69.7067
69.7052
69.7031
69.7024
69.7074
69.7038
69.6979
69.7024
69.7041
69.7046
69.7052
69.7015
69.7051
69.7027
69.7047
69.7065
69.702
69.7036
69.7052
69.708
69.7043
69.7085
69.7107
69.7055
69.7035
69.7047
69.7053
69.7033
69.7063
69.7013
69.7003
69.7076
69.6997
69.7048
69.7039
69.7035
69.7035
69.7053
69.7054
69.7009
69.7017
69.7006
69.6993
69.7015
69.6999
69.7037
69.7033
69.7063
69.7064
69.7061
69.7054
69.7059
69.7054
69.7045
69.7055
69.7048
69.7058
69.7044
69.7047
69.7055
69.7044
69.7027
69.7039
69.7045
69.7032
69.735
69.744
69.7053
69.7034
69.706
69.7051
69.7046
69.7031
69.7019
69.7042
69.801
69.836
69.836
69.7373
69.743
70.079
69.971
69.786
69.894
69.7863
69.7863
69.777
69.786
69.77
69.753
70.561
70.403
70.31
70.128
70.1094
70.1094
71.021
71.219
71.072
71.0557
70.873
71.063
70.772
70.918
70.65
70.829
71.572
71.4293
71.736
71.879
71.519
71.593
71.684
71.486
71.922
71.938
72.1491
72.179
72.006
71.958
72.129
72.154
71.975
72.063
71.873
71.872
72.005
72.101
71.989
71.975
71.99
72.107
71.99
72.122
71.984
72.066
72.11
72.16
72.213
72.196
72.196
72.194
72.133
72.093
72.275
72.267
72.231
72.267
72.363
72.363
69.7032
69.7047
69.7045
69.7041
69.7037
69.6993
69.7051
69.7031
69.7048
69.7033
69.7034
69.7029
69.7016
69.7042
69.7018
69.7057
69.7026
69.704
69.7046
69.7027
69.7036
69.7041
71.4341
71.448
71.4341
71.434
71.28
71.317
71.354
71.289
71.345
71.398
71.234
71.343
71.24
71.24
71.015
70.9
70.893
70.893
70.862
70.687
70.512
70.367
70.303
70.347
70.14
69.961
69.808
69.773
69.7045
69.746
69.7007
69.7022
69.7023
69.7055
69.7023
69.7053
69.7043
69.7038
69.7062
69.702
69.7037
69.7026
69.7036
69.7023
71.257
71.336
71.383
71.316
71.411
71.298
71.366
71.43
71.445
71.227
71.305
71.386
71.407
71.403
71.373
72.08
72.16
71.901
72.216
71.437
71.436
71.437
71.4379
71.396
71.347
71.416
71.631
71.299
71.336
71.337
71.303
69.7028
69.7042
69.7039
69.704
69.747
69.726
69.76
69.76
69.7013
69.7035
69.705
69.832
69.822
69.891
69.889
69.8233
69.8233
69.831
69.791
69.731
69.778
69.742
69.758
69.864
69.885
69.871
69.85
69.923
69.924
69.923
69.912
69.896
69.909
69.945
69.936
69.704
69.7068
69.7022
69.7044
69.7022
69.7008
69.699
69.7017
69.7032
69.701
69.7027
69.706
69.7069
69.7073
69.7017
69.703
69.7016
69.7017
69.7029
69.7023
69.7041
69.7038
69.7021
69.7068
69.7035
69.7056
69.7031
69.7042
69.7034
69.7033
69.706
69.7073
69.7035
69.7038
69.7039
69.7031
69.7046
69.6997
69.7091
69.7048
69.7093
69.7044
69.7021
69.7023
69.7057
69.7018
69.7038
69.7035
69.7045
69.7039
69.7059
69.7041
69.7047
69.7016
69.701
69.7007
69.7007
69.6994
69.7008
69.7016
69.7029
69.6999
69.7
69.7034
69.7056
69.6998
69.7037
69.7046
69.7021
69.7036
69.7039
69.7033
69.7036
69.759
69.7058
69.7043
69.7039
69.7017
69.7044
69.7054
69.7021
69.7035
69.7013
69.7009
69.7008
69.7019
69.7037
69.7051
69.7051
69.707
69.7079
69.7107
69.783
69.836
69.8365
69.7031
69.7031
69.7021
69.6945
69.7086
69.7963
69.795
69.7963
69.7963
69.942
69.869
70.015
69.993
69.912
69.993
69.729
69.799
69.902
69.707
69.7061
69.706
69.7025
69.7048
69.7031
69.7047
69.7065
69.7019
69.7024
69.7046
69.6978
69.7064
69.7112
69.7051
69.7056
69.7015
69.7035
69.7029
69.7043
69.7065
69.7043
69.7052
69.7058
69.704
69.703
69.7038
69.7015
69.7041
69.7054
69.7004
69.703
69.7021
69.6952
69.7045
69.7017
69.7013
69.7016
69.7048
69.7039
69.7048
69.705
69.7049
69.7069
69.7018
69.7037
69.7008
69.7009
69.7028
69.7042
69.7001
69.7034
69.7046
69.7056
69.7068
69.704
69.7054
69.7043
69.7034
69.7045
69.7038
69.7053
69.705
69.7045
69.751
69.76
69.7363
69.814
69.795
69.776
69.84
69.697
69.795
69.86
69.84
69.86
69.962
69.86
69.8365
70.056
70.066
70.109
70.001
69.7863
69.894
69.889
69.889
70.098
70.209
70.407
70.392
70.472
70.6531
70.6531
70.1094
70.29
70.127
70.127
71.202
71.417
71.237
71.115
71.191
71.198
71.267
71.049
70.6531
70.87
71.753
71.679
72.015
71.988
71.77
71.7
71.615
71.7014
72.15
72.087
72.361
72.295
72.187
72.205
72.23
72.247
72.231
72.229
72.121
72.136
72.254
72.252
72.239
72.239
72.254
72.254
72.367
72.223
72.391
72.329
72.472
72.36
72.568
72.544
72.358
72.522
72.104
72.456
72.257
72.238
72.221
72.397
72.321
72.362
72.276
72.3961
72.386
72.443
72.409
72.409
72.3961
69.6982
69.7076
69.711
69.707
69.7091
69.7077
69.7032
69.7033
69.7039
69.7022
69.7023
69.7038
69.7026
69.7043
69.7003
69.7061
69.7033
69.7051
69.7064
69.7053
69.7029
69.7044
69.7036
69.7029
69.7041
71.212
71.323
71.213
71.288
71.213
71.224
71.253
71.154
71.172
71.24
71.124
71.123
71.151
69.81
69.776
69.747
70.856
70.972
70.808
70.801
70.517
70.638
70.341
70.316
70.153
70.285
69.976
69.703
69.709
69.7056
69.7043
69.7048
69.7041
69.7026
69.7027
69.7065
69.7046
69.7032
69.7019
69.7079
69.707
69.7026
69.7021
71.101
71.0992
71.131
71.19
71.13
71.154
71.168
71.086
71.095
71.235
71.139
71.06
71.035
71.104
71.22
71.098
71.151
72.069
72.19
72.069
72.343
71.788
71.654
71.944
71.99
71.388
71.349
71.185
71.236
71.217
71.218
71.364
71.467
71.077
71.187
71.033
71.033
69.7043
69.7055
69.7042
69.7062
69.7043
69.711
69.7036
69.822
69.794
69.883
69.883
69.7034
69.7048
69.929
69.931
69.928
69.925
69.872
69.892
69.854
69.908
69.784
69.833
69.784
69.774
69.943
69.988
69.964
69.933
69.957
69.956
70.015
69.978
69.997
70.017
70.039
70.039
69.7052
69.7056
69.7076
69.7049
69.7056
69.7066
69.6969
69.6911
69.7038
69.7032
69.7037
69.7031
69.7059
69.7047
69.7107
69.7044
69.7061
69.7027
69.7061
69.709
69.7071
69.7059
69.7005
69.7036
69.7027
69.7044
69.7056
69.7038
69.7026
69.7084
69.7018
69.7024
69.7027
69.7041
69.7011
69.7022
69.702
69.7009
69.7001
69.7024
69.701
69.704
69.7014
69.7045
69.7024
69.7025
69.7036
69.701
69.7054
69.7002
69.7025
69.7027
69.7014
69.7038
69.706
69.7049
69.7068
69.7016
69.7136
69.702
69.6975
69.7033
69.7022
69.731
69.7041
69.7062
69.7062
69.7054
69.7039
69.7055
69.7047
69.7016
69.7025
69.7002
69.7021
69.7015
69.7007
69.7003
69.704
69.704
69.7062
69.7074
69.7007
69.7043
69.704
69.7017
69.7026
69.7048
69.703
69.707
69.8365
69.8365
69.8365
69.863
69.767
69.752
69.95
69.91
69.875
69.99
69.952
69.946
70.019
70.015
70.015
70.015
69.984
69.953
69.85
69.922
69.9229
69.778
69.7041
69.787
69.7061
69.7035
69.7056
69.7021
69.698
69.7029
69.706
69.701
69.7088
69.701
69.7064
69.7021
69.7045
69.7023
69.7038
69.7067
69.7018
69.7024
69.7059
69.7047
69.7034
69.7053
69.703
69.7049
69.7031
69.7063
69.7054
69.6995
69.7042
69.704
69.7059
69.7031
69.7042
69.7048
69.7046
69.7041
69.7063
69.7065
69.7043
69.7048
69.7024
69.7038
69.7042
69.7036
69.7045
69.7043
69.7048
69.7064
69.7047
69.7063
69.7034
69.7033
69.703
69.7033
69.7039
69.705
69.703
69.7038
70.382
70.066
70.376
70.101
69.821
69.84
69.84
69.859
69.84
69.987
70.087
70.091
70.196
69.99
70.12
70.095
69.966
70.708
70.708
70.33
70.204
70.209
70.416
70.529
70.529
70.745
70.734
70.723
70.6531
70.6531
70.747
70.566
70.666
70.408
70.611
70.689
71.518
71.681
71.471
71.273
71.305
71.305
71.3062
71.088
70.988
70.77
71.915
72.06
72.136
72.136
71.845
71.7012
71.769
71.835
72.214
72.136
72.4983
72.477
72.248
72.248
72.351
72.344
72.274
72.272
72.254
72.254
72.341
72.32
72.254
72.254
72.466
72.353
72.799
72.746
72.6646
72.664
72.6646
72.68
72.808
72.952
72.316
72.163
72.497
72.497
72.551
72.596
72.641
72.282
72.475
72.408
72.529
72.439
72.451
72.515
72.4983
72.421
72.335
72.476
72.442
72.477
72.443
72.502
72.489
69.6927
69.7093
69.7165
69.7078
69.7094
69.7054
69.6986
69.7076
69.7016
69.7023
69.7042
69.7035
69.7031
69.7042
69.7071
69.7024
69.7043
69.7057
69.7037
69.7026
69.7019
69.7045
69.7041
69.7064
69.7043
69.7028
69.7024
71.102
71.102
71.079
71.102
71.034
71.054
71.035
69.776
69.7005
69.776
70.974
71.037
70.948
70.972
69.909
70.075
70.738
70.795
70.712
70.605
70.31
70.454
70.274
70.274
70.241
69.7009
69.7044
69.7042
69.7013
69.7027
69.7032
69.7043
69.6996
69.7053
69.7061
69.7031
69.7053
69.7015
69.7008
69.7032
69.7009
71.09
71.089
71.0992
71.097
71.098
71.097
71.094
71.0692
71.081
71.06
71.06
70.981
71.008
70.999
71.025
70.98
70.98
70.98
70.98
71.97
71.89
72.069
71.991
71.963
72.05
71.885
72.311
72.146
72.341
71.677
71.6001
71.524
71.734
71.061
71.083
70.958
70.98
70.926
70.921
71.036
71.27
70.852
70.847
70.98
70.98
69.704
69.7034
69.7035
69.743
69.721
69.762
69.762
69.834
69.844
69.9305
69.919
69.931
69.9305
69.829
69.834
69.983
69.984
70.018
70.041
69.942
69.948
69.924
69.869
69.789
69.825
69.758
69.806
70.003
70.0332
69.972
69.948
70.074
70.075
70.1
70.08
70.039
70.059
70.039
70.0332
69.7044
69.7083
69.6915
69.7062
69.7059
69.6895
69.7195
69.7045
69.7152
69.6924
69.7097
69.6948
69.693
69.6948
69.7068
69.7053
69.7069
69.7046
69.7055
69.7034
69.7049
69.7023
69.7064
69.7019
69.7084
69.706
69.7077
69.7094
69.7065
69.707
69.7057
69.7048
69.7045
69.7037
69.7016
69.7075
69.704
69.7008
69.7037
69.7061
69.7004
69.7003
69.7021
69.7026
69.703
69.7025
69.7033
69.7044
69.7088
69.7047
69.7063
69.7098
69.7077
69.7037
69.7045
69.7005
69.7005
69.7017
69.7053
69.7049
69.6992
69.7083
69.7034
69.7097
69.6993
69.7039
69.7041
69.7007
69.7022
69.7055
69.7054
69.7046
69.7063
69.7059
69.7032
69.7039
69.7043
69.7005
69.7053
69.7017
69.6998
69.7005
69.7026
69.7045
69.707
69.7052
69.7045
69.7057
69.7034
69.7048
69.7058
69.703
69.7007
69.7022
69.7027
70.097
69.938
70.069
69.964
70.039
70.066
70.105
70.141
70.115
70.077
70.183
70.132
70.128
70.24
70.181
70.037
69.9229
70.006
69.914
69.914
69.922
69.851
69.705
69.8
69.6996
69.7068
69.7059
69.7052
69.7041
69.7056
69.6983
69.7109
69.7137
69.7073
69.704
69.6997
69.7051
69.7066
69.7026
69.7059
69.699
69.7042
69.7026
69.7046
69.7064
69.7059
69.706
69.702
69.7047
69.7055
69.7046
69.7056
69.7049
69.7057
69.7074
69.7032
69.7025
69.7063
69.7056
69.7059
69.7045
69.7034
69.7053
69.7041
69.7059
69.7049
69.707
69.705
69.7045
69.7062
69.7062
69.7041
69.7041
69.7024
69.7039
69.7041
69.7057
69.7026
69.7037
70.723
70.734
70.7182
70.745
70.433
70.128
70.441
69.968
70.097
70.089
70.249
70.2253
70.2253
70.2253
70.2253
70.2253
70.2253
70.226
70.2253
70.7176
70.723
70.851
70.782
70.745
70.791
70.745
70.745
70.775
70.764
70.964
70.987
71.181
71.064
70.952
71.069
70.952
70.929
71.704
71.904
71.441
71.642
71.441
71.3059
71.423
71.347
71.565
71.346
71.204
72.024
72.17
72.233
72.2
71.86
71.97
71.907
71.929
72.263
72.321
72.513
72.513
72.451
72.379
72.558
72.551
72.494
72.455
72.353
72.419
72.548
72.534
72.56
72.559
72.841
72.915
73.097
73.081
72.685
72.663
72.813
72.92
73.048
73.065
72.534
72.557
72.623
72.668
72.561
72.749
72.381
72.535
72.546
72.765
72.6
72.642
72.819
72.449
72.332
72.438
72.418
72.444
72.718
72.547
72.424
72.366
72.576
72.538
72.562
72.592
72.584
72.543
72.473
72.568
72.5741
72.599
72.588
72.637
72.594
69.7039
69.7129
69.7048
69.7095
69.7048
69.7047
69.6994
69.7022
69.6986
69.6991
69.7037
69.6963
69.7089
69.7127
69.6897
69.7051
69.7043
69.7061
69.7072
69.7019
69.7019
69.7036
69.7035
69.7043
69.7016
69.7018
69.7031
69.7044
69.7025
71.102
71.09
71.071
71.028
69.802
69.7038
69.777
70.97
70.982
69.8231
69.93
70.858
70.769
70.863
70.95
70.234
70.089
70.704
70.704
70.561
70.704
70.27
70.413
70.263
69.7062
69.7051
69.7016
69.7032
69.7075
69.7023
69.7025
69.7017
69.7037
69.7033
69.701
69.7037
69.7021
69.7038
69.7001
69.7039
70.983
70.9841
70.878
70.868
70.973
70.972
70.847
70.956
70.844
70.816
70.932
70.791
70.884
70.859
70.867
70.706
70.704
70.76
70.872
70.868
70.76
71.657
71.644
71.801
71.822
71.716
71.625
71.834
71.848
71.995
72.195
72.294
72.103
72.396
72.15
71.444
71.6001
71.189
71.6001
70.905
70.852
70.967
70.914
70.821
70.821
70.871
70.974
70.853
70.808
70.813
70.714
72.374
72.62
72.739
72.831
72.816
72.877
69.7039
69.7043
69.715
69.785
69.793
69.875
69.889
69.899
69.899
69.909
69.899
69.969
69.958
70.035
70.049
69.899
69.894
70.107
70.114
70.11
70.102
69.828
69.763
69.845
69.949
69.967
69.891
69.96
69.876
70.036
70.066
70.007
70.051
70.1008
70.1008
70.107
70.086
70.089
70.116
70.124
70.141
69.7236
69.7056
69.7126
69.7158
69.6937
69.7126
69.6609
69.6721
69.705
69.7295
69.7082
69.7091
69.6937
69.7063
69.7073
69.7035
69.7069
69.7049
69.7043
69.7015
69.7028
69.7051
69.7045
69.7077
69.7042
69.7041
69.7052
69.7093
69.7032
69.7031
69.7017
69.699
69.7048
69.7052
69.6994
69.7074
69.7024
69.706
69.7086
69.7002
69.7038
69.7051
69.7041
69.7022
69.705
69.7065
69.7042
69.7041
69.7049
69.7077
69.6985
69.7089
69.7038
69.7021
69.6997
69.7067
69.7032
69.7043
69.7109
69.7052
69.7038
69.707
69.7007
69.7061
69.6998
69.7027
69.7046
69.7032
69.7031
69.849
69.805
69.723
69.7046
69.703
69.7054
69.7019
69.7029
69.7051
69.7013
69.7008
69.7042
69.7026
69.7014
69.7045
69.7042
69.7024
69.7047
69.7039
69.7019
69.7039
69.7028
69.7029
69.7112
69.706
69.7019
69.7051
69.7042
69.7066
70.318
70.25
70.37
70.141
70.221
70.1412
70.1412
70.151
70.221
70.292
70.353
70.354
70.3271
70.267
70.101
70.196
70.218
70.017
69.863
69.904
70.05
69.812
69.769
69.751
69.769
69.7037
69.7057
69.717
69.7016
69.7062
69.7046
69.7095
69.6977
69.6928
69.7092
69.7009
69.705
69.7056
69.7029
69.7062
69.7043
69.7054
69.7027
69.7021
69.7029
69.704
69.7034
69.7022
69.7045
69.7052
69.7054
69.7029
69.7042
69.7028
69.7042
69.7031
69.704
69.7044
69.7037
69.703
69.7053
69.7034
69.7079
69.7047
69.7057
69.7075
69.7045
69.7059
69.7058
69.704
69.7052
69.7029
69.7052
69.7039
69.7037
69.7058
69.7025
69.7055
70.785
70.808
70.757
70.779
70.778
70.754
70.779
70.59
70.782
70.2253
70.218
70.696
70.483
70.2253
70.2253
70.2253
70.2253
70.2253
70.2253
70.297
70.389
70.906
70.875
70.919
70.85
70.84
70.781
70.902
70.897
71.008
71.019
71.303
71.303
71.186
71.303
70.952
71.069
71.017
71.027
71.9098
71.843
71.858
71.657
71.565
71.663
71.706
71.706
71.588
71.73
71.445
71.303
72.179
72.297
72.327
72.327
72.115
71.975
71.953
71.9094
72.401
72.49
72.659
72.663
72.578
72.5692
72.5692
72.5692
72.588
72.598
72.796
72.705
72.669
72.791
73.024
72.979
73.099
73.099
73.093
73.11
72.766
72.933
73.04
73.048
73.126
73.098
72.843
72.811
72.949
72.892
73.143
73.018
73.204
73.002
72.684
72.853
72.599
72.692
72.986
73.057
72.868
72.917
72.734
72.73
72.852
72.653
72.7
72.761
72.728
72.5794
72.594
72.5941
72.6
72.6861
72.723
72.662
72.619
69.7102
69.7073
69.7066
69.7075
69.7051
69.7072
69.7053
69.7285
69.7029
69.6918
69.7159
69.7035
69.6905
69.7059
69.6988
69.6938
69.7015
69.7112
69.7042
69.7017
69.7066
69.7065
69.7025
69.7076
69.7029
69.7016
69.7047
69.7025
69.7049
69.7054
69.7006
69.7024
69.7051
70.89
70.965
69.7038
69.7031
69.803
70.842
70.902
69.848
69.853
70.81
70.871
70.112
69.978
70.74
70.67
70.729
70.773
70.252
70.246
70.656
70.622
70.577
70.478
70.324
69.7062
69.7043
69.7051
69.7061
69.707
69.702
69.702
69.7019
69.7031
69.7035
69.7043
69.7019
69.7022
70.784
70.784
70.784
70.772
70.751
70.73
70.7222
70.7222
70.719
70.693
70.677
70.649
70.652
70.636
70.597
70.56
70.606
70.5218
70.558
70.607
70.565
70.56
70.56
71.503
71.515
71.6001
71.463
71.553
71.3911
71.391
71.903
71.727
71.959
72.001
72.001
72.227
72.1
71.287
71.072
71.131
71.444
70.732
70.693
70.628
70.6
70.538
70.653
70.815
70.931
70.44
70.557
70.52
70.487
72.381
72.354
72.5
72.753
72.95
73.137
73.19
73.376
73.299
73.453
69.715
69.798
69.798
69.858
69.858
69.883
69.867
69.897
69.858
69.931
69.931
70.022
70.004
70.098
70.096
70.124
70.126
69.975
70.004
70.117
70.126
70.123
70.132
69.904
69.86
70.019
70.047
69.977
69.86
69.8
69.844
70.115
70.157
70.092
70.0683
70.168
70.185
70.193
70.225
70.193
70.218
70.195
70.177
69.658
69.71
69.6692
69.7081
69.7449
69.7015
69.7092
69.6877
69.6931
69.702
69.71
69.7064
69.6998
69.7151
69.7054
69.7067
69.7057
69.702
69.7019
69.6999
69.7193
69.7018
69.7016
69.6978
69.7003
69.7062
69.7025
69.7027
69.7084
69.7009
69.7057
69.6992
69.7027
69.7045
69.703
69.7031
69.7068
69.7075
69.7068
69.7043
69.7029
69.7048
69.7061
69.7065
69.7015
69.7043
69.7033
69.7035
69.7164
69.7058
69.7178
69.695
69.7
69.7054
69.7032
69.7062
69.7007
69.6997
69.7078
69.7087
69.6992
69.7074
69.7058
69.7021
69.7046
69.7031
69.7037
69.7039
69.7032
69.6983
69.7047
69.7086
69.7023
69.7031
69.7013
69.7003
69.7013
69.7031
69.7026
69.7035
69.7039
69.7014
69.7039
69.7041
69.7049
69.701
69.7032
69.7025
69.7048
69.703
69.7055
69.7106
69.7085
69.7022
69.705
69.7111
69.7041
70.501
70.461
70.481
70.394
70.274
70.194
70.295
70.277
70.365
70.354
70.353
70.327
70.229
70.278
70.206
70.2051
70.2051
70.143
70.074
69.9
69.976
69.816
69.73
69.738
69.824
69.7019
69.7052
69.7058
69.7076
69.7057
69.6981
69.7033
69.7075
69.7192
69.7105
69.7077
69.7029
69.7051
69.706
69.7012
69.7029
69.7055
69.7027
69.7045
69.7044
69.7025
69.7018
69.705
69.7024
69.7034
69.704
69.7019
69.7054
69.7028
69.703
69.7002
69.7012
69.7031
69.7025
69.705
69.7046
69.7081
69.7085
69.7058
69.705
69.7045
69.7039
69.7044
69.7033
69.7049
69.7021
69.7053
69.7071
69.7023
69.7028
69.7065
69.7041
69.7003
71.03
71.028
70.931
70.993
70.892
70.958
70.846
70.847
70.886
70.9691
70.928
70.756
70.491
71.022
71.022
70.398
70.664
70.2253
70.398
70.297
70.2253
70.389
70.481
71.088
71.0772
70.99
71.099
71.053
71.024
71.11
71.1105
71.099
71.11
71.341
71.341
71.395
71.24
71.132
71.228
71.213
71.237
71.992
72.008
72.093
71.949
71.874
71.73
71.73
71.73
71.766
71.624
71.417
71.557
72.3272
72.233
72.401
72.3272
72.083
72.223
72.122
72.078
72.5794
72.49
72.7231
72.732
72.587
72.597
72.671
72.738
72.892
72.83
73.094
72.997
73.153
73.136
73.194
73.233
73.205
73.288
73.236
73.297
72.985
73.015
73.131
73.207
73.317
73.316
72.959
72.963
72.91
72.959
73.724
73.578
73.53
73.599
73.253
73.392
73.115
73.06
72.862
72.813
72.84
72.853
73.007
73.078
73.092
72.985
72.983
73.854
73.838
73.871
73.696
72.822
72.798
72.798
72.765
72.594
72.5941
72.662
72.643
72.699
72.7231
72.801
72.795
69.7035
69.7094
69.6985
69.7108
69.7115
69.7109
69.7024
69.7043
69.7047
69.6983
69.7123
69.6966
69.6914
69.7029
69.7127
69.7031
69.7091
69.7069
69.7125
69.7049
69.6999
69.707
69.697
69.7067
69.702
69.7019
69.7037
69.7007
69.705
69.7041
69.7065
69.704
69.7032
69.7021
69.7067
69.7025
69.7055
69.744
69.7421
69.7084
69.7036
70.78
70.763
69.853
69.853
70.746
70.733
69.918
70.048
70.733
70.713
70.178
70.242
70.574
70.611
70.655
70.242
70.317
70.56
70.529
70.423
69.7028
69.706
69.7013
69.709
69.6986
69.7054
69.7033
69.7036
69.7022
69.7068
69.704
70.7801
70.784
70.772
70.7842
70.73
70.751
70.7222
70.7222
70.722
70.696
70.638
70.667
70.636
70.636
70.575
70.614
70.5219
70.5219
70.519
70.536
70.5219
70.519
70.52
70.519
71.303
71.43
71.232
71.3484
71.391
71.3911
71.3486
71.464
71.637
71.856
71.71
71.955
71.966
72.238
72.435
72.55
72.15
70.972
71.114
71.131
71.076
70.405
70.383
70.433
70.378
70.3562
70.298
70.396
70.695
70.24
70.221
70.465
70.519
74.075
74.013
73.941
73.97
72.788
72.871
73.177
73.109
73.397
73.466
73.633
73.668
73.835
73.874
73.979
73.93
69.858
69.858
69.827
69.858
69.858
69.861
69.861
70.042
70.037
69.956
69.942
70.077
70.077
70.1186
70.119
70.12
70.123
70.151
70.152
70.113
70.1186
70.208
70.22
70.261
70.246
69.933
70.006
70.068
69.853
69.949
69.821
69.7222
69.798
70.115
70.157
70.055
70.078
70.285
70.28
70.275
70.245
70.22
70.195
70.161
70.18
69.6986
69.7173
69.6922
69.6979
69.7077
69.7016
69.7049
69.7046
69.6971
69.701
69.705
69.7044
69.7051
69.7034
69.7115
69.7016
69.7041
69.7067
69.705
69.7048
69.7025
69.6994
69.6988
69.7014
69.7014
69.7026
69.6994
69.7004
69.6991
69.6996
69.7042
69.7062
69.7037
69.7005
69.7037
69.7032
69.7047
69.7077
69.7056
69.7033
69.7016
69.7054
69.7052
69.7104
69.7046
69.7047
69.7036
69.6996
69.6911
69.7089
69.6841
69.6959
69.7222
69.7109
69.7075
69.7033
69.6914
69.7182
69.7084
69.7042
69.7015
69.7018
69.7031
69.7035
69.7019
69.7012
69.7042
69.7004
69.6984
69.7064
69.7071
69.7042
69.7029
69.699
69.7026
69.7009
69.6997
69.7038
69.7013
69.7032
69.7046
69.7033
69.701
69.7041
69.7035
69.7038
69.7081
69.7059
69.7072
69.7077
69.7044
69.7056
69.7047
69.7023
69.7011
69.7064
70.501
70.501
70.501
70.437
70.504
70.4
70.474
70.526
70.57
70.462
70.51
70.352
70.377
70.28
70.334
70.135
70.19
70.065
69.968
69.997
69.997
69.9
69.721
69.854
69.7023
69.7026
69.7062
69.705
69.7055
69.7174
69.7057
69.701
69.6968
69.7081
69.7008
69.695
69.6987
69.7001
69.7027
69.7044
69.6994
69.704
69.7029
69.7058
69.7017
69.7037
69.703
69.7049
69.7061
69.7048
69.7034
69.6994
69.7048
69.7013
69.7031
69.7001
69.7038
69.7017
69.7047
69.7072
69.7079
69.706
69.7048
69.7049
69.7023
69.7039
69.7033
69.7026
69.7061
69.7023
69.7014
69.7079
69.7077
69.7002
69.7001
69.7053
69.7024
69.7014
71.0772
71.0772
71.079
71.091
71.104
71.114
71.07
71.101
71.029
71.123
71.061
71.0224
71.102
71.0224
70.929
71.0224
71.0224
70.664
70.929
70.756
70.491
70.791
70.618
70.882
70.673
71.109
71.12
71.203
71.15
71.1105
71.121
71.141
71.141
71.218
71.228
71.47
71.492
71.477
71.39
71.2674
71.324
71.226
71.2674
72.163