/*--------------------------------*- C++ -*----------------------------------*\
  =========                 |
  \\      /  F ield         | OpenFOAM: The Open Source CFD Toolbox
   \\    /   O peration     | Website:  https://openfoam.org
    \\  /    A nd           | Version:  8
     \\/     M anipulation  |
\*---------------------------------------------------------------------------*/
FoamFile
{
    version     2.0;
    format      ascii;
    class       volScalarField;
    location    "19440";
    object      Hclip;
}
// * * * * * * * * * * * * * * * * * * * * * * * * * * * * * * * * * * * * * //

dimensions      [0 1 0 0 0 0 0];

internalField   nonuniform List<scalar> 
526318
(
1.79862
1.75782
1.83329
1.74535
1.81792
1.76341
1.7897
1.69761
1.76346
1.64022
1.62313
1.74764
1.69147
1.73665
1.68624
1.71506
1.68927
1.88628
1.80131
1.83842
1.8408
1.79056
1.5497
1.7921
1.68066
1.54455
1.813
1.81491
1.81274
1.82925
1.85344
1.90431
1.88683
1.76542
1.77326
1.72076
1.74064
1.8331
1.76003
1.70902
1.7688
1.73753
1.40124
1.45672
1.36298
1.40999
1.38518
1.51138
1.68675
1.59307
1.6725
1.67153
1.62314
1.59088
1.08305
1.32972
1.32493
1.12704
1.848
1.85688
1.87698
1.83259
1.77521
1.9009
1.89928
1.85176
1.84634
1.84239
1.74476
1.73451
1.85175
1.63135
1.68418
1.5784
1.53313
1.52718
1.6231
1.62071
1.53073
1.57201
1.65043
1.65168
1.60666
1.56423
1.59342
1.65936
1.66023
1.63696
1.58373
1.65947
1.56216
1.51172
1.50994
1.4397
1.43249
1.4382
1.43888
1.43463
1.43222
1.43438
0.87115
0.811432
0.896024
0.933081
0.997726
0.777536
1.34365
1.15184
1.46919
1.4314
1.47314
1.58945
1.81292
1.70887
1.81778
1.82748
1.89636
1.86482
1.91037
1.43064
1.43114
1.43042
1.43576
1.39012
1.42992
1.34167
1.38378
1.29433
1.34351
1.29162
1.29397
1.28143
1.25801
1.24945
1.27687
1.21779
1.27182
1.22249
1.24129
1.1867
1.19176
1.21325
1.24188
1.22959
1.18426
1.18543
1.20176
1.19593
1.18322
1.19199
1.20701
1.19778
1.18654
1.19204
1.19472
1.17314
1.20835
1.20429
1.1558
1.12398
1.19166
1.14384
1.18794
1.70172
1.79352
1.73554
1.72624
1.52421
1.5938
1.52219
1.52344
1.52571
1.52492
1.54462
1.52546
1.46116
1.42896
1.39448
1.33865
1.3974
1.4344
1.43814
1.4368
1.3232
1.37867
1.26433
1.27212
1.28087
1.27381
1.27672
1.27845
1.2688
1.26801
1.266
1.25454
1.23482
1.25995
1.25576
1.22504
1.20001
1.23207
1.20801
1.21563
1.22885
1.21594
1.22489
1.1844
1.20098
1.22766
1.23056
1.67834
1.69064
1.72513
1.69565
1.68661
1.68051
1.67507
1.56893
1.59138
1.34594
1.32667
1.32342
1.44232
1.587
1.45301
1.49636
1.48907
1.44033
1.41773
0.924507
0.72846
1.07028
1.26674
0.525907
0.358065
0.661368
0.757343
0.725829
0.728578
1.90027
1.87172
1.92333
1.91728
1.88862
1.88209
1.7862
1.87391
1.71276
1.65906
1.65875
1.65996
1.65943
1.65742
1.64431
1.64712
1.56042
1.62804
1.44304
1.50241
1.42813
1.4448
0.244653
0.172203
0.630658
0.408717
0.911723
0.849021
0.904367
1.06331
1.44344
1.2501
1.48779
1.49151
1.60339
1.70418
1.82527
1.82763
1.87212
1.84569
1.90672
1.94217
1.41041
1.41138
1.37106
1.3426
1.23998
1.27715
1.20273
1.21286
1.20239
1.19622
1.18656
1.19034
1.11714
1.13576
1.17652
1.21479
1.26907
1.23692
1.19876
1.19643
1.1285
1.11927
1.17218
1.22536
1.14935
1.18593
1.18138
1.15873
1.14827
1.11301
1.12002
1.077
1.07699
1.08422
1.06972
1.19411
1.23131
1.19395
1.23603
1.59285
1.55522
1.44993
1.54128
1.46125
1.51385
1.52344
1.51262
1.52219
1.52475
1.438
1.34765
1.27566
1.26327
1.33539
1.2798
1.26148
1.37762
1.26615
1.31408
1.25435
1.25167
1.26291
1.25637
1.27154
1.26366
1.26335
1.26652
1.26852
1.26375
1.27437
1.26906
1.2787
1.28052
1.28079
1.25639
1.27674
1.25617
1.23375
1.23043
1.25585
1.28473
1.28027
1.25534
1.2395
1.26759
1.30423
1.30681
1.31791
1.27747
1.31027
1.32702
1.36703
1.31726
1.32198
1.3475
1.38011
1.4985
1.59001
1.50177
1.54321
1.61437
1.66971
1.5909
1.45015
1.56461
1.45461
1.47878
1.217
1.15935
1.19292
1.17539
1.29699
1.41317
1.34625
1.41672
1.41648
1.43339
1.41943
0.694481
0.833446
0.989063
0.831541
1.07284
0.957538
0.0912791
0.24366
0.184355
0.106586
0.015801
0.246941
0.482972
0.713882
0.6049
0.630853
1.92684
1.90845
1.94197
1.93852
1.91654
1.88658
1.8129
1.72633
1.65705
1.66967
1.64714
1.64888
1.62508
1.62629
1.60716
1.60488
1.55589
1.60091
1.52433
1.464
1.41254
1.36992
0.001
0.00107046
0.00107045
0.001
0.001
0.001
0.001
0.00107045
0.00107046
0.00107046
0.088639
0.001
0.001
0.001
0.049286
0.001
0.147634
0.241406
0.251467
0.418204
0.877555
0.660912
0.971796
0.95297
1.14726
0.988562
1.3528
1.51487
1.52851
1.62122
1.83838
1.73625
1.85203
1.85512
1.86512
1.89363
1.92969
1.95168
1.33025
1.32785
1.28356
1.30998
1.24933
1.21277
1.20287
1.20413
1.19548
1.2036
1.1546
1.14798
1.09729
1.11044
1.16544
1.13703
1.11092
1.1587
1.15317
1.17299
1.07983
1.06816
1.0908
1.1051
1.10127
1.06075
1.06601
1.06139
1.06629
1.04985
1.04862
1.34706
1.32215
1.32378
1.32191
1.34394
1.45023
1.40688
1.38641
1.27232
1.31548
1.30079
1.30351
1.20419
1.14143
1.31925
1.43409
1.32204
1.32499
1.3048
1.39057
1.36372
1.43961
1.47155
1.39809
1.37628
1.41403
1.29147
1.25956
1.26285
1.25887
1.17406
1.2325
1.15547
1.10698
1.08764
1.20412
1.2057
1.25649
1.25533
1.25504
1.25802
1.25561
1.26583
1.25589
1.26895
1.26178
1.27921
1.27344
1.2822
1.27846
1.30575
1.2929
1.31338
1.31814
1.26672
1.25179
1.31964
1.30097
1.28854
1.30798
1.28608
1.27699
1.32846
1.30623
1.40609
1.41338
1.3653
1.40776
1.41542
1.3836
1.47576
1.44691
1.51417
1.53717
1.559
1.47346
1.47789
1.48344
1.43654
1.40471
1.38307
1.46987
1.32779
1.30481
1.35609
1.37927
1.05689
1.10966
1.18984
1.31224
1.34351
1.37905
1.28405
1.24669
1.21023
1.15321
0.517206
0.601162
0.876449
0.678573
0.990203
1.05869
0.0303357
0.001
0.0154992
0.0151975
0.148534
0.001
0.53911
0.304709
0.459945
0.462744
0.001
0.001
0.001
0.001
0.001
0.00101
0.001
0.001
0.001
0.001
0.00114
0.001
0.001
0.00113985
0.00113984
0.00113986
0.001
0.001
0.001
0.001
0.001
0.001
0.001
0.001
0.00100959
0.001
0.00100965
0.001
0.001
0.001
1.91403
1.92455
1.94096
1.93603
1.91185
1.83604
1.66345
1.74633
1.62836
1.62981
1.60741
1.60715
1.59975
1.59919
1.59189
1.59357
1.53839
1.50947
1.40923
1.45317
1.30787
1.3492
0.001
0.001
0.001
0.001
0.001
0.001
0.001
0.001
0.00101
0.001
0.001
0.001
0.001
0.001
0.001
0.001
0.001
0.00100737
0.001
0.001
0.001
0.001
0.001
0.001
0.0292259
0.176798
0.341638
0.315533
0.382221
0.560929
1.01605
0.818808
1.03268
1.03505
1.33096
1.15934
1.5367
1.49565
1.56488
1.66636
1.77683
1.85265
1.86557
1.85218
1.89233
1.92637
1.91445
1.91398
0.00113296
0.001
0.001
0.001
0.001
0.001
0.001
0.001
0.001
0.001
0.001
0.001
0.001
0.001
0.001
0.00101
0.001
1.30934
1.30938
1.30915
1.27486
1.1958
1.23067
1.15522
1.14789
1.11031
1.10764
1.06296
1.05856
1.08947
1.08721
1.04778
1.08246
1.07752
1.12611
1.10924
1.10803
1.02916
1.00003
1.00082
1.04327
1.04956
1.05292
1.02742
1.0306
0.992388
0.980915
0.94436
0.950192
1.54656
1.51558
1.55422
1.56532
1.51314
1.47103
1.63869
1.65882
1.72264
1.73381
1.28099
1.32137
1.37266
1.45546
1.28018
1.22542
1.26157
1.26049
1.09893
1.15213
1.20233
1.08927
1.30263
1.30617
1.30267
1.30647
1.32567
1.30281
1.31736
1.33229
1.21288
1.20525
1.10669
1.18971
1.18152
1.14412
1.0915
1.11407
1.05315
1.0718
1.055
1.14152
1.20398
1.13465
1.20125
1.25837
1.25889
1.25377
1.25631
1.26241
1.28271
1.27199
1.28972
1.28464
1.30446
1.30042
1.32473
1.31967
1.32393
1.32436
1.33042
1.32816
1.36163
1.33589
1.30427
1.30469
1.36835
1.33821
1.34323
1.38561
1.42336
1.42541
1.42527
1.42482
1.45711
1.5098
1.57216
1.59255
1.60082
1.58007
1.72202
1.6587
1.78668
1.82547
1.81897
1.8584
1.91423
1.77667
1.86488
1.88838
1.96299
2.0123
2.03903
2.05824
2.08804
2.03328
2.08921
2.04566
2.12296
2.12535
2.17404
2.14232
2.20048
2.23403
2.2219
2.1726
2.23502
2.26157
2.22553
2.22378
2.28718
2.26567
2.29758
2.23636
2.23685
2.30043
2.26833
2.2211
2.22231
2.25348
2.28499
1.28013
1.24138
1.41141
1.4138
1.38128
1.37972
1.3824
1.14334
1.27846
0.97939
1.00417
1.10775
1.09163
0.966993
1.05072
1.03822
1.21021
1.11432
1.11517
1.02216
1.01993
1.03068
1.04823
0.575895
0.450655
0.849334
0.63919
0.846344
0.798568
0.00101
0.001
0.001
0.001
0.001
0.001
0.174279
0.414114
0.314975
0.340792
0.001
0.001
0.001
0.001
0.00136511
0.001
0.001
0.001
0.001
0.001
0.001
0.001
0.001
0.001
0.00100829
0.001
0.001
0.001
0.0010095
0.001
0.001
0.00102003
0.001
0.00101533
0.001
0.001
0.00101
0.001
0.00103325
0.001
0.00103319
0.00103307
0.001
0.00103258
0.0010323
0.00103272
0.001
0.001
0.001
0.001
0.001
0.001
0.001
0.001
0.0010078
0.001
0.001
0.001
0.001
0.001
0.001
0.001
0.001
0.00101
0.001
0.001
1.90058
1.89374
1.86335
1.86544
1.77776
1.85362
1.6725
1.61076
1.5997
1.59887
1.60246
1.59923
1.53705
1.54323
1.38861
1.34941
1.30772
1.48149
1.48106
1.42852
1.4318
1.43078
0.001
0.001
0.00113895
0.00113894
0.001
0.001
0.001
0.001
0.00113895
0.001
0.001
0.00100893
0.001
0.001
0.001
0.001
0.001
0.001
0.001
0.0185554
0.40629
0.233669
0.438223
0.434464
0.677432
0.483762
0.881597
1.03337
1.16191
1.03341
1.32687
1.49399
1.52926
1.55495
1.63596
1.75153
1.81819
1.79613
1.84414
1.77384
1.81791
1.86678
1.817
1.81712
0.00101
0.001
0.00100993
0.001
0.001
0.00119138
0.001
0.001
0.00119137
0.001
0.001
0.001
0.001
0.001
0.00101
0.001
0.001
0.001
0.00101
0.001
0.001
0.001
0.001
0.001
0.0022114
0.00100916
1.28406
1.28199
1.20487
1.21918
1.09871
1.12027
1.05952
1.05804
1.05565
1.06007
1.03007
1.03401
1.00447
1.0053
0.981827
1.02059
1.09912
1.05963
1.09828
1.09827
0.919295
0.939451
0.98088
0.960011
0.971122
0.975427
0.921953
0.914695
0.899844
0.913365
0.920162
0.918441
1.76885
1.76901
1.59546
1.51235
1.49786
1.48668
1.76437
1.67914
1.92575
2.00209
1.89779
1.82124
2.01559
1.99784
2.06383
2.11041
2.14139
2.1417
2.16955
2.14194
2.19602
2.22192
2.21783
2.21678
2.23615
2.22231
2.22127
2.26672
2.21126
2.20642
1.33029
1.25922
1.40104
1.47224
1.2608
1.20645
1.26029
1.25955
1.08682
1.14219
0.977403
1.14146
1.03021
1.30394
1.24676
1.30326
1.29609
1.30425
1.19706
1.1
1.02244
1.00644
1.02244
1.05847
0.985997
0.972661
0.897923
0.987711
1.06567
1.06168
0.979413
1.0842
1.15273
1.09422
1.20718
1.148
1.18966
1.25143
1.28608
1.25743
1.29345
1.29517
1.30838
1.29734
1.32898
1.33943
1.33755
1.35302
1.36039
1.35959
1.39472
1.40139
1.39586
1.38536
1.39024
1.38424
1.40177
1.41715
1.46393
1.45658
1.42502
1.45731
1.45237
1.48535
1.51886
1.5824
1.61274
1.61121
1.62309
1.69186
1.77435
1.84902
1.86242
1.98832
1.86295
1.91418
2.06314
2.08768
2.08655
2.1243
2.17371
2.22188
2.23395
2.23656
2.26383
2.29323
2.31752
2.31878
2.3171
2.31737
2.31669
2.29855
2.23576
2.29853
2.26768
2.22177
2.22183
2.25468
2.28579
2.29648
2.22269
2.28432
2.24304
1.068
1.06243
1.13252
1.20823
1.10073
1.16515
1.29766
1.23199
1.26276
1.10059
1.00227
0.96786
0.968651
1.06946
1.06127
0.729642
0.831357
1.01671
0.912666
1.02041
1.01735
1.02677
1.02054
1.03555
1.05096
0.248732
0.399677
0.491225
0.677713
0.691909
0.699202
0.001
0.001
0.001
0.00101
0.001
0.001
0.0311382
0.001
0.14313
0.001484
0.001
0.00136493
0.001
0.00101
0.001
0.001
0.001
0.001
0.001
0.001
0.00105178
0.001
0.001
0.001
0.001
0.001
0.001
0.001
0.001
0.001
0.001
0.001
0.001
0.001
0.001
0.00100379
0.001
0.001
0.001
0.001
0.001
0.001
0.001
0.00101
0.001
0.00100962
0.001
0.001
0.001
0.001
0.001
0.001
0.001
0.001
1.81752
1.81713
1.79629
1.80341
1.72515
1.79477
1.60196
1.66543
1.56033
1.55934
1.50413
1.48809
1.43179
1.4308
1.34544
1.24149
1.22045
1.38724
1.429
1.43086
1.4319
1.43177
0.00113901
0.001
0.00113901
0.001
0.001
0.001
0.001
0.001
0.00100548
0.001
0.001
0.001
0.001
0.001
0.001
0.00100999
0.001
0.001
0.001
0.117903
0.294024
0.436531
0.49997
0.456333
0.667372
0.844352
0.99734
1.03235
1.22645
1.0582
1.3646
1.5008
1.47265
1.58269
1.7519
1.6545
1.7264
1.72818
1.72421
1.75304
1.80209
1.80772
1.80684
1.7747
0.001
0.001
0.001
0.001
0.001
0.001
0.001
0.001
0.001
0.001
0.001
0.001
0.001
0.001
0.001
0.001
0.001
0.001
0.001
0.00100999
0.001
0.001
0.00207416
0.001
0.00101
0.001
0.001
0.001
0.001
0.001
0.001
1.1598
1.15617
1.12104
1.10241
1.05834
1.07936
1.04622
1.04507
1.2013
1.14112
1.12257
0.973567
0.984263
0.915057
0.917162
0.981342
0.980995
0.972743
1.01309
1.07229
1.0249
1.0608
1.04437
0.939732
0.919619
0.93293
0.953978
0.883873
0.881461
0.88277
0.896207
0.911697
0.898199
0.861671
0.869868
2.34413
2.35381
2.38207
2.35435
2.40216
2.38595
2.41315
2.40131
2.45682
2.44407
2.41128
2.46163
2.42226
2.48055
2.31155
2.26358
2.28474
2.33278
2.3154
2.28471
2.28908
2.3407
2.34459
2.32218
2.30198
2.35446
2.33729
2.34596
2.37157
2.22096
2.22096
2.22103
2.21971
2.24004
2.26222
1.81441
1.76061
1.65527
1.56105
1.4732
1.54833
1.74947
1.73292
1.97452
1.99805
1.88336
1.96518
2.00607
2.05373
2.10143
2.14237
2.13949
2.14036
2.13666
2.16536
2.17899
2.20411
2.19123
2.19468
2.19742
2.20752
2.18473
2.18505
1.3803
1.3112
1.25449
1.24465
1.30139
1.47235
1.45257
1.18317
1.23947
1.11129
1.04462
2.32879
2.35026
2.36541
2.37221
2.37873
2.39012
2.39282
2.42072
2.40491
2.42418
2.41969
2.4716
2.49364
2.51484
2.51588
2.52238
2.53434
2.55949
1.02327
0.967134
0.96964
1.22965
1.11479
1.28806
1.19028
1.10798
1.00957
1.00692
1.00921
1.00652
0.861631
0.935537
0.789411
0.810059
0.891228
0.811076
1.07426
1.0055
0.902827
1.09826
1.09642
1.10156
1.15571
1.10951
1.23897
1.18229
1.27507
1.23572
1.26844
1.2966
1.32046
1.34172
1.36768
1.36819
1.37462
1.36339
1.42222
1.41186
1.40077
1.40126
1.4558
1.4309
1.49998
1.45925
1.4398
1.48435
1.528
1.52034
1.54327
1.57942
1.58023
1.52591
1.63529
1.66466
1.63357
1.6245
1.70599
1.79006
1.86305
1.92976
1.87803
1.89391
2.02253
2.08088
2.12271
2.10502
2.1672
2.20121
2.24217
2.25744
2.25255
2.27143
2.32877
2.30823
2.32118
2.32823
2.31958
2.31813
2.31702
2.31659
2.31779
2.31677
2.318
1.05291
1.04495
1.0709
0.99069
1.01209
1.02919
0.967605
1.10816
1.0119
0.945901
0.964793
0.944903
0.842053
0.944854
0.968301
0.746547
0.739827
0.697182
0.798717
1.01385
0.914399
0.910973
0.919432
0.705436
0.597652
0.397597
0.412504
0.336266
0.156673
0.143082
0.693258
0.51761
0.673821
0.67651
0.001
0.001
0.001
0.001
0.001
0.001
0.00100984
0.001
0.158714
0.001
0.001
0.001
0.00101
0.001
0.001
0.001
0.001
0.00240614
0.001
0.001
0.001
0.001
0.001
0.001
0.00100993
0.001
0.001
0.001
0.001
0.001
0.00101211
0.001
0.001
0.001
0.001
0.00101249
0.001
0.001
0.001
0.001
0.001
0.001
0.001
0.001
0.00101
0.001
0.001
0.001
0.001
0.001
0.001
0.001
0.001
0.001
0.001
0.00216767
0.001
0.001
0.001
0.001
0.00216764
2.51251
2.47004
2.44425
2.55696
2.57597
2.57385
1.79052
1.78993
1.7773
1.77335
1.70455
1.76598
1.59621
1.51703
1.44775
1.46357
1.43169
1.43267
1.4318
1.42927
1.30741
1.22557
1.31578
1.39462
1.39615
0.001
0.001
0.001
0.001
0.001
0.001
0.001
0.001
0.001
0.001
0.00100943
0.001
0.001
0.996422
1.02701
1.0576
0.001
0.001
0.001
0.00360817
0.286512
0.168319
0.459213
0.488681
0.654761
0.518689
0.827559
1.19898
1.33824
1.45135
1.45526
1.77389
1.69184
1.70799
1.49253
1.57867
1.66923
1.71851
1.71732
1.71917
1.7404
1.76601
1.76728
0.001
0.00117548
0.001
0.001
0.001
0.001
0.00100904
0.001
0.001
0.001
0.001
0.001
0.001
0.001
0.001
0.001
0.001
0.00100504
0.001
0.001
0.001
0.001
0.001
0.001
0.001
0.001
0.001
0.001
0.001
0.001
0.00101
0.00100979
0.001
0.001
0.001
0.001
0.001
1.1574
1.19276
1.17948
1.12224
1.12042
1.09325
1.11437
0.98165
1.01101
0.922118
0.921459
1.12663
1.11423
0.877072
0.873815
0.876534
0.882058
0.932916
0.911786
0.950364
0.895475
1.01879
0.970064
1.01846
1.02846
0.861019
0.817136
0.840361
0.871687
0.847903
0.852276
0.792268
0.831303
0.811314
0.79201
0.766807
0.768842
2.34393
2.35792
2.38343
2.39803
2.40603
2.4071
2.4661
2.42843
2.27878
2.2756
2.25946
2.28132
2.31448
2.27521
2.3172
2.29381
2.20724
2.19523
2.19527
2.22678
2.25699
2.23027
1.82025
1.74245
1.63683
1.72594
1.57217
1.48555
1.7382
1.73859
1.98104
1.98438
1.99991
1.89402
1.97203
2.08637
2.03306
1.9747
2.0171
2.11825
2.13008
2.12124
2.1267
2.13437
2.15781
2.18435
2.17349
2.18342
2.18321
2.18203
2.1827
2.18353
2.18251
1.22787
1.23204
1.37073
1.44884
1.2319
1.31171
1.4671
1.48038
1.21982
1.16225
1.07156
1.13802
2.35922
2.31794
2.3376
2.38335
2.3828
2.38521
2.39331
2.41737
2.43676
2.4488
2.44964
2.45353
2.47558
2.51402
2.50133
2.51689
2.5319
2.57784
2.55546
2.38895
2.40201
2.41645
2.58953
2.58387
2.59599
0.970854
0.971456
0.966626
0.939062
1.03953
1.0508
0.853744
0.895748
0.931804
0.811778
0.851541
0.858565
0.786831
0.787655
0.786685
0.791421
0.822499
0.849933
0.95476
0.882513
0.88389
1.02826
1.10336
1.01654
1.1759
1.20153
1.13218
1.17532
1.23455
1.20202
1.33097
1.27148
1.33937
1.3543
1.36199
1.3536
1.40424
1.44576
1.47588
1.47873
1.48224
1.47273
1.49719
1.47714
1.52788
1.53045
1.55382
1.55449
1.53464
1.53388
1.65443
1.7
1.59912
1.66276
1.70984
1.67361
1.7712
1.81893
1.91648
1.95574
1.93406
2.02237
2.07922
2.17703
2.16355
2.22277
2.19373
2.28775
2.29859
2.29131
2.3176
2.34597
2.34618
2.39944
2.36631
2.392
2.3572
2.35526
2.3906
2.32106
2.35851
2.32148
0.423892
0.738837
0.428061
0.705517
0.983315
0.963979
0.968002
0.944457
0.967654
0.817834
0.716971
0.71415
0.607982
0.816548
0.683763
0.71327
0.838075
0.100415
0.0979397
0.476439
0.596013
0.586808
0.39267
0.283653
0.274895
0.0602569
0.0714658
0.0834281
0.158861
0.150385
0.0593515
0.234431
0.135368
0.399557
0.187469
0.113914
0.0010004
0.001
0.001
0.001
0.001
0.001
0.00224767
0.001
0.001
0.0290272
0.001
0.001
0.00101
0.001
0.001
0.00220124
0.001
0.001
0.001
0.00100982
0.00136266
0.001
0.00100983
0.001
0.001
0.001
0.00101
0.001
0.00101216
0.00101221
0.001
0.001
0.00101226
0.00101233
0.001
0.001
0.001
0.001
0.00168021
0.001
0.00168012
0.001
0.001
0.001
0.001
0.00100984
0.00101
0.00100994
0.001
0.001
0.001
0.001
0.001
0.001
0.001
0.001
0.001
0.001
0.00136261
0.001
0.00100958
0.00100997
0.001
0.001
0.001
0.001
0.00101
2.49324
2.46362
2.47347
2.49779
2.53791
2.64585
2.59214
2.58405
2.61823
2.5445
1.70411
1.69117
1.62761
1.63253
1.58332
1.61498
1.52598
1.48201
1.46453
1.42721
1.40728
1.4096
1.31553
1.32718
1.19444
1.23716
1.2368
0.001
0.001
0.001
0.00101
0.001
0.001
0.001
1.02908
1.169
1.02801
0.001
0.001
0.001
0.001
0.892815
0.733324
0.065325
0.0102896
0.0977467
0.197084
0.495971
0.349111
0.528682
0.533952
0.56252
1.5678
1.56191
1.61068
1.31171
1.45424
1.44977
1.48818
1.61315
1.68045
1.64264
1.54976
1.63509
1.66192
1.66635
1.58369
1.60846
0.001
0.001
0.00117552
0.00101
0.001
0.001
0.00101
0.00117066
0.001
0.001
0.001
0.001
0.001
0.001
0.001
0.001
0.001
0.001
0.001
0.00101
0.001
0.001
0.001
0.001
0.001
0.00100577
0.001
0.001
0.001
0.001
0.001
0.00101
0.00100563
0.001
0.001
0.001
0.001
0.001
0.001
0.001
0.001
0.001
0.001
0.001
0.001
1.17527
1.18494
1.19622
1.06184
1.08314
1.04094
1.04184
0.969413
0.958583
0.873634
0.883951
0.87443
0.872533
0.975436
0.968573
0.823236
0.819075
0.789524
0.762833
0.862767
0.856022
0.88008
0.935181
1.01486
0.978626
1.04445
0.997679
0.802446
0.773111
0.833461
0.85729
0.735282
0.729655
0.707719
0.729193
0.768185
0.74833
0.766977
0.773384
2.35604
2.30366
2.39234
2.33748
2.35798
2.39117
2.36169
2.43035
2.37514
2.47314
2.42572
2.42327
2.47897
2.46085
2.24161
2.24201
2.23163
2.246
2.25907
2.27253
2.27151
2.28538
2.1826
2.18306
2.20625
2.19077
2.22069
2.22914
1.82209
1.74471
1.66272
1.73765
1.53442
1.6256
1.7401
1.7454
1.9718
1.97291
1.97408
1.90176
2.06215
2.10897
2.02052
1.97273
2.11548
2.11464
2.12938
2.11381
2.15015
2.17387
2.18106
2.18139
2.18113
2.17915
2.1832
2.18249
2.18132
2.17856
1.22683
1.22133
1.38855
1.46212
1.36743
1.28744
1.51809
1.4634
1.19628
1.22051
1.1902
1.10614
2.35867
2.39514
2.37756
2.40376
2.42262
2.41256
2.44581
2.45945
2.43582
2.44771
2.43949
2.4503
2.45175
2.47623
2.50028
2.5143
2.51676
2.56924
2.54521
2.59004
2.59449
2.47041
2.48623
2.60289
2.60401
0.708511
0.86578
0.736085
0.840762
0.765312
0.73828
0.701933
0.66231
0.687859
0.728747
0.623348
0.669755
0.673192
0.566642
0.627443
0.76359
0.881396
0.800677
0.892401
0.889621
0.881193
0.95499
1.10435
1.00145
1.19417
1.18812
1.15559
1.10594
1.22658
1.27049
1.32699
1.31757
1.33901
1.32896
1.44739
1.39211
1.49896
1.48833
1.51316
1.51878
1.49515
1.54764
1.59463
1.56519
1.54935
1.58014
1.6276
1.61557
1.59752
1.64023
1.72552
1.72515
1.72091
1.73825
1.86921
1.78522
1.95539
1.98004
1.97853
2.0465
2.12084
2.1986
2.20563
2.21825
2.26311
2.3139
2.34692
2.35108
2.38852
2.35961
2.41155
2.42819
2.42678
2.42843
2.42729
2.42884
2.39655
2.42765
2.39654
0.080266
0.0678008
0.0911554
0.0627989
0.36628
0.676234
0.366069
0.836182
0.708185
0.71802
0.555781
0.580471
0.577736
0.583989
0.579942
0.582573
0.580051
0.579099
0.584688
0.093395
0.0842066
0.001
0.0240231
0.0577385
0.0153295
0.0608678
0.0582859
0.0317577
0.040566
0.001
0.001
0.001
0.001
0.001
0.001
0.0021134
0.001
0.001
0.00100986
0.001
0.001
0.001
0.00188829
0.001
0.001
0.001
0.001
0.001
0.001
0.001
0.001
0.001
0.00100941
0.001
0.001
0.001
0.00100992
0.001
0.001
0.001
0.00101
0.001
0.001
0.001
0.001
0.001
0.001
0.0010008
0.001
0.001
0.001
0.00100949
0.001
0.001
0.001
0.001
0.001
0.001
0.001
0.001
0.001
0.001
0.00101
0.001
0.001
0.001
0.001
0.001
0.001
0.001
0.001
0.001
0.001
0.001
0.001
0.001
0.001
0.001
0.001
0.001
0.001
0.001
0.001
0.001
0.001
0.001
0.001
0.001
0.001
0.001
0.001
0.001
0.00106294
0.001
0.001
0.001
0.001
2.6629
2.64503
2.67783
2.67715
2.6241
2.64891
2.50099
2.49255
2.53814
2.52635
2.65818
2.62488
2.65219
2.52097
2.49734
1.56346
1.5639
1.56595
1.55279
1.56499
1.49945
1.54511
1.32544
1.38301
1.24872
1.25068
1.19608
1.19659
1.19497
0.001
0.001
0.001
0.001
1.00188
1.1938
1.02928
0.001
0.001
0.981093
0.875426
0.001
0.0330595
0.001
0.001
0.572969
0.71403
0.101029
0.101431
0.242951
0.0978246
0.535701
0.389855
0.542933
1.57166
1.56938
1.56774
1.5709
1.56847
1.28123
1.39381
1.33969
1.45807
1.51561
1.54173
1.47244
1.55351
1.5071
1.50443
1.49668
0.001
0.001
0.001
0.001
0.001
0.001
0.001
0.001
0.001
0.001
0.001
0.0149599
0.001
0.001
0.001
0.0909249
0.100928
0.0457701
0.001
0.001
0.0451355
0.001
0.001
0.001
0.001
0.00100955
0.001
0.001
0.001
0.001
0.001
0.001
0.001
0.001
0.001
0.001
0.00107441
0.001
0.00107445
0.001
0.001
0.001
0.001
0.001
0.001
0.001
0.001
0.001
0.001
0.001
0.0898795
0.001
0.001
0.001
0.001
0.001
0.001
1.17407
1.10331
1.09003
1.01964
1.01235
0.929329
0.914656
0.902935
0.904396
0.893771
0.903593
0.834866
0.844322
0.767503
0.755127
0.903597
0.910122
0.698562
0.68916
0.692836
0.705298
0.975861
1.03995
0.959074
0.855453
0.837058
0.912797
0.84366
0.928174
0.770284
0.739662
0.797655
0.753217
0.708152
0.704822
0.699982
0.720525
0.716611
0.68979
0.682977
0.664378
2.27982
2.29084
2.31528
2.32555
2.31403
2.33855
2.44374
2.39308
2.37557
2.32601
2.44143
2.41047
2.40707
2.23158
2.22962
2.26008
2.24585
2.26751
2.26998
2.29933
2.2762
2.18247
2.18961
2.21289
2.1962
2.21222
2.22106
1.86126
1.78322
1.70473
1.74057
1.68689
1.5946
1.77802
1.74181
1.97703
1.97692
1.93575
1.98058
2.06876
2.11771
1.97857
2.02563
2.11828
2.11707
2.13896
2.11914
2.1602
2.17842
2.17817
2.17768
2.17746
2.17769
2.18017
2.17788
2.17654
2.17736
1.21898
1.27987
1.46327
1.44342
1.36636
1.4486
1.46654
1.53935
1.21282
1.20726
1.20134
1.11784
0.954143
0.998719
1.08024
2.42853
2.4324
2.45999
2.45236
2.47591
2.48789
2.48725
2.48901
2.52312
2.50518
2.51708
2.48201
2.51113
2.52372
2.54581
2.56982
2.58089
2.57624
2.62762
2.62731
2.6514
2.6354
2.54547
2.54914
2.65767
2.65437
0.485312
0.553225
0.434822
0.662799
0.583303
0.663638
0.661567
0.655163
0.58422
0.511252
0.447539
0.45608
0.479599
0.532264
0.701389
0.609423
0.587879
0.789086
0.938164
0.904191
0.750989
0.996479
1.03298
1.05093
1.03312
1.1483
1.20483
1.09423
1.31232
1.25036
1.31984
1.31907
1.4159
1.35552
1.47433
1.50597
1.50502
1.50626
1.63304
1.59596
1.56532
1.62078
1.64144
1.6347
1.63091
1.62429
1.64242
1.63641
1.72212
1.7609
1.79969
1.75711
1.79926
1.83022
1.96456
1.90103
1.99435
1.97714
2.05829
2.1339
2.21973
2.21661
2.25106
2.28921
2.3662
2.3529
2.37985
2.38116
2.40943
2.42305
2.43827
2.43331
2.44294
2.44049
2.43037
2.4406
2.42923
2.42958
0.0203127
0.001
0.0477699
0.023236
0.0262875
0.0473139
0.0268313
0.215183
0.0189751
0.581854
0.585991
0.109572
0.323889
0.58093
0.57923
0.581492
0.579163
0.577931
0.581847
0.512941
0.417991
0.001
0.001
0.001
0.001
0.001
0.0255759
0.001
0.001
0.001
0.001
0.00101
0.001
0.001
0.00100863
0.00189439
0.001
0.001
0.001
0.00371693
0.001
0.001
0.001
0.00100974
0.001
0.001
0.001
0.00100983
0.001
0.001
0.00100647
0.001
0.00100976
0.001
0.001
0.001
0.001
0.001
0.00347843
0.001
0.001
0.001
0.001
0.001
0.00130795
0.00130787
0.00130789
0.001
0.001
0.001
0.001
0.001
0.001
0.001
0.001
0.001
0.001
0.001
0.001
0.001
0.001
0.001
0.001
0.001
0.001
0.001
0.001
0.001
0.001
0.001
0.001
0.001
0.001
0.001
0.001
0.001
0.001
0.001
0.001
0.001
0.001
0.001
0.001
0.001
0.001
0.001
0.00101
0.001
0.00161067
0.001
0.00106292
0.001
0.00104587
0.001
0.001
0.001
2.6614
2.68915
2.70645
2.6599
2.65725
2.63421
2.67377
2.52384
2.58476
2.5884
2.58948
2.60809
2.66384
2.66719
2.49192
2.52367
2.4575
2.50988
2.50238
1.56145
1.56332
1.46421
1.4242
1.52475
1.4526
1.46139
1.33407
1.36107
1.22495
1.19665
1.1973
1.19788
1.17418
0.001
0.001
1.11381
1.22474
1.00107
0.001
0.001
0.955578
0.953725
0.001
0.001
0.692964
0.826301
0.0653318
0.134884
0.0738381
0.0347278
0.553075
0.558896
0.148304
0.182268
0.230636
0.32566
0.481608
1.52265
1.56416
1.53947
1.52117
1.28586
1.28352
1.3058
1.37875
1.49511
1.49222
1.44639
1.49581
1.49226
0.0240637
0.0183085
0.018843
0.0356052
0.0529632
0.0764402
0.0817172
0.0847508
0.0874651
0.113454
0.119813
0.152646
0.163033
0.178505
0.207321
0.246113
0.195674
0.28321
0.24836
0.193496
0.244885
0.247427
0.240602
0.001
0.001
0.00107452
0.001
0.001
0.00101
0.001
0.001
0.001
0.001
0.001
0.001
0.001
0.001
0.001
0.001
0.001
0.001
0.0753485
0.111191
0.170919
0.20092
0.270956
0.147594
0.001
0.001
0.362702
0.244815
0.281088
0.317429
0.001
0.001
0.001
0.001
0.001
0.001
0.001
0.001
0.001
0.001
1.09138
1.00898
1.00754
0.94723
0.947828
0.921764
0.937776
0.907088
0.94713
0.872379
0.871894
0.781216
0.79937
0.705936
0.707182
0.67909
0.67794
0.829264
0.79995
0.688488
0.676547
0.682446
0.670651
0.899063
0.944075
0.784491
0.755823
0.826156
0.942664
1.00357
0.960088
0.691875
0.64896
0.711735
0.736615
0.638449
0.62041
0.610405
0.582232
0.6123
0.587321
0.611447
0.63008
2.39302
2.32524
2.30506
2.3549
2.25111
2.34915
2.36019
2.38025
2.38032
2.42404
2.35912
2.45167
2.42641
2.48699
2.21229
2.23502
2.23044
2.25311
2.23382
2.26332
2.253
2.24763
2.17825
2.18736
2.19531
2.20389
2.20312
2.20358
1.91487
1.83438
1.72375
1.74119
1.64541
1.73474
1.74775
1.80477
1.9824
1.9814
1.98189
1.95863
2.07313
2.12016
2.03961
1.99246
2.12058
2.12145
2.12833
2.14834
2.17982
2.16658
2.17907
2.17851
2.17768
2.1782
2.17688
2.17702
2.17735
2.17768
1.30224
1.2073
1.47257
1.47696
1.3891
1.48224
1.47811
1.57623
1.20202
1.20294
1.18041
1.16278
1.1038
1.2019
2.44449
2.46184
2.48279
2.51705
2.51327
2.53181
2.54712
2.554
2.56429
2.55095
2.55411
2.57885
2.60158
2.60842
2.61068
2.62068
2.63876
2.65902
2.67051
2.67213
2.68067
2.56181
2.55026
2.70168
2.7288
0.306492
0.349471
0.322543
0.409233
0.53021
0.610651
0.509618
0.526194
0.441813
0.448244
0.453656
0.471617
0.573524
0.52771
0.598179
0.597156
0.605085
0.666592
0.727311
0.901264
0.831483
0.989676
1.08528
1.07003
0.975297
1.12423
1.13421
1.22993
1.29273
1.26486
1.33519
1.2776
1.47088
1.39754
1.5108
1.50587
1.52105
1.58188
1.70988
1.71446
1.66041
1.6866
1.71613
1.66074
1.77073
1.70016
1.67788
1.70974
1.84965
1.85575
1.91968
1.97372
1.86048
1.94686
2.09355
2.04087
2.1088
2.08101
2.27295
2.23703
2.30609
2.31764
2.3886
2.40395
2.46139
2.43235
2.47547
2.46402
2.48401
2.51221
2.48872
2.51708
2.5256
2.48507
2.47324
2.51509
2.51397
2.48474
0.001
0.001
0.001
0.001
0.001
0.001
0.001
0.001
0.001
0.001
0.001
0.0482045
0.31558
0.001
0.001
0.404119
0.142518
0.57652
0.402202
0.505672
0.585126
0.4164
0.329846
0.001
0.00115189
0.001
0.001
0.001
0.001
0.001
0.00142674
0.00100993
0.001
0.001
0.001
0.001
0.001
0.00100156
0.001
0.001
0.001
0.001
0.001
0.001
0.001
0.001
0.0010095
0.00101
0.00100891
0.001
0.001
0.001
0.001
0.00126766
0.001
0.001
0.00126759
0.001
0.001
0.001
0.00100996
0.00161062
0.001
0.00122967
0.001
0.001
0.001
0.001
0.00101
0.001
0.001
0.001
0.001
0.001
0.001
0.001
0.001
0.001
0.001
0.001
0.001
0.001
0.001
0.001
0.001
0.001
0.001
0.001
0.001
0.001
0.001
0.001
0.001
0.001
0.001
0.001
0.001
0.001
0.001
0.001
0.001
0.001
0.001
0.001
0.001
0.001
0.001
0.001
0.001
0.001
0.001
0.001
0.001
0.001
0.001
0.001
0.001
0.00106292
0.001
0.001
0.001
0.00122968
0.001
0.001
2.72507
2.71118
2.72468
2.69511
2.7068
2.72342
2.71342
2.67742
2.69761
2.60643
2.58317
2.52937
2.54022
2.69117
2.7051
2.70109
2.60261
2.48413
2.53321
2.49732
2.48636
2.49056
2.53061
2.42024
1.3235
1.4269
1.32594
1.3645
1.3702
1.27732
1.27577
1.27774
1.27861
1.27655
1.25049
1.17296
1.14567
1.06395
1.06263
1.17306
1.28582
0.0286238
0.0390438
0.95041
0.952713
0.0584169
0.0715722
0.887942
0.755663
0.0717581
0.0901549
0.626347
0.56274
0.231203
0.196565
0.153864
0.562054
0.487955
0.240409
0.275112
0.384368
1.43281
1.35619
1.3322
1.41717
1.28297
1.3095
1.44472
1.37185
1.4166
1.49597
1.48976
0.0246119
0.0192035
0.0322988
0.0194257
0.0720854
0.0522636
0.0805066
0.0788689
0.0840853
0.111763
0.161444
0.134637
0.172996
0.166526
0.231949
0.187159
0.287156
0.285422
0.288025
0.267686
0.288204
0.282938
0.286041
0.287454
0.001
0.001
0.001
0.00372529
0.001
0.00100998
0.00366281
0.001
0.001
0.001
0.001
0.001
0.001
0.001
0.001
0.001
0.001
0.001
0.001
0.00101
0.001
0.396295
0.418642
0.369025
0.428646
0.448147
0.505443
0.406481
0.100036
0.561022
0.583315
0.343623
0.285361
0.001
0.001
0.001
0.001
0.001
0.001
0.001
0.001
0.001
0.001
0.001
0.001
0.001
0.001
0.001
0.001
0.950135
0.947432
0.978799
0.94678
0.94922
0.944983
0.943903
0.764446
0.768865
0.849547
0.863937
0.726095
0.726925
0.686439
0.684687
0.684148
0.682026
0.653323
0.651397
0.691819
0.686176
0.595914
0.581964
0.540474
0.557656
0.870622
0.796508
0.734511
0.950233
0.852535
0.98186
1.08234
1.00686
0.691296
0.64849
0.75103
0.726815
0.519123
0.523079
0.530372
0.559763
0.587096
0.611487
0.644827
0.62603
2.27175
2.30689
2.2908
2.29648
2.29038
2.33029
2.29333
2.32978
2.3604
2.39135
2.38394
2.3874
2.4233
2.39326
2.48801
2.20278
2.20676
2.21241
2.21511
2.21327
2.21576
2.22938
2.24997
2.23523
2.18268
2.19048
2.19856
2.20341
2.20299
1.8826
1.95714
1.7658
1.75963
1.67967
1.77794
1.83833
1.77107
1.99409
2.00532
2.00912
1.99456
2.12166
2.08479
2.0539
2.0877
2.136
2.12644
2.15815
2.1736
2.19091
2.18722
2.18566
2.1934
2.18595
2.19353
2.18598
2.18961