/*--------------------------------*- C++ -*----------------------------------*\
  =========                 |
  \\      /  F ield         | OpenFOAM: The Open Source CFD Toolbox
   \\    /   O peration     | Website:  https://openfoam.org
    \\  /    A nd           | Version:  8
     \\/     M anipulation  |
\*---------------------------------------------------------------------------*/
FoamFile
{
    version     2.0;
    format      ascii;
    class       volScalarField;
    location    "19440";
    object      nut;
}
// * * * * * * * * * * * * * * * * * * * * * * * * * * * * * * * * * * * * * //

dimensions      [0 2 -1 0 0 0 0];

internalField   nonuniform List<scalar> 
526318
(
0.000206229
0.000290387
0.0001794
0.000428009
0.0001899
0.000283273
0.000186462
0.000330986
0.000168541
0.000370721
0.000302432
0.000350723
0.000170833
0.000331469
0.00025335
0.000249356
0.000265459
0.000287501
0.000216835
0.000319048
0.000513969
0.000278388
0.00024839
0.000220279
0.000304619
0.000225508
0.000269923
0.000186119
0.000134536
0.000242528
0.000162994
0.000246231
4.81936e-05
0.000253495
0.000258554
0.000132057
0.000405935
0.000338269
0.000485217
0.000267032
0.000301966
0.00027698
0.000396223
0.000347422
0.000281024
0.00034486
0.000208815
0.000335007
0.000360304
0.000374311
0.000201044
0.000383086
0.000273548
0.000321958
0.000300129
0.000331248
0.000349057
0.000282087
0.000418235
0.000405212
0.000160612
0.000257317
0.000263169
0.000209127
0.000334454
0.000305203
0.000332623
0.000284483
0.000361889
0.000327525
0.000239449
0.000405482
0.000321898
0.000388665
0.000372104
0.000454192
0.000437505
0.000503593
0.000405782
0.00041748
0.000404552
0.000386721
0.000448547
0.000533722
0.000416728
0.000427225
0.000476247
0.000369037
0.000338565
0.000386737
0.000472417
0.000410969
0.000367241
0.000271254
0.000304396
0.000284697
0.000367729
0.000334358
0.000257632
0.000276701
0.000295595
0.000272004
0.000287536
0.00030067
0.000300031
0.000284874
0.00029702
0.000313679
0.0003097
0.000324398
0.000182926
0.000241506
0.000238872
0.000304104
0.000147043
0.000174976
0.000100302
0.000235266
0.000102354
0.000145667
0.000187336
0.000176951
0.000288097
0.000148311
0.000175475
9.63986e-05
0.000172201
8.79919e-05
7.89023e-05
0.000106443
0.000161191
9.50033e-05
8.28204e-05
6.99883e-05
7.3253e-05
2.576e-05
6.3727e-05
7.90209e-05
8.25994e-05
3.51555e-05
6.52616e-05
5.21046e-05
3.82767e-05
4.71466e-05
6.72766e-05
6.50503e-05
1.91619e-05
7.576e-05
4.28256e-05
1.30556e-05
6.61201e-05
9.89363e-05
0.000220784
7.85181e-05
0.000166136
0.000381957
0.000248167
9.68601e-05
0.000110483
0.000114938
0.000190475
6.5447e-05
0.000367774
0.000370817
0.000413804
0.000209398
0.00034793
0.000317704
0.000361621
0.000420387
0.000435874
0.00046206
0.00037096
0.000464035
0.000541068
0.000510779
0.000413578
0.000347841
0.000384542
0.000381064
0.000320759
0.000316371
0.000263298
0.000199865
0.000290972
0.000268288
0.000114962
5.07749e-05
0.00012899
0.000117489
7.64017e-05
8.35026e-05
5.83756e-05
6.43171e-05
6.84541e-05
3.21717e-05
0.000102818
7.77065e-05
2.11211e-05
0.000140481
8.31723e-05
0.00018197
0.000296021
0.000238638
0.000155192
0.000354095
0.000183111
0.000159278
0.000174662
0.000271804
0.000298141
0.000356162
0.000344866
0.000173615
0.000364942
0.000350258
0.000258466
0.000434193
0.000222263
0.000529092
0.000292059
0.000299554
0.000439266
0.00028365
0.000230666
0.000438175
0.000245477
0.000122255
0.000261484
0.000283773
0.000246938
0.000287925
0.000325382
0.000146465
0.000190022
0.000227858
0.000226177
0.000253829
0.000218138
0.000211812
0.000212562
0.000202246
0.000250066
0.000255418
0.000326016
0.000345796
0.000197895
0.000373909
0.000334349
0.000357808
0.000414225
0.000417831
0.00034458
0.000390875
0.00038441
0.00024765
0.000346776
0.000185998
0.000224368
0.000156734
0.00021444
7.04339e-05
7.21869e-05
0.000225476
0.000101609
0.000329255
0.000287154
0.000304565
0.000291528
0.000297788
0.000311182
0.000229664
0.000370702
0.000351928
0.00027899
0.000170549
0.000175809
0.000187173
0.000211342
0.000236921
0.000158029
8.0221e-05
0.000106878
0.00011534
8.55875e-05
6.83522e-05
8.69153e-05
4.05016e-05
4.67919e-05
6.80927e-05
3.74315e-05
4.39765e-05
9.24264e-05
0.000146592
0.000213127
0.000218071
0.000239694
0.00026509
0.000326662
0.00026744
0.00026781
0.000213193
0.000209264
0.000191622
0.00023553
0.000214519
0.000108828
4.41368e-05
0.000158283
0.000115466
0.000127196
0.000143032
0.000183263
0.000180453
0.000152705
0.000117241
0.000257535
0.000305219
0.000273895
0.000315055
0.000377858
0.000372263
0.000310284
0.000356308
0.000419638
0.000364116
0.00043615
0.000503164
0.000425619
0.000532611
0.000440193
0.00034242
0.000252975
0.000342867
0.000250572
0.000301597
0.000290798
0.000334834
0.000282291
0.000308164
0.000348384
0.000183603
9.22259e-05
0.000170069
0.000109604
0.000122312
8.72179e-05
8.40615e-05
0.000138093
2.88923e-05
5.50505e-05
3.79435e-05
3.7958e-05
7.19768e-05
9.47331e-05
0.000118174
0.000102583
2.14895e-05
0.000203904
0.000125717
0.000183945
0.000111381
0.000240584
0.000212503
0.000210433
0.000218109
0.000213566
0.000280432
0.000404327
0.000323906
0.000317099
0.000291759
0.000383756
0.000358806
0.000353686
0.000418967
0.000400625
0.000211628
0.000195311
8.04371e-05
0.000186585
0.000348515
0.000187617
0.00023451
0.000387645
0.000353106
0.000288473
0.000171902
0.000423186
0.000126943
0.000548286
0.000273372
0.000296395
0.000216173
0.000374061
0.000229637
0.000319324
0.000226513
0.000411801
0.000190807
0.000276348
0.000412757
0.000193687
0.000351921
0.000180273
3.87912e-05
2.2044e-05
7.06989e-05
4.33345e-05
9.48682e-06
0.000191123
0.000322644
0.000204684
0.000207741
0.000106806
0.000132209
0.000231902
0.000103816
0.000236468
0.00025362
0.000317683
0.000388408
0.000319687
0.000371163
0.000309455
0.00041739
0.000384279
0.000361202
0.000347488
0.00033558
0.000254091
0.000225667
0.000276755
0.000197816
0.000136401
0.000189293
9.43188e-05
0
3.2678e-11
1.03739e-10
0
0
0
0
7.89748e-11
1.03395e-10
1.18403e-10
8.5231e-05
0
0
0
8.60315e-06
0
4.0662e-05
8.27887e-05
8.21807e-05
0.000114305
0.000303917
0.000182339
0.000299
0.000342249
0.000274214
0.000304455
0.000297984
0.000290428
0.000224432
0.000217656
0.000177275
0.000198898
0.000203538
0.000209306
0.000138743
0.0001561
7.97714e-05
0.000173704
0.000152612
6.87721e-05
6.17215e-05
9.72811e-05
6.65856e-05
5.2315e-05
1.6181e-05
3.99796e-05
1.9948e-05
5.95173e-05
0.000101565
6.00414e-05
0.000176572
0.000181724
0.000201473
0.00022698
0.00021743
0.000307768
0.000277976
0.000273465
0.000214307
0.000183474
0.000160038
0.000123217
2.41096e-05
0.000147771
0.000123041
0.000176125
8.27414e-05
6.48173e-05
0.000181362
0.000390864
0.000367413
0.000415471
0.000388257
0.000449718
0.000473874
0.000439711
0.000397716
0.000342663
0.000358152
0.000358462
0.000365343
0.000327462
0.000320705
0.00031425
0.000263986
0.000318808
0.000390816
0.000375738
0.000416838
0.000404289
0.000409441
0.000372753
0.000407718
0.000343933
0.000410126
0.000274464
0.000197865
0.000196427
0.000116367
0.000188106
0.000189164
0.000305413
0.000207733
0.000253687
0.000286637
0.000281344
0.00024407
0.000146275
0.000271072
0.000103028
6.93629e-05
0.000146668
8.73824e-05
0.000102228
9.82713e-05
2.77391e-05
6.74143e-05
4.41366e-05
6.7285e-05
7.11373e-05
1.63836e-05
0.000144728
9.61824e-05
0.000184472
0.00021949
0.00016193
0.000174567
0.000230849
0.000282905
0.000209191
0.00021719
0.000329473
0.000270688
0.000372915
0.000402926
0.000329277
0.000425858
0.00037889
0.000433549
0.000477133
0.000386681
0.000446399
0.000466222
0.00039752
0.000311077
8.76417e-05
0.000326333
0.000144611
0.00024846
0.000225208
0.000128783
0.000363463
0.000319624
0.000317699
0.000209476
0.000255439
0.000261639
0.000291793
0.000226097
0.000360211
0.000225413
0.000196332
0.000324689
0.000183163
0.000283632
7.29412e-05
0.000228364
0.000181367
9.95471e-05
0.000170647
0.000187452
1.27763e-05
0
4.91139e-06
7.8126e-06
9.65222e-05
0
0.000190138
0.000157387
0.000173825
9.33993e-05
0
0
0
0
0
0
0
0
0
0
1.73711e-09
0
0
6.27851e-10
6.95325e-10
1.83738e-09
0
0
0
0
0
0
0
0
0
0
0
0
0
0
0.000232776
0.000130107
9.15329e-05
0.000139431
0.000318146
0.000212385
0.000383409
0.000338319
0.000321473
0.000359369
0.000338371
0.000328419
0.000266747
0.000313245
0.000280491
0.000313647
0.000249655
0.000187157
0.000152841
0.000270707
0.000100373
0.000186161
0
0
0
0
0
0
0
0
0
0
0
0
0
0
0
0
0
0
0
0
0
0
0
0
2.50331e-05
2.68417e-05
3.67591e-05
7.3274e-05
0.000103671
0.000155072
0.000344872
0.000168289
0.000269657
0.000318267
0.000264015
0.000273753
0.00026892
0.000202472
0.000194806
0.000272988
0.000260556
0.000251979
0.00019096
0.000215842
0.00026942
0.000111008
7.26214e-05
0.000137253
6.3293e-10
0
0
0
0
0
0
0
0
0
0
0
0
0
0
0
0
0.000159145
7.52433e-05
0.000108705
6.47565e-05
4.20881e-05
5.75773e-05
9.31256e-06
5.03365e-05
2.15587e-05
7.08537e-05
9.73563e-05
5.95203e-05
0.000193053
0.0002377
0.000253189
0.000147387
0.000306056
0.000260552
0.000311827
0.000327692
0.000154313
0.000205786
0.00022193
0.000191097
7.16723e-05
0.000124524
0.000146831
0.000117938
0.000103059
0.000168885
0.000177492
0.000138764
0.000424398
0.000483213
0.000472533
0.000510669
0.00046636
0.000498887
0.000537198
0.000475571
0.000500266
0.000531167
0.000374617
0.000398627
0.000498153
0.000459911
0.000354329
0.000362521
0.000390931
0.000336721
0.000342085
0.00034741
0.000311319
0.000244918
0.000349234
0.000371534
0.000283148
0.000360524
0.000398
0.000346238
0.000353193
0.000301579
0.000253782
0.000103404
0.000154061
0.000100541
0.000164773
1.94016e-05
0.000195128
0.000142874
0.000223902
0.000274146
0.00025674
0.000294485
0.00027497
0.000306673
0.000228984
0.000135949
0.000157303
0.000129603
9.08154e-05
0.000112555
8.1767e-05
6.82728e-05
0.000105564
2.42317e-05
6.93315e-05
7.7292e-05
9.1377e-05
8.90918e-05
6.61095e-05
9.45704e-05
0.000181045
0.000230278
0.000196991
0.000127856
0.000259769
0.000299174
0.000192694
0.00029652
0.000322849
0.000412532
0.000369858
0.000428165
0.000382993
0.000386036
0.000376393
0.000423962
0.000369346
0.000445332
0.000422479
0.000490302
0.000533504
0.000462619
0.000535393
0.00051014
0.00053285
0.000553574
0.000564616
0.000546989
0.000506029
0.0005419
0.000539791
0.000561879
0.000603708
0.000664156
0.000623499
0.000666796
0.000716287
0.000789016
0.000782135
0.000730776
0.000831456
0.000866801
0.00084937
0.000881386
0.000812569
0.000847545
0.000825748
0.000857852
0.000834787
0.000785003
0.000804565
0.00078227
0.000768898
0.000707481
0.000717761
0.000762827
0.000691874
0.000639716
0.000673115
0.000647773
0.000700339
0.000193649
0.000320171
0.000200953
0.000148716
8.52828e-05
0.000178168
0.00024594
0.000247171
0.000301909
0.000220093
0.000280156
0.000141512
0.000274881
0.000243956
0.000181784
0.000271877
0.000205388
0.000192923
0.000266394
0.000136584
0.000239228
0.000217339
0.000117479
0.000123511
3.54962e-05
0.000115367
0.000172466
0.000106187
0.000141083
0
0
0
0
0
0
7.03613e-05
0.000309791
0.000167576
0.000126842
0
0
0
0
2.90196e-09
0
0
0
0
0
0
0
0
0
0
0
0
0
0
0
0
2.07275e-10
0
1.73183e-10
0
0
0
0
8.80961e-10
0
1.13587e-09
1.97734e-09
0
2.74751e-10
1.36391e-09
1.9322e-09
0
0
0
0
0
0
0
0
0
0
0
0
0
0
0
0
0
0
0
0
0.000155518
0.000153439
0.000101108
0.000206714
0.000233262
4.93607e-05
0.000276536
0.000222876
0.000254393
0.00031145
0.000300448
0.000322308
0.000287904
0.000271997
0.000172873
0.000205312
0.00012714
0.000230099
0.000298323
0.000226712
0.00027851
0.000259842
0
0
1.02472e-09
7.55723e-10
0
0
0
0
1.81363e-09
0
0
0
0
0
0
0
0
0
0
1.80043e-06
2.31492e-05
4.39782e-05
3.53539e-05
0.000114075
0.000208802
6.45221e-05
0.000116964
0.000312145
0.000283925
0.000238785
0.000240935
0.000263015
0.00026875
0.000255402
0.000223829
0.000341878
0.000281619
0.000179514
0.000195862
0.00024615
0.000123374
0.000198852
2.69237e-05
9.16433e-05
0
0
0
0
0
1.83275e-11
0
0
1.02677e-11
0
0
0
0
0
0
0
0
0
0
0
0
0
0
0
5.9588e-07
9.93416e-07
9.47712e-05
0.000134759
5.959e-05
8.45789e-05
1.87594e-05
6.72452e-05
6.89553e-05
9.57919e-06
4.21827e-05
8.79087e-05
8.26229e-05
0.000109386
0.000180467
0.000245663
0.000262774
0.000238773
0.000285707
0.000327925
0.000351701
0.000306061
0.000196803
0.000180031
0.000197476
0.00022823
0.000110666
0.000125626
0.000132095
0.000125481
0.00013923
0.000142738
0.000158783
0.000171225
0.000547467
0.000562445
0.000501122
0.000517783
0.000471703
0.000518822
0.000535808
0.000574571
0.000612127
0.000641483
0.000602172
0.000593137
0.000748388
0.000692965
0.000813589
0.000839226
0.000866182
0.000829127
0.000813471
0.00080305
0.000762432
0.000737903
0.000699815
0.000678534
0.000614327
0.000646244
0.000599911
0.000633841
0.000649649
0.000649294
0.000455429
0.000413336
0.000516736
0.000506906
0.000378762
0.0003698
0.000394342
0.000349451
0.000357224
0.000363317
0.00028608
0.000206282
0.000210636
0.000370885
0.000273739
0.000362907
0.000266459
0.000321778
0.000265015
0.000123129
0.000119508
0.000184736
7.77959e-05
0.000221967
0.000244169
0.000158219
0.000207057
0.00025131
0.000280663
0.000295637
0.000264016
0.000314183
0.000228932
0.000316088
0.000167992
0.00019603
0.000135601
8.53378e-05
0.000126697
0.000114039
0.000129163
4.02257e-05
1.38282e-05
4.80947e-06
2.90337e-05
0.000110682
9.57194e-05
6.06745e-05
0.000159846
0.000156382
0.000232979
0.000218376
0.000180526
0.000150029
0.000338704
0.000271307
0.000292282
0.000310223
0.000337391
0.000365864
0.000362428
0.00041113
0.000383536
0.000316304
0.000339157
0.000421249
0.000444162
0.000387786
0.000421808
0.000489501
0.000471731
0.00051342
0.000491593
0.00056363
0.000496323
0.000515998
0.000597608
0.000642836
0.000695675
0.000739901
0.000805528
0.000823738
0.000848544
0.000870452
0.00085422
0.000846478
0.000824602
0.000760813
0.000676743
0.000745211
0.000672901
0.000625032
0.000571815
0.000610113
0.000571993
0.000569998
0.000529015
0.000516536
0.000551994
0.000487279
0.000516685
0.000451183
0.000485623
0.00026493
0.000110411
0.000309103
0.000190634
0.00018485
0.000142471
0.00015808
0.00023193
0.000270527
0.000271245
0.000221928
0.000252062
0.000196268
0.000119991
0.000237209
0.000148836
9.11381e-05
0.000112763
0.000107202
0.000162427
0.000102612
0.000111219
0.000174956
0.000156264
0.000117995
0.000195193
8.46423e-05
0.000155702
3.8106e-05
5.84064e-05
0.000156127
0
0
0
0
0
0
0.000108752
0
0.000393023
1.71054e-06
0
3.96054e-09
0
0
0
0
0
0
0
0
1.69234e-11
0
0
0
0
0
0
0
0
0
0
0
0
0
0
0
0
0
0
0
0
0
0
0
0
0
0
0
0
0
0
0
0
0
2.84558e-05
0.000181658
0.000134948
0.000218744
0.000251655
0.000188862
0.000284634
0.000202546
0.000260001
0.000295299
0.000219642
0.00025208
0.000289333
0.000282171
0.000200038
0.000164478
0.000148958
0.000230423
0.000216676
0.000251107
0.000273706
0.000273909
6.09993e-10
0
4.90633e-11
0
0
0
0
0
0
0
0
0
0
0
0
0
0
0
0
3.09886e-05
7.86776e-05
9.42269e-05
0.000148627
2.37444e-05
4.95754e-05
0.000222562
0.00016161
0.000280064
0.000239797
0.000206685
0.0001668
0.000270298
8.30667e-05
0.000259761
0.000251205
0.000165068
0.000152272
0.000303813
0.000158756
0.000201643
0.000186401
7.41527e-05
2.34479e-05
0.000137955
0
0
0
0
0
0
0
0
0
0
0
0
0
0
0
0
0
0
0
0
0
0
4.80863e-07
0
0
0
0
0
0
0
0
9.28988e-05
0.000108277
7.52636e-05
4.32467e-05
2.47004e-05
8.31989e-05
0.000101626
4.67076e-05
0.000199859
0.000106395
0.000145173
8.49514e-05
0.00011331
0.000122867
0.000111858
0.000226703
0.000258491
0.000282216
0.000270581
0.00030798
0.000325138
0.000334205
0.000360073
0.000195861
0.00020079
0.000242342
0.000233702
0.000121368
0.000111825
9.73598e-05
0.000122381
0.00013839
0.000132471
0.000169138
0.0001818
0.000198529
0.000289395
0.000239987
0.000302395
0.000304956
0.000173869
0.00031859
0.00023549
0.000299454
0.000341825
0.000392152
0.00033999
0.00031592
0.000363029
0.000359284
0.00043428
0.000410566
0.000431015
0.000316433
0.000321708
0.000338803
0.00036094
0.000213562
0.000272444
0.000322531
0.000330951
0.000132012
0.000342223
0.000334182
0.000609433
0.000574329
0.000533749
0.000561082
0.000498988
0.000465653
0.000560793
0.00059489
0.000523971
0.000543883
0.000537208
0.000516913
0.000567297
0.000582507
0.000664823
0.00071254
0.000641786
0.000626858
0.000763944
0.000804853
0.000839077
0.000852954
0.000850932
0.000825095
0.000781123
0.000757887
0.000707139
0.000710861
0.000660597
0.000676367
0.000618257
0.000614747
0.000634885
0.000630335
0.000481592
0.000442453
0.000391756
0.000403218
0.000401064
0.0005289
0.000539317
0.000402758
0.000288613
0.0003344
0.00037394
0.000471803
0.000452412
0.000403322
0.000338067
0.000395312
0.000355597
0.000300735
0.000314255
0.0003421
0.000329797
0.000329021
0.000343163
0.000296169
0.000347358
0.000372912
0.000290629
0.000349077
0.000417173
0.000311048
0.000111763
0.000286678
0.000255271
0.000137896
0.000211069
0.000278988
0.000121665
0.000157886
0.000227416
0.000238598
0.000140756
0.000271107
0.000126006
0.000209551
0.000261256
0.000273389
0.000238562
0.00028841
0.000330029
0.000295466
0.000275189
0.00020776
0.000171136
6.78e-05
7.42701e-05
0.000135816
0.000160477
0.000132185
0.000100319
8.56266e-05
4.15462e-05
5.85427e-05
0.00011541
7.07175e-05
4.28427e-05
0.00014821
0.000116472
0.000182201
4.88763e-05
0.000162116
0.000259229
0.000158534
0.000217334
0.000351273
0.000283603
0.000206175
0.000278286
0.000282111
0.000370107
0.000339671
0.000406348
0.000363532
0.000311009
0.000438062
0.000374009
0.000388347
0.000452434
0.000461693
0.000460645
0.000489692
0.000520794
0.000445255
0.000459355
0.000526797
0.00062919
0.000626638
0.000726322
0.000739957
0.000797912
0.000828526
0.000825578
0.000874209
0.000848144
0.000830148
0.000888567
0.000760349
0.000829443
0.000727225
0.000675376
0.000606179
0.000635217
0.00053976
0.000573055
0.00051375
0.000133541
0.000194126
0.000247451
0.000247023
0.000173381
0.000126228
0.000231865
0.000245751
0.000189952
0.000198618
0.000189272
0.000181526
0.000222053
0.00028149
0.000128294
4.28338e-05
0.000186474
0.000125393
0.000183655
0.000138883
0.000206584
0.000205115
0.000113049
8.97545e-05
0.000121214
0.000105974
7.49236e-05
5.40468e-05
8.29638e-05
0.000193219
0.000161537
0.00024621
0.00024621
0.000262019
0
0
0
0
0
0
0
0
0.00015402
0
0
0
0
0
0
0
0
2.59353e-07
0
0
0
0
0
0
0
0
0
0
0
0
1.81528e-10
0
0
0
0
2.36479e-09
0
0
0
0
0
0
0
0
0
0
0
0
0
0
0
0
0
0
0
2.13702e-09
0
0
0
0
2.34449e-09
0.000367289
0.000500484
0.000328216
0.000452659
0.000358858
0.000384792
0.000136328
0.000305336
4.76753e-05
8.12049e-05
0.00019474
0.000193662
0.00017064
0.000211198
0.000265514
0.000210475
0.000246144
0.000241309
0.000239112
0.00023341
0.000233659
0.000177999
0.000239639
0.000271813
0.000270193
0
0
0
0
0
0
0
0
0
0
0
0
0
0.00021263
0.000175335
0.000262832
0
0
0
1.29032e-06
0.000140231
5.65538e-05
4.02733e-05
0.000156904
0.000142627
6.18616e-05
0.000102555
0.000186416
0.000287523
0.000326436
0.000223574
0.000128147
0.000125999
9.25888e-05
0.000221301
0.000271138
0.000226299
0.000250552
0.000201596
0.000253264
0.000281562
6.54866e-05
0.000349668
0
2.7475e-10
0
0
0
0
0
0
0
0
0
0
0
0
0
0
0
0
0
0
0
0
0
0
0
0
0
0
0
0
0
0
0
0
0
0
0
0.000183738
0.000227898
0.000121405
9.81017e-05
7.1085e-05
7.64595e-05
8.92021e-05
8.77625e-05
0.000110476
0.000114364
0.000104016
8.56703e-05
0.000143276
0.000112697
0.000111741
0.000108127
0.000112288
0.000254183
0.000279428
0.00029462
0.000294328
0.000325509
0.000327026
0.000348198
0.000350839
0.000229022
0.000214858
0.000269269
0.000260332
8.46172e-05
0.000107462
8.71e-05
0.000122764
0.0001523
0.000108426
0.000184423
0.000154335
0.000289012
0.000152672
0.000315736
0.000262208
0.000352359
0.000363002
0.000331295
0.000389432
0.000376362
0.000439093
0.000338364
0.000333353
0.00027985
0.000312699
0.000244244
0.000274188
0.000561744
0.0005816
0.000545214
0.000508643
0.000440308
0.000489061
0.000611157
0.000586363
0.000598858
0.000546677
0.00055323
0.00056994
0.000610272
0.000580351
0.000736567
0.000769023
0.000767699
0.000682096
0.000712185
0.000829211
0.000838047
0.000835102
0.000848331
0.000876479
0.000839623
0.000788948
0.000778992
0.000700952
0.000721812
0.000683258
0.000685377
0.000642467
0.000675173
0.000576268
0.000605339
0.000642983
0.000594683
0.000382512
0.000377188
0.000511774
0.000479191
0.000416804
0.000441872
0.000540597
0.000530569
0.000375446
0.000391019
0.000398424
0.000395426
0.000440222
0.000507097
0.000495196
0.000381343
0.000445
0.000383374
0.0003432
0.000355719
0.000327657
0.000314357
0.000355046
0.000268753
0.000332605
0.000341779
0.000362731
0.000430197
0.000372541
0.000487586
0.000357303
0.000373242
0.000392824
0.000344933
0.00060829
0.000226766
0.000409304
0.000310516
0.000333108
4.98479e-05
3.18695e-05
0.000306669
8.4517e-05
0.000211524
0.000178033
0.000245129
0.000156321
0.000136953
0.00029684
0.000206116
0.000302745
0.000252022
0.000251885
0.000243251
0.000256877
0.000210602
0.000271176
0.000226711
0.000247723
8.36985e-05
7.51419e-05
8.54612e-05
0.00014755
9.17845e-05
0.000159646
6.38815e-05
2.22402e-05
0.000103172
4.31454e-05
4.73153e-05
5.06103e-05
0.000206685
6.43486e-05
7.72928e-05
0.000179382
0.000188053
0.000140304
0.000232694
0.000224129
0.000179388
0.000137359
0.000285657
0.000299185
0.000220369
0.000257446
0.000309448
0.000322757
0.000338251
0.000394121
0.000298625
0.000384498
0.000358441
0.000420252
0.000418682
0.000435155
0.000566202
0.000323017
0.000500891
0.000464825
0.000603886
0.000567837
0.000695612
0.00078738
0.000667746
0.000755891
0.000834169
0.000845723
0.00082378
0.000883221
0.000858538
0.000887386
0.000833693
0.000828227
0.000745243
0.000653215
0.000722675
0.000574792
0.000604432
0.000540193
0.000217884
0.00023365
6.01534e-05
0.000200241
0.000189047
0.000159881
0.000229231
0.00032856
0.000342571
0.000105335
0.000125584
0.000142498
0.000175473
0.000121357
0.000230309
0.000292706
7.64873e-05
2.57993e-05
8.25694e-05
0.000198417
0.000118791
0.000281091
6.02359e-05
6.77162e-05
9.78388e-05
2.34709e-05
1.37365e-05
3.11742e-05
0.00014806
0.000179445
9.16966e-05
0.000298805
0.000157091
0.000201897
0.000115303
0.000124436
0
0
0
0
0
0
3.20431e-07
0
0
8.12965e-05
0
0
0
0
0
8.99459e-07
0
0
0
0
1.23049e-09
0
0
0
0
0
0
0
4.91643e-10
3.34272e-10
0
0
1.23969e-09
1.44725e-09
0
0
0
0
2.8487e-09
0
3.69854e-09
0
0
0
0
0
0
0
0
0
0
0
0
0
0
0
0
0
1.34153e-09
0
0
0
0
0
0
0
0
0.000596157
0.00069921
0.000501613
0.00049222
0.000427733
0.00108225
0.000577189
0.000257816
0.000679227
0.000263066
0.000106028
0.000141189
0.000115844
0.000263258
0.000189675
0.000151007
0.000198779
0.000196993
0.000159754
0.000179259
0.000257379
0.000246087
0.000227945
0.000251477
0.000183674
0.00024701
0.000229532
0
0
0
0
0
0
0
0.00022796
0.00025171
0.000158156
0
0
0
0
0.000154453
0.000143791
4.81719e-05
8.86843e-06
7.62815e-05
0.000109903
0.000106907
0.000108106
8.43285e-05
0.000117269
9.36519e-05
5.2081e-05
0.000157864
0.000114826
0.000152519
0.000265938
0.00010886
0.000239562
0.000152485
0.000235134
0.000336694
0.00012952
0.000122197
0.000194652
0.000263403
0.000162427
0.000122035
0
0
2.60019e-10
0
0
0
0
6.13219e-10
0
0
0
0
0
0
0
0
0
0
0
0
0
0
0
0
0
0
0
0
0
0
0
0
0
0
0
0
0
0
0
0
0
0
0
0
0
0.000195949
0.000160454
0.000213425
0.000152656
0.000121087
0.00012607
9.76233e-05
0.000121802
0.000130015
0.000125638
0.000121504
0.000123753
0.000121159
0.000113793
0.000131914
0.000124581
0.00011297
0.000110666
0.000102754
0.000274872
0.000292507
0.000301843
0.000312362
0.00035297
0.000353097
0.000391948
0.000366
0.000240242
0.000196522
0.000266432
0.000277508
9.37344e-05
8.26672e-05
0.00010097
0.000102751
0.000136841
0.00015828
0.000192328
0.000185512
0.000274777
0.000191935
0.000505273
8.09753e-05
0.000520682
0.000512137
0.000731673
0.000466754
0.000492197
0.000619268
0.000434455
0.000197774
0.000788868
0.000501167
0.000439074
0.000370651
0.000375091
0.000345373
0.000303861
0.000301716
0.000254826
0.00014188
0.000525311
0.000566664
0.000487658
0.000537131
0.000493905
0.000443652
0.00063544
0.000616922
0.000620441
0.000553125
0.000582127
0.000578368
0.000613238
0.00056525
0.000798359
0.000830376
0.000760676
0.000727896
0.000896866
0.000884402
0.000901233
0.00089257
0.00082721
0.000839999
0.000745439
0.000748398
0.000716379
0.000694129
0.000690773
0.000660151
0.00062813
0.000650498
0.000600684
0.000562963
0.000602997
0.000614324
0.000393591
0.000390132
0.000503681
0.000509938
0.000459218
0.000417747
0.00054483
0.00054491
0.000396397
0.000401037
0.000429746
0.000431666
0.00054297
0.000514762
0.000487394
0.000415981
0.000478064
0.000431908
0.000423686
0.000429188
0.000386886
0.000339616
0.000349541
0.000355713
0.000334401
0.000397027
0.000343505
0.000351496
0.000418835
0.000463102
0.0004359
0.000535074
0.000459959
0.000359772
0.000412624
0.000585818
0.000497975
0.000271195
0.000221929
4.91106e-05
0.000224192
0.000137466
0.000173558
0.000208251
0.000134195
0.000114186
0.000244871
0.000153122
0.000310592
0.000288329
0.000223314
0.000244938
0.000297738
0.000193715
0.000267723
0.000109441
0.000137784
0.000124964
5.24122e-05
9.88661e-05
0.000175291
0.000100863
0.000124078
0.000252636
0.000201467
0.000110027
9.34798e-05
5.59797e-05
3.70803e-05
0.000121512
8.48753e-05
7.90653e-05
8.05461e-05
0.00017865
8.56547e-05
0.000184645
7.75362e-05
0.000194467
0.000190814
0.000200473
0.000109123
0.000298935
0.000267018
0.000193817
0.000312046
0.000275579
0.000347776
0.000336201
0.000380702
0.000346786
0.000345456
0.000458326
0.0003787
0.000426832
0.000515785
0.000422409
0.000560523
0.000543806
0.000632409
0.000644113
0.000694746
0.000729644
0.000777284
0.000785469
0.000834602
0.000858262
0.000828854
0.00086037
0.000865993
0.000860204
0.000814534
0.000812484
0.000724273
0.000604467
0.000702709
0.00054753
1.23039e-05
2.23678e-05
6.66405e-05
2.64525e-05
8.81506e-05
0.00031818
5.96222e-05
0.000153969
0.000203255
0.000193668
0.000171286
0.000109994
9.22242e-05
0.000111197
0.000218104
0.000270411
0.000114198
0.000113536
0.000306643
2.02436e-05
1.9319e-05
0
3.13916e-06
2.6594e-05
1.52404e-05
2.54516e-05
1.65299e-05
1.05095e-05
2.34722e-05
0
0
0
0
0
0
2.33743e-07
0
0
0
0
0
0
5.98792e-07
0
0
0
0
0
0
0
0
0
0
0
0
0
0
0
0
0
0
0
0
0
0
0
0
0
0
0
0
0
0
0
0
0
0
0
0
0
0
0
0
0
0
0
0
0
0
0
0
0
0
0
0
0
0
0
0
0
0
0
0
0
0
0
0
0
0
0
0
0
1.55426e-11
0
0
0
0
0.000811817
0.000602511
0.000664681
0.000354538
0.000353879
0.000342233
0.000228675
0.000564551
0.00039079
0.000846774
0.000497298
0.000600598
0.000804432
0.000616287
0.000386651
0.000238456
0.000135842
0.000160748
0.000134104
0.00014354
0.000184647
0.000212934
0.00016959
0.000200768
0.00022227
0.000202468
0.000211773
0.000222611
0.000199764
0
0
0
0
0.000228599
0.000249762
0.000162781
0
0
0.000158935
0.000195652
0
3.50367e-05
0
0
0.00013369
0.000129526
2.84158e-05
5.11514e-05
5.76946e-05
2.0904e-05
2.87082e-05
7.48719e-05
0.00011216
0.000155368
0.000208035
0.000156612
0.000270802
0.000167571
0.000189743
0.000286863
0.000180774
0.000209138
6.74709e-05
0.000200171
0.000172801
0.000132219
0.00019645
0.000226613
0.000192331
0
0
0
0
0
0
0
0
0
0
0
1.91363e-05
0
0
0
3.33625e-05
0.00010542
2.9326e-05
0
0
1.49205e-05
0
0
0
0
0
0
0
0
0
0
0
0
0
0
0
2.01761e-09
0
6.40959e-10
0
0
0
0
0
0
0
0
0
0
0
9.9534e-05
0
0
0
0
0
0
0.000193931
0.000184409
0.00019536
0.000170237
0.000152436
0.000153509
0.000117467
0.000123874
0.000129756
0.000127079
0.000141805
0.00013752
0.000139604
0.000135318
0.000152334
0.000117316
0.000149483
0.000138239
0.000127294
0.000130195
0.000106298
0.000392504
0.000439966
0.000384541
0.00031156
0.000301573
0.000353777
0.000339385
0.000357464
0.000257599
0.000210204
0.000306664
0.000265599
0.000102674
0.00011173
0.000161799
0.000127653
0.000153172
0.000208718
0.000186358
0.00019967
0.000406341
0.000399267
0.000331542
0.000628204
0.00153343
0.000616494
0.00173742
0.000163134
0.000254161
0.000854118
0.000209722
0.000523741
0.000656441
0.000387773
0.000443873
0.000330217
0.000390929
0.000318466
0.000352912
0.000935782
0.000347047
0.000571912
0.000531177
0.00050111
0.000541053
0.000489252
0.000451654
0.000662833
0.000616862
0.000633813
0.000591501
0.000594383
0.000613147
0.000600167
0.000617723
0.000848614
0.000873259
0.000754519
0.000828342
0.000930914
0.000876933
0.000953857
0.000919202
0.000846246
0.000776823
0.000713795
0.000748647
0.000690019
0.000687362
0.000633365
0.000652121
0.00061186
0.00061392
0.000575158
0.000591263
0.000604981
0.000597276
0.000379273
0.000416293
0.000534841
0.000493866
0.000426773
0.000485794
0.000518769
0.000564574
0.000420826
0.000413536
0.000462309
0.000452841
0.000402982
0.00039696
0.000460014
0.000608265
0.000546545
0.0004521
0.000515437
0.000457507
0.000419096
0.000458318
0.000475566
0.00044007
0.000454536
0.000399075
0.0003708
0.000386869
0.000341189
0.000397774
0.000432936
0.000507533
0.000462395
0.000534092
0.000518073
0.000542712
0.000616373
0.00042347
0.000413666
0.000613221
0.000538591
0.000223216
5.36308e-05
8.25281e-05
0.000104113
0.000197878
0.000217933
0.000117899
0.000171433
6.88708e-05
0.00018854
0.000219495
8.88588e-05
0.000172212
0.000243927
0.000160873
7.58207e-05
0.000121392
0.000155072
0.000133917
4.27475e-05
8.52225e-05
0.00011668
0.000181547
0.000118393
0.000134471
0.000276199
0.00015794
0.000190909
1.80532e-05
0.000103524
0.000156054
0.000133574
5.90822e-05
0.000122331
0.000185685
9.75893e-05
6.35603e-05
0.000151956
0.000119299
0.000204504
0.000143923
0.000202203
0.000125894
0.00024763
0.000275357
0.00025325
0.000329994
0.000232626
0.000333279
0.000342073
0.000383142
0.000351146
0.000349255
0.000346735
0.000467214
0.000408019
0.000456579
0.000510973
0.000525832
0.000588972
0.000624666
0.000624748
0.000692854
0.000686311
0.000759816
0.000766646
0.000819315
0.000814867
0.000852038
0.00085111
0.00085246
0.000861408
0.00084212
0.000812934
0.00072751
0.000784317
0.000613729
0.000688523
8.14763e-06
0
1.17908e-05
8.5933e-06
6.05344e-06
2.43364e-05
6.14233e-06
0.000119895
1.46135e-05
0.000260698
0.000169827
0.000112035
0.000125065
0.000126118
0.000126061
0.000236953
0.000185159
5.41702e-05
0.000278205
0.00020794
0.000157103
0
0
0
0
0
9.18663e-06
0
0
0
0
0
0
0
0
8.74986e-07
0
0
0
4.80154e-07
0
0
0
0
0
0
0
0
0
0
0
0
0
0
0
0
0
0
2.85554e-06
0
0
0
0
0
6.51101e-10
8.64023e-10
1.40446e-09
0
0
0
0
0
0
0
0
0
0
0
0
0
0
0
0
0
0
0
0
0
0
0
0
0
0
0
0
0
0
0
0
0
0
0
0
0
0
0
0
0
3.02527e-09
0
6.45797e-10
0
2.23053e-09
0
0
0
0.000436595
0.00050269
0.000643616
0.000560903
0.00061447
0.000508648
0.000787591
0.000687604
0.000490327