/*--------------------------------*- C++ -*----------------------------------*\
  =========                 |
  \\      /  F ield         | OpenFOAM: The Open Source CFD Toolbox
   \\    /   O peration     | Website:  https://openfoam.org
    \\  /    A nd           | Version:  8
     \\/     M anipulation  |
\*---------------------------------------------------------------------------*/
FoamFile
{
    version     2.0;
    format      ascii;
    class       volScalarField;
    location    "20340";
    object      nut;
}
// * * * * * * * * * * * * * * * * * * * * * * * * * * * * * * * * * * * * * //

dimensions      [0 2 -1 0 0 0 0];

internalField   nonuniform List<scalar> 
526318
(
0.000343094
0.000583414
0.000499289
0.000626598
0.000559714
0.000325762
0.000700908
0.000382595
0.000486332
0.000210284
0.000281777
0.000642481
0.000459195
0.000163542
0.000242144
0.000149123
0.000437794
0.000353743
0.000509555
0.000177285
0.000544986
0.000558199
0.00040078
0.000286397
0.000136536
0.000148153
0.000112468
0.000652708
0.000435271
0.000102233
0.000359867
0.00016568
0.000701018
0.000408481
0.000526682
0.00105542
0.000217272
0.00013413
0.000450376
0.00112123
0.000563305
0.000398517
0.000420592
5.10711e-05
0.000267367
0.000339636
0.000398111
0.00066984
0.000255678
0.000336305
0.000577404
0.000642048
0.000515581
0.000352544
0.000185567
0.000288187
0.000318306
0.000104621
8.12682e-05
0.00028971
0.000578977
0.000542263
0.000683331
7.38966e-05
2.60432e-05
0.000148315
0.000236501
0.000275719
0.000191694
0.00019943
0.000380264
0.000216869
0.0003972
0.000234404
0.000341617
0.000175952
0.000248888
0.000160972
0.000442738
0.000529701
0.000401042
0.000349888
0.000211618
0.00013913
0.0005074
0.000411819
8.32149e-05
0.000455833
0.000404642
0.000228338
0.000412069
0.00030525
0.000147275
0.00034149
0.000267595
0.000318441
0.000288498
0.000150443
0.000147619
0.000396088
0.000173685
0.000206984
0.000224775
0.000149009
7.74747e-05
0.000123634
0.000250378
0.000232225
0.000243192
0.000359409
0.000485774
0.000385605
0.000237095
0.000169921
0.000121688
0.000457437
0.000157914
0.000554276
0.000113168
0.000224649
0.000280184
0.000227582
0.000177451
5.82786e-05
0.000124642
0.000116736
0.000160315
0.00012055
6.68868e-05
9.03789e-06
9.66792e-05
5.83921e-05
5.52129e-05
4.70049e-05
3.90591e-05
2.25585e-05
6.72631e-05
4.12692e-05
7.22774e-05
3.67586e-05
6.53976e-05
9.72787e-05
9.03531e-06
4.30647e-05
0.000106029
5.92395e-05
0.000104659
0.000156719
4.25282e-05
0.00017184
6.26239e-05
0.000240813
0.000179299
6.76105e-05
8.47844e-05
0.000391496
0.000299021
0.000262702
4.77383e-05
0.000157572
0.000190572
7.39419e-05
0.000358257
0.000166277
0.000219575
0.000363986
0.000289901
0.000471096
0.000406192
0.000426179
0.000268362
0.000542379
0.000435613
0.000203131
0.000401937
0.000190344
0.000211106
0.000198063
0.000298241
0.00029513
0.000125433
0.000172646
0.000290436
0.000122596
0.000217822
0.000123613
0.000139762
7.85331e-05
0.000181136
3.97733e-05
8.49419e-05
8.9899e-05
6.9621e-05
1.65773e-05
0.00012314
0.000134693
5.18976e-05
0.000120085
7.39424e-05
0.000169309
6.16004e-05
0.000188212
0.000289217
0.000295979
5.65722e-05
0.000216263
0.000175049
0.0001174
0.000167058
0.000244743
0.000252682
0.000731252
0.000378161
0.00040315
0.000614034
0.000359427
0.000171465
0.000369397
0.000298133
0.000439906
2.37322e-05
1.44868e-05
0.00029543
0.000484926
0.000428353
0.000321915
0.000115888
0.00035781
0.000452119
0.000220912
0.000119053
9.64375e-05
0.000311962
0.000207849
0.000184525
0.000276294
0.000192894
0.000200901
0.000158313
0.000196398
0.000393459
0.000171722
0.000268832
0.000332214
0.000254261
0.000225959
0.000262595
0.000139933
0.000420546
0.00028563
0.000491663
0.000373524
0.000411288
0.000346331
0.000305146
0.000261382
0.000348912
0.00027093
0.000271912
0.000193532
0.000189562
1.84972e-05
0.000113487
0.000155761
0.000121205
0.00012198
0.000291414
0.00025792
0.000136397
0.000247254
0.000274131
0.000286163
0.000162425
0.000332033
0.000389358
0.000447465
0.000317226
0.000200435
0.000237374
0.000701348
0.000319121
0.00018683
0.000218367
4.05851e-05
0.000104953
5.30334e-05
4.40475e-05
5.32566e-05
2.02448e-05
4.37665e-05
3.86861e-05
7.41101e-05
4.45956e-05
0.000119704
0.000158177
0.000189898
0.000262443
0.000204061
0.000261194
0.000195098
0.000281088
0.000175115
0.000182554
0.000217916
0.000158709
0.000228445
0.000125145
5.18953e-05
0.000208189
7.88576e-05
8.90142e-05
0.000193218
0.000175128
0.000189096
9.44651e-05
7.72867e-05
0.000222419
0.000220579
0.000267087
0.000278727
0.000358168
0.000380936
0.000519394
0.000332301
0.000278265
0.000384232
0.000239863
0.000144525
0.000383943
0.000286739
0.000460164
0.000366076
0.000159066
0.000338213
0.000143602
0.000208182
0.0001518
0.000211013
0.00018534
0.000180691
0.000176789
0.000241939
0.000145178
0.000231956
9.74236e-05
0.00014659
0.00013634
7.10516e-05
0.00010136
3.83076e-05
8.91973e-05
3.3406e-05
9.45629e-05
7.397e-05
9.63263e-05
4.32695e-05
0.000150238
0.000190479
0.000172746
0.000158562
0.00014446
4.63537e-05
0.000229038
0.000223793
0.000191565
0.00025588
0.000222117
0.000236186
0.000257778
0.000252237
0.000216932
0.000210305
0.000233918
0.000307204
0.000274318
0.000298275
0.000218919
0.00049536
0.000690482
0.000604713
0.000652723
0.000921533
0.000625339
0.000502691
0.000374762
0.000450571
0.000368415
0.000407286
0.000255667
0.00024218
0.000222136
0.000123124
0.000207601
0.000281923
0.000126145
0.000354286
0.000422847
0.00021567
4.97122e-05
0.00011878
0.000237652
0.000253493
0.000168862
0.000254587
0.000105303
5.64527e-05
7.66464e-05
7.4426e-05
3.99319e-05
1.71885e-05
0.000195975
0.000258177
0.000192987
0.000174351
5.04731e-05
0.000270063
0.000216572
0.000295779
0.000283451
0.000314674
0.00017259
0.000237252
0.000217117
0.000309868
0.000474348
0.000245482
0.000210377
0.000283747
0.000254727
0.000301225
0.000340807
0.000239611
0.000155934
0.00031964
0.000236502
0.000171508
0.000218324
0
7.15299e-10
6.2459e-11
0
0
0
0
1.55907e-10
7.76553e-10
6.83719e-10
8.21787e-05
0
0
0
9.82425e-06
0
7.43985e-05
7.31644e-05
8.33172e-05
4.5101e-05
0.000209746
0.000112379
0.000274616
0.000216797
0.000206783
0.000254956
0.00022157
0.000292632
0.000330586
0.000376047
0.000357299
0.0004197
0.000295515
0.000215564
0.000559777
0.000108522
0.000546986
0.000296162
0.000146049
0.000110133
8.09103e-05
0.000103128
5.21483e-05
6.05894e-05
3.77286e-05
3.23664e-05
2.73179e-05
3.81229e-05
3.37297e-05
8.37251e-05
8.96958e-05
0.000109926
0.000234357
0.000164696
0.000190869
0.000232354
0.00019507
0.000165378
8.05862e-05
0.000110831
7.9193e-05
0.000108752
4.55035e-05
0.000110217
0.000137366
0.000181879
0.000101615
6.03022e-05
0.00017813
0.000272804
0.000325035
0.000350069
0.000301952
0.000352901
0.000398855
0.000306976
0.000317931
0.000290299
0.000207733
0.00031793
0.000258629
0.000221201
0.000240231
0.000264785
0.000591872
0.000330074
0.000268142
0.000280054
0.000269834
0.00023291
0.000352526
0.000354867
0.000392679
0.000136717
0.000400298
0.000278666
7.02017e-05
0.000250483
5.13049e-05
8.2397e-05
0.00022835
0.000154071
0.000156761
0.000118684
0.000227932
0.000232168
0.000242435
0.000178813
0.000235451
9.87318e-05
0.000161501
8.17041e-05
7.51886e-05
9.74849e-05
2.68933e-05
5.65574e-05
5.97035e-05
7.76091e-05
6.55809e-05
0.000102165
0.000109993
4.22893e-05
8.53672e-05
0.000143956
0.000240066
0.000141721
0.000174926
0.000188369
0.00024112
0.000243704
0.000241246
0.000212576
0.000194264
0.000248258
0.000286526
0.000240958
0.000237789
0.000284586
0.000344417
0.000370362
0.000315594
0.000371326
0.000380217
0.000320922
0.000275718
0.000133283
0.000228982
0.000349315
0.00103579
0.000523266
0.000554611
0.000360656
0.000292876
0.000362471
0.000282781
0.000133588
0.000235636
0.000151448
0.000223881
6.08133e-05
0.000203706
0.000207472
0.000154355
0.000171531
0.00016797
0.000119262
0.000149551
0.000140392
9.04668e-05
0.000159052
0.00020384
1.73432e-05
0
1.29794e-05
1.70119e-05
0.000159905
0
0.000202926
0.000226875
0.000150619
6.49157e-05
0
0
0
0
0
0
0
0
0
0
5.40501e-10
0
5.59763e-10
0
3.42334e-11
1.36104e-09
0
0
0
0
0
0
0
0
0
0
0
0
0
0
7.44518e-05
9.98956e-05
0.000255884
0.000170574
0.000111111
0.000227038
0.000118415
0.00028272
0.000307878
0.000137878
0.000161595
0.000422566
0.000387341
0.000299147
0.000295333
0.000252143
0.000353493
0.000336422
0.00024478
0.000171867
0.00019571
0.000222537
0
0
0
0
0
0
0
0
0
0
0
0
0
0
0
0
0
0
0
0
0
0
0
0
8.38606e-06
8.49995e-05
3.6266e-05
0.000101016
6.39013e-05
8.8946e-05
0.000273314
0.00017908
0.000251295
0.000295567
0.000373537
0.000257516
0.000328809
0.000354686
0.000300911
0.000195738
0.000159021
0.000258247
0.000234508
0.000217244
0.00045316
0.000233706
0.000332994
0.000250765
6.94308e-10
0
0
0
0
0
0
0
0
0
0
0
0
0
0
0
0
0.000133576
0.000142571
0.000116024
8.7687e-05
4.59613e-05
6.51088e-05
2.18915e-05
3.97967e-05
1.75933e-05
2.34625e-05
1.90591e-05
6.58271e-05
0.000158997
0.000122591
0.000181995
0.000208498
0.000221381
0.000224161
0.000228313
0.000237552
7.98764e-05
0.000134471
0.000107919
0.000105986
6.33105e-05
3.60873e-05
7.9042e-05
0.000114419
0.000111546
0.000121098
0.000171687
0.000126784
0.00032255
0.000392339
0.000342233
0.000387738
0.000360541
0.000379192
0.000401562
0.000366734
0.00038451
0.000413071
0.000304627
0.000300849
0.000336459
0.000343748
0.000263098
0.000285887
0.000296362
0.000299621
0.000243954
0.000250664
0.000163867
0.000147547
0.000106492
0.000123446
0.000426765
0.000233307
0.000224918
0.000471608
0.000365578
0.000288676
0.000341183
0.000154675
0.000305023
4.11314e-05
0.00023872
0.000323821
0.000184938
0.000213678
0.000106027
0.000132173
0.000122023
0.000218495
0.000201549
0.000233103
0.000213233
0.000179936
0.000128872
0.000133343
9.70165e-05
3.11149e-05
5.19905e-05
5.79976e-05
2.12355e-05
5.1853e-05
3.79634e-05
6.66156e-05
0.000122247
8.56185e-05
0.000121121
0.000206377
0.000117049
0.000249557
0.000205486
9.229e-05
0.000245664
0.000230421
0.000169488
0.000248681
0.000221014
0.000246087
0.000274437
0.000287415
0.000219307
0.000288877
0.000289211
0.000380626
0.000329261
0.000419452
0.00033524
0.000379367
0.000389679
0.000348271
0.000379525
0.000367311
0.000427813
0.000444957
0.000477724
0.000452736
0.000415183
0.000451083
0.000449956
0.000479292
0.000488915
0.000515132
0.000476368
0.000513475
0.000499655
0.000520738
0.000551495
0.000493889
0.000505344
0.000529879
0.000563206
0.000499391
0.000515468
0.000561494
0.000535047
0.000522478
0.000597171
0.000613193
0.000571808
0.000644466
0.000575393
0.000663958
0.00063128
0.000611396
0.000622447
0.000645794
0.000630141
0.000641131
0.000640577
0.000284938
0.000279562
0.000470335
0.000649213
0.000213287
0.000250383
0.000639381
0.000313682
0.000292677
0.00018931
0.000157374
0.000112526
0.00013846
0.000106718
0.00012625
4.43259e-05
0.000116156
0.000140584
8.20411e-05
0.000108913
0.000113539
0.000126468
0.000100107
0.000112941
8.57644e-05
0.000139669
0.00013608
0.000111112
0.000135355
0
0
0
0
9.77313e-07
0
0.000162494
0.000339175
0.00016752
0.000195633
0
0
0
0
2.7134e-09
0
0
0
0
0
0
0
0
0
0
0
0
0
0
0
0
1.085e-10
0
1.23677e-10
0
0
0
0
2.53782e-09
0
2.7363e-09
2.49754e-09
0
2.18411e-10
2.12082e-09
5.35177e-09
0
0
0
0
0
0
0
0
0
0
0
0
0
0
0
0
0
0
0
0
0.000120556
0.000296903
0.000387433
0.000330112
0.000224635
0.000449818
0.000148331
0.000408722
0.000364634
0.000324537
0.00025012
0.000170538
0.000317894
0.00020991
0.000249076
0.000140489
0.00019669
0.000409408
0.000195352
0.00025732
0.000267071
0.000176295
0
0
1.00888e-09
7.46031e-10
0
0
0
0
1.78812e-09
0
0
0
0
0
0
0
0
0
0
2.69966e-05
1.72187e-05
7.67091e-05
7.6109e-05
7.53754e-05
0.000110359
0.000117862
0.000201097
0.000280005
0.000253668
0.000228504
0.00016952
0.000158573
0.000116561
0.00040692
0.000259543
0.000256724
0.00014053
0.000288449
0.00031917
0.00017745
0.000348136
3.75086e-05
0.000311848
5.5873e-05
0
0
0
0
0
1.70295e-11
0
0
1.02045e-11
0
0
0
0
0
0
0
0
0
0
0
0
0
0
0
5.95661e-07
0
0.000144844
0.00014639
9.84682e-05
0.000106517
3.85826e-05
6.36459e-05
4.31242e-05
2.18649e-05
3.92891e-05
1.59037e-05
6.6519e-05
2.36459e-05
0.000145744
0.000146813
0.000204927
0.000193419
0.000215793
0.00024985
0.000257164
0.000250119
0.000142794
9.63135e-05
0.000125667
0.000148773
7.87458e-05
4.48512e-05
8.61918e-05
5.69169e-05
0.000115742
0.000111166
0.000114796
0.000163004
0.000398242
0.000415085
0.000368336
0.000380144
0.000363768
0.000363945
0.000409185
0.000409607
0.000507017
0.000501467
0.000468071
0.000458576
0.000546429
0.000547152
0.000558293
0.000585499
0.000606927
0.000588251
0.000666076
0.000632207
0.000648559
0.000686863
0.000617639
0.00065319
0.000646296
0.000622924
0.000616843
0.000643433
0.000611647
0.000591084
0.000337987
0.00031975
0.000345392
0.000363395
0.000304387
0.000266494
0.000322003
0.000256954
0.000239675
0.000298273
0.00021991
0.000392921
0.000122977
3.30158e-05
0.000213231
0.000238721
0.000240283
0.000201117
0.0003166
0.000117324
3.42516e-05
0.000316369
0.000349604
0.000250643
0.00024369
0.000254979
0.000105117
0.000168117
0.000151237
0.000149908
5.56982e-05
0.000159289
0.000204858
0.000226638
0.000152252
0.000192151
0.000175748
0.000110629
4.19291e-05
0.000156364
7.92447e-05
3.5019e-05
3.16672e-05
5.17553e-05
8.2308e-05
8.55124e-05
0.000144553
7.56748e-05
0.000107393
0.000161896
0.000180845
0.000241288
0.000186959
6.22947e-05
0.000257736
0.000238327
0.000202849
0.000238786
0.000278967
0.000280434
0.000280916
0.000323313
0.000319686
0.000312974
0.000329541
0.000344647
0.000376904
0.000349795
0.000352237
0.000379323
0.000360285
0.000400534
0.000389972
0.000478906
0.000432127
0.000422158
0.000457559
0.000474275
0.000466109
0.000487905
0.000500428
0.000479822
0.000514713
0.000477691
0.00053645
0.000519102
0.000558345
0.000569116
0.000613016
0.00058513
0.000613608
0.000647811
0.000626791
0.000629496
0.000663597
0.000633915
0.000607049
0.000651938
0.00063386
0.000624541
0.000617271
0.000636078
0.000595757
0.000168817
0.000159105
0.00023126
0.000183225
0.000202288
0.000275796
0.000199075
0.000314308
0.000244375
0.000199683
0.000327794
0.000234253
0.00018249
0.000141922
0.000152896
0.000159179
9.16892e-05
8.18356e-05
5.09284e-05
7.68815e-05
4.55206e-05
6.17896e-05
6.02443e-05
0.000158483
0.000152672
0.000113364
0.000105781
0.000154206
7.15185e-05
0.000145869
0.00024805
0
0
0
0
0
0
2.64655e-05
0
8.92426e-05
0
0
3.67423e-09
0
0
0
0
0
0
0
0
1.53984e-11
0
0
0
0
0
0
0
0
0
0
0
0
0
0
0
0
0
0
0
0
0
0
0
0
0
0
0
0
0
0
0
0
0
0.000390234
0.000325872
0.000381201
0.000348402
0.000191822
0.000488638
3.24586e-05
0.000375494
0.000262972
0.000278207
0.000257149
0.000406396
0.000273628
0.000295775
0.000183004
0.00013256
0.000179057
0.000170624
0.000311312
0.00029222
0.00023683
0.000165167
5.99463e-10
0
3.95685e-11
0
0
0
0
0
0
0
0
0
0
0
0
0
0
0
0
9.66219e-05
5.69253e-05
5.96123e-05
3.70636e-05
8.54071e-05
0.000124202
0.000180922
0.000209755
0.000269471
0.000356624
0.000245152
0.000436757
0.000418779
0.000492136
0.00016791
0.000399383
0.000383765
0.000482238
4.08704e-05
0.000290115
0.000235224
0.000558478
0.000319442
0.000221204
0.00036977
0
0
0
0
0
0
0
0
0
0
0
0
0
0
0
0
0
0
0
0
0
0
4.80775e-07
0
0
0
0
0
0
0
0
0.00015104
0.00011106
7.6541e-05
0.000106871
6.97692e-05
6.98244e-05
7.45176e-05
5.75707e-05
0.000176884
0.000114571
0.000148006
6.42461e-05
7.53538e-05
8.46658e-05
7.52904e-05
0.0001612
0.000179633
0.000219182
0.000212367
0.000250843
0.000250935
0.00026488
0.000252104
0.000110617
0.000156068
0.000155585
0.000146997
6.28301e-05
9.17381e-05
0.000106445
7.75929e-05
9.07531e-05
0.000134767
0.000153178
9.61158e-05
0.000446782
0.000646485
0.000577699
0.000624841
0.000689639
0.000632878
0.000664173
0.000666853
0.000643165
0.000747984
0.000541297
0.000797569
0.000525969
0.000770755
0.000635317
0.000603662
0.000589047
0.000626663
0.000631112
0.000582972
0.000588193
0.000629718
0.000621423
0.000575028
0.00055915
0.000623037
0.000509214
0.000586564
0.000664983
0.000620189
0.000603967
0.000589823
0.000614563
0.000592093
0.000569531
0.000438779
0.000433214
0.000410105
0.000401873
0.000380653
0.000377642
0.000415583
0.000447404
0.000529232
0.000493196
0.000481293
0.000486102
0.00058328
0.000570936
0.000627325
0.00062363
0.00066731
0.000670195
0.000668403
0.000696681
0.000625184
0.000665779
0.000570551
0.00060968
0.00058959
0.000598131
0.000562842
0.000589053
0.000337552
0.000303717
0.00035173
0.000298921
0.000336378
0.00036312
0.000342361
0.000291533
0.000253926
0.000278792
0.000260435
0.000669242
0.000631457
0.00066383
0.000670281
0.000635048
0.000652645
0.000667318
0.000661372
0.000676196
0.00065801
0.000714886
0.000755964
0.000763499
0.000779523
0.000817034
0.000774598
0.000831662
0.000820661
0.000193843
0.0001197
0.000343068
0.000476014
0.000101971
0.000193908
0.000376372
0.000158447
6.15587e-05
0.00031846
0.000158773
0.000370867
0.00028355
0.000306066
0.000118793
0.000264874
0.000186712
3.31197e-05
0.000179777
0.000215913
0.000181229
0.000201031
0.000168481
0.000158039
0.00011475
0.000157304
4.18626e-05
0.000217891
0.000147257
0.00019298
0.000160699
1.18602e-05
8.04074e-05
2.50177e-05
4.28268e-05
0.000122248
0.000176329
8.30973e-05
0.000161692
7.41872e-05
0.000141148
0.000206437
5.53054e-05
0.000204275
0.000241038
0.000243262
0.000179529
0.000247146
0.00025364
0.000258999
0.000319646
0.000325877
0.000276822
0.0002634
0.000344722
0.000331001
0.000349234
0.000378598
0.000403684
0.000398086
0.000402627
0.000459611
0.000414504
0.000412005
0.000446778
0.000447787
0.000463129
0.000446302
0.000489124
0.000462608
0.000449626
0.000515693
0.000516252
0.000475444
0.00051242
0.000527652
0.00055895
0.000537115
0.000564505
0.000602729
0.000649092
0.000594738
0.000672375
0.000616008
0.000626827
1.66872e-05
0.000145559
0.000220458
0.000209586
8.81371e-05
0.000302509
0.000277686
0.000402645
0.000155492
0.000297217
0.000310026
0.000324446
0.000227526
0.000305601
0.000230952
0.000117242
0.000229352
6.34884e-05
0.000161878
0.000162887
0.000109681
0.000118622
1.29386e-05
0.000114644
8.32127e-05
4.93561e-05
0.000120048
0.000127701
6.05594e-05
0.000119317
4.7297e-05
0.000236623
0.000231747
0.000171304
0
0
0
0
0
0
0
0
5.5442e-05
0
0
0
0
0
0
0
0
2.7218e-07
0
0
0
0
0
0
0
0
0
0
0
0
4.85209e-10
0
0
0
0
2.70836e-09
0
0
0
0
0
0
0
0
0
0
0
0
0
0
0
0
0
0
0
2.1097e-09
0
0
0
0
2.3066e-09
0.00073411
0.000770595
0.00070827
0.000959528
0.000809067
0.00072633
0.000226344
0.000504775
0.000397021
0.00029335
0.000160371
0.000214601
0.000251212
0.000319245
0.000264216
0.000243076
0.000293179
0.000175604
0.000308242
0.000405713
0.000219534
0.000143596
0.000175706
0.000125809
0.000214038
0
0
0
0
0
0
0
0
0
0
0
0
0
0.000199332
0.000214963
0.000208839
0
0
1.69634e-06
1.37252e-05
6.01229e-05
6.28461e-05
2.77599e-05
5.13749e-05
0.000118219
6.99604e-05
0.000136609
0.00022537
0.000121297
0.000121908
0.000130977
0.000302481
0.000504469
0.000384448
0.00010068
0.0002456
0.000272989
0.000203165
0.00024876
0.000242747
0.000404503
0.000183195
0.000177199
0
2.729e-10
0
0
0
0
0
0
0
0
0
0
0
0
0
0
0
0
0
0
0
0
0
0
0
0
0
0
0
0
0
0
0
0
0
0
0
0.000145168
0.000152825
0.000151126
0.000135434
8.45105e-05
0.000111192
6.6669e-05
9.56583e-05
7.65689e-05
9.3719e-05
8.24236e-05
0.00012558
0.000125784
7.66408e-05
9.74601e-05
9.56019e-05
6.3855e-05
0.000179865
0.000179749
0.000215097
0.000201479
0.000247915
0.000231924
0.000214146
0.000269127
0.000110105
0.000135156
0.00015183
0.000162304
0.000120022
5.70773e-05
0.000156595
9.70274e-05
8.75542e-05
0.000169748
8.3196e-05
0.000137026
0.000611277
0.000588311
0.000579138
0.000499627
0.000720314
0.00064968
0.000801484
0.000847882
0.00055462
0.00056525
0.000527057
0.000557979
0.000547826
0.000539282
0.000551465
0.00049593
0.000597048
0.000605624
0.000591077
0.000568156
0.000541391
0.000549452
0.000469317
0.000464644
0.00043325
0.000420826
0.000398515
0.000375043
0.000439319
0.000415384
0.000538839
0.000586317
0.000548582
0.000510475
0.000538156
0.00063373
0.000632654
0.000605022
0.000633267
0.000697734
0.000696151
0.000699117
0.000703278
0.000637728
0.000661733
0.000609614
0.000577973
0.000589081
0.000565418
0.000593544
0.000580453
0.000578971
0.000590251
0.000320783
0.000322689
0.000321093
0.000360649
0.000339345
0.000370323
0.000360298
0.000386078
0.00031286
0.000310749
0.000251106
0.000301244
0.000672261
0.000673236
0.000623802
0.00066782
0.000632687
0.000625668
0.0006685
0.00063924
0.000669949
0.00069928
0.000695448
0.000689137
0.000779571
0.000821965
0.000753184
0.000840659
0.00083226
0.000886977
0.000828974
0.000647523
0.000625415
0.000651631
0.00102502
0.000721355
0.000724725
0.000357765
0.000337051
0.000142441
0.000126863
0.000269686
0.0001102
0.000283595
5.68931e-05
6.63591e-05
0.000328033
0.000334941
0.000268984
0.000147472
0.000353754
0.000286582
2.02608e-05
4.78611e-05
0.00014767
0.000151748
0.000221703
0.00017478
0.000250359
8.30858e-05
0.000102494
0.000112561
0.000153961
0.000144326
0.000168292
9.24942e-05
0.000117154
6.63687e-05
0.000155366
0.000161769
5.95087e-05
6.46015e-05
9.67028e-05
6.56091e-05
0.000160011
0.000126012
0.000182766
0.000163862
9.92446e-05
0.000129596
7.40813e-05
0.000212348
0.00024228
0.000245034
0.000224745
0.000226949
0.000238943
0.000301539
0.000294624
0.000270068
0.000248185
0.000322312
0.000332545
0.000360753
0.000381835
0.000459844
0.000343804
0.000439375
0.000432893
0.000431091
0.000452226
0.00040645
0.000421697
0.000457165
0.00048692
0.000431493
0.000442133
0.000492955
0.000502989
0.000461003
0.000504687
0.000489304
0.000510077
0.0005443
0.000607618
0.000540102
0.000646434
0.000568655
0.000608003
0.000117845
0.000171263
9.03827e-05
0.000100476
0.000198602
0.000258559
0.000212451
0.000530617
0.000459279
0.000108297
0.000254443
0.000237253
0.00016924
0.000288333
0.000196378
0.000316233
0.000170372
4.49081e-05
4.22832e-05
5.80437e-05
0.000278772
0.000172108
9.73078e-05
0.0001009
0.000113799
2.4764e-05
5.14523e-05
7.42236e-05
6.84638e-05
6.1839e-05
3.64901e-05
7.78265e-05
0.000153543
0.000319657
0.000183709
0.000129155
0
0
0
0
0
0
3.20412e-07
0
0
1.46978e-05
0
0
0
0
0
1.10892e-07
0
0
0
0
1.22107e-09
0
0
0
0
0
0
0
6.51819e-10
6.85785e-10
0
0
1.13938e-09
2.04427e-09
0
0
0
0
2.80639e-09
0
3.62859e-09
0
0
0
0
0
0
0
0
0
0
0
0
0
0
0
0
0
1.32749e-09
0
0
0
0
0
0
0
0
0.000455059
0.000685197
0.0009962
0.000852039
0.000626279
0.00143447
0.000958653
0.000572936
0.0011017
0.000262266
0.00048053
0.00033625
0.000273148
0.000215543
0.000175025
0.000184479
0.000179001
0.000112466
0.000273538
0.00032001
0.000101584
0.00023159
0.000226872
0.000231386
0.000164089
0.000187389
0.00020243
0
0
0
0
0
0
0
0.000173406
0.000235122
0.000223899
0
0
0
0
0.000166852
0.000115461
1.27607e-05
1.23272e-05
3.75654e-05
6.51379e-05
6.74578e-05
7.33758e-05
3.91485e-05
0.000129014
8.10631e-05
0.000225871
0.000463563
0.000247978
0.000347059
0.000325753
0.000434799
0.000232193
0.000208417
9.82744e-05
5.00622e-05
0.000352369
0.000559625
0.000227796
8.80027e-05
0.000452411
0.000498188
0
0
2.58305e-10
0
0
0
0
7.64477e-10
0
0
0
0
0
0
0
0
0
0
0
0
0
0
0
0
0
0
0
0
0
0
0
0
0
0
0
0
0
0
0
0
0
0
0
0
0
0.000136399
0.000166643
0.000140096
0.000124812
0.00015293
0.00011662
9.2274e-05
8.00731e-05
0.000112425
0.000112043
7.64959e-05
0.000109755
8.96355e-05
0.000141057
0.000109541
8.43189e-05
0.000103512
6.03553e-05
0.000102101
0.000194248
0.000180459
0.000210607
0.00022748
0.000255549
0.000232349
0.000284363
0.000190792
0.000120621
0.000119911
0.00016722
0.000186532
5.19653e-05
0.000136967
0.000143731
0.000101991
0.000118895
0.000179337
0.000133635
9.992e-05
0.000384122
0.000613633
0.000693944
0.000821933
0.000264252
0.000314665
0.000683856
0.00123882
0.000683468
0.000949969
0.00138098
0.000868992
0.000931892
0.000699278
0.000521392
0.000524467
0.000505626
0.000526322
0.000521443
0.000529088
0.000579514
0.000410956
0.000563959
0.000579803
0.000544982
0.000563282
0.00052523
0.00052188
0.00047559
0.000439111
0.000432731
0.000433763
0.000406604
0.000432006
0.000445941
0.000441193
0.000573256
0.000605927
0.000560285
0.00052132
0.000692282
0.00071766
0.000702173
0.000665848
0.000722746
0.000711179
0.000662453
0.00064844
0.000592368
0.000605894
0.000590624
0.000596157
0.000604506
0.000609376
0.000559578
0.000559076
0.000570581
0.000561642
0.000335404
0.000319085
0.00036969
0.000387031
0.00038482
0.000331316
0.000410074
0.000391436
0.000312559
0.000329986
0.000309362
0.000277045
0.00063799
0.00060505
0.000645797
0.000643216
0.000619179
0.000607007
0.000620871
0.000616799
0.000635851
0.000688071
0.000639219
0.0006891
0.00072904
0.000790203
0.000796169
0.000803969
0.000874565
0.000874745
0.000862456
0.000927319
0.000807528
0.000648359
0.000624012
0.000910843
0.000824956
0.000302721
0.000279392
0.000150372
0.000327425
0.00014543
7.87956e-05
2.6588e-05
0.000293129
0.000316325
0.000192633
0.00012078
0.000355348
0.000385328
5.52443e-05
4.49685e-05
0.000411569
8.81808e-05
0.00035931
6.40543e-05
0.000107028
0.000127934
0.000153249
0.000137704
0.000206891
0.000157461
0.00011521
9.9196e-05
0.000263111
0.000205207
0.000112236
6.50169e-05
0.000182557
4.37382e-05
0.000187693
8.52635e-05
2.90005e-05
4.48575e-05
0.000139575
0.000216918
0.000119107
0.000181144
9.28727e-05
0.00014265
0.000117875
0.000206182
0.000262217
0.000151792
0.000196978
0.00026247
0.000237221
0.000300958
0.000299162
0.000275401
0.000230013
0.00036802
0.000343305
0.000386137
0.000412232
0.00040204
0.00041053
0.000423918
0.000396874
0.000421919
0.000393099
0.00045094
0.000413897
0.000460991
0.000421423
0.000424839
0.000460274
0.00046375
0.000430449
0.000454759
0.000476241
0.000463147
0.000550559
0.00064095
0.000503927
0.000517558
4.89184e-05
2.12028e-05
4.18267e-05
2.6664e-05
0.000128846
0.000448071
0.000178774
0.000145583
0.000386051
0.000406965
0.000194256
0.000221934
0.000106014
0.00020444
0.000144116
0.00023125
0.000238036
0.000152729
0.000379539
3.66716e-05
6.51241e-05
0
3.13791e-05
1.95372e-05
2.49937e-05
3.36601e-05
5.22598e-05
8.73887e-05
6.62681e-05
0
0
0
0
0
0
2.38778e-07
0
0
0
0
0
0
1.67258e-06
0
0
0
0
0
0
0
0
0
0
0
0
0
0
0
0
0
0
0
0
0
0
0
0
0
0
0
0
0
0
0
0
0
0
0
0
0
0
0
0
0
0
0
0
0
0
0
0
0
0
0
0
0
0
0
0
0
0
0
0
0
0
0
0
0
0
0
0
0
1.46472e-11
0
0
0
0
0.000961155
0.00108976
0.000917345
0.000411224
0.000179787
0.000683997
0.000639363
0.000557455
0.00111368
0.00118002
0.00112335
0.00110575
0.000388549
0.000769342
0.000300684
0.000323797
0.000253112
0.00034119
0.000230659
0.000202209
0.000252516
7.48573e-05
0.000184861
0.000270058
0.000212473
0.000215087
0.000190801
0.000149574
0.00017629
0
0
0
0
0.000158714
0.000121231
0.000218887
0
0
0.000168341
0.000118886
0
1.05188e-05
0
0
8.80631e-05
9.69829e-05
4.58904e-05
4.46436e-05
4.15196e-05
1.72026e-05
9.31271e-05
4.83992e-05
7.18474e-05
0.00040829
0.000518995
0.000470132
0.000292844
0.000103303
0.000249477
5.4936e-05
0.000215849
0.000179012
0.000356208
0.000198122
0.000290488
0.000275234
0.000279882
0.000139675
0.000127279
0
0
0
0
0
0
0
0
0
4.945e-06
0
4.73079e-05
0
0
0
0.000248579
0.000106314
8.86535e-05
0
0
0.000102666
0
0
0
0
0
0
0
0
0
0
0
0
0
0
0
1.91868e-09
0
6.03072e-10
0
0
0
0
1.07777e-06
2.51853e-07
0
0
0
8.02111e-06
1.83124e-05
0.000127594
0
0
0
0
0
0
0.000148435
0.000133565
0.000157266
0.000155161
0.00012523
0.0001338
0.000115563
0.000101083
0.000102426
0.000101184
8.50069e-05
9.50064e-05
8.74448e-05
0.000106301
7.81444e-05
9.61647e-05
8.66468e-05
5.8548e-05
0.000123086
0.000121014
3.91483e-05
0.000291824
0.000317184
0.000236975
0.00023503
0.000214937
0.000261915
0.000270197
0.000246963
0.000149666
0.000123975
0.000202119
0.000178595
6.54254e-05
0.000118466
0.000123831
0.000113922
0.000155152
0.000176165
0.000130546
0.000135244
0.000405658
0.000264735
0.000376848
0.0011785
0.000837245
0.00186335
0.000350411
0.00164281
0.00139844
0.000612727
0.000643241
0.000548688
0.000706836
0.000501662
0.000509316
0.000493385
0.000505513
0.000505227
0.000472125
0.000962434
0.000635216
0.0005624
0.000551142
0.000535606
0.000547
0.000522151
0.000520791
0.000504743
0.000451314
0.000460639
0.00045359
0.000467693
0.000443465
0.000449094
0.000444186
0.000630794
0.000657437
0.000564884
0.000620327
0.000735348
0.000744911
0.000732209
0.000745082
0.000684476
0.000686983
0.000627508
0.000611487
0.000607124
0.000618329
0.000625677
0.000620906
0.000595801
0.000577978
0.000559207
0.000558643
0.000596971
0.000576928
0.000338122
0.000385022
0.000424641
0.000367316
0.0003655
0.000437913
0.000394467
0.000460688
0.000331065
0.000313256
0.000332454
0.000320012
0.000297712
0.000286186
0.000333969
0.00063989
0.00059092
0.000595394
0.000575892
0.000577145
0.000568432
0.000543029
0.000569444
0.000619808
0.000584397
0.000679703
0.000706881
0.000805579
0.000712506
0.000801714
0.000806604
0.000860569
0.000859925
0.000877153
0.00089445
0.0009333
0.00092759
0.00062443
0.00065936
0.000960957
0.000827999
0.000330448
0.000230442
0.000124936
0.000268594
7.43345e-05
3.32671e-05
0.000287284
0.000138923
0.000146471
0.00023827
0.000255503
4.3098e-05
0.000226409
0.000254697
0.000406187
0.000223133
0.000243373
0.000116243
0.000234379
0.000132567
0.000237996
0.000134188
0.000263163
0.000152123
0.00016027
0.000156138
0.000151654
0.000219835
0.000123323
0.000270455
0.000224712
1.35421e-05
0.000105731
0.000104165
7.14676e-05
5.67591e-05
3.05372e-05
0.000107224
4.62261e-05
0.000218778
8.68065e-05
0.000174724
7.32168e-05
0.000181995
0.000198744
0.000185959
0.000194233
0.000173395
0.000235245
0.000225968
0.000311896
0.000319934
0.000259466
0.000299785
0.000362871
0.000376481
0.000394566
0.000378936
0.000413202
0.000383888
0.000407295
0.000376773
0.000426074
0.000394637
0.000400651
0.000445978
0.000391131
0.000436772
0.000434108
0.000385571
0.000421461
0.000400832
0.000406042
0.00044443
0.000505875
0.000430466
0.000519667
0.000468138
3.06935e-05
6.65618e-06
3.34027e-05
2.91556e-05
3.00345e-05
4.17092e-05
3.33004e-05
0.000202619
2.1476e-05
0.000356048
0.000231626
0.000141252
0.000210234
0.000229762
0.000159026
8.04955e-05
0.000279671
0.000371926
0.000249849
0.000465207
0.000249235
0
0
0
0
0
2.7232e-05
0
0
0
0
0
0
0
0
1.36114e-07
0
0
0
8.90501e-07
0
0
0
0
0
0
0
0
0
0
0
0
0
0
0
0
0
0
7.17341e-07
0
0
0
0
0
6.33212e-10
8.8899e-10
1.39414e-09
0
0
0
0
0
0
0
0
0
0
0
0
0
0
0
0
0
0
0
0
0
0
0
0
0
0
0
0
0
0
0
0
0
0
0
0
0
0
0
0
0
3.0588e-09
0
6.36649e-10
0
2.16443e-09
0
0
0
0.000670313
0.000869283
0.000978223
0.00110341
0.000987874
0.00109633