/*--------------------------------*- C++ -*----------------------------------*\
  =========                 |
  \\      /  F ield         | OpenFOAM: The Open Source CFD Toolbox
   \\    /   O peration     | Website:  https://openfoam.org
    \\  /    A nd           | Version:  8
     \\/     M anipulation  |
\*---------------------------------------------------------------------------*/
FoamFile
{
    version     2.0;
    format      ascii;
    class       surfaceScalarField;
    location    "20340";
    object      phi;
}
// * * * * * * * * * * * * * * * * * * * * * * * * * * * * * * * * * * * * * //

dimensions      [0 3 -1 0 0 0 0];

internalField   nonuniform List<scalar> 
788991
(
-0.0545658
-0.0472549
-0.0394761
-0.0595042
0.0651125
0.00161334
-0.0520094
-0.000497543
-0.0417741
0.0717124
-0.0310271
0.030833
-0.00579305
-0.0272641
-0.0320117
-0.0509648
-0.0186452
-0.0409323
-0.0215512
0.0448288
-0.00188394
0.020839
-0.0370439
-0.0256345
-0.00842024
0.0645495
-0.0622075
0.0228912
-0.000598872
0.0278239
0.041192
0.0287594
0.0217409
0.0249477
0.0763843
-0.00275913
0.00574921
-0.0163496
-0.0386889
0.0115162
-0.0945234
0.0616711
0.0380423
-0.0372591
0.0791011
-0.0217308
-0.0228987
0.0955048
-0.0448375
0.0415602
-0.196507
0.00106494
-0.021043
-0.0151833
0.0668855
-0.00110138
0.0536913
-0.00821097
0.0226896
0.0583628
-0.0300743
-0.0569723
-0.0768419
-0.00423244
-0.0312982
0.00782847
-0.00832046
-0.0987424
0.0495101
-0.0117336
-0.0616023
0.0238816
0.0041679
0.0402343
-0.00556406
-0.0232562
0.0376974
-0.082336
-0.00497314
0.00265957
0.0777077
-0.0755229
0.0308002
0.00391703
-0.00666072
0.0209359
-0.00608047
-0.0189572
0.0044757
0.0117092
0.00121344
-0.0295852
-0.0238924
-0.0370515
0.00922866
0.062618
-0.00699982
0.0409051
-0.0476203
-0.00163823
0.0277501
-0.00376825
-0.0758913
-0.0348021
-0.0104289
0.057655
0.00625181
0.0285339
-0.0403952
-0.00313851
0.0349355
0.00692846
-0.0737939
-0.0605302
9.54517e-05
0.0419577
-0.000842759
-0.044223
-0.0289202
0.0272491
0.000813553
6.92052e-05
0.0566683
0.0708929
-0.0492213
-0.0266458
-0.00769256
-0.0384504
-0.0433656
0.0228941
0.0274496
-0.0109777
-0.0583252
-0.0335412
0.0289397
-0.0208236
0.0500836
0.0332062
0.0141538
0.0270946
0.0200152
0.0125141
0.0422649
0.0301168
0.03751
-0.0422692
0.066177
0.0306267
0.00873512
0.037474
-0.00229857
-0.0251486
-0.0160039
-0.0020651
-0.0146519
0.00766979
-0.0175373
0.000376894
-0.00326105
0.0367504
-0.0338385
0.0457032
-0.00191413
-0.0383463
0.00388442
-0.0240157
-0.0178931
-0.00541658
-0.0226015
0.0105308
-0.00529193
0.022016
0.00148679
-0.00512281
0.003953
-0.00463603
0.003132
0.00326249
-0.0046262
-0.000410516
-0.00221981
-0.00366595
0.00677747
0.00694799
-0.00351463
0.00241697
-0.0100659
0.00911804
0.0126583
0.00847969
0.00680398
0.018717
0.0204394
0.0179315
-0.00888253
0.00415067
-0.0129478
-0.000188575
0.0268412
0.0115972
0.0286096
0.0383942
0.045866
0.00421667
0.0519823
-0.0238623
-0.00860052
0.0286169
0.032112
-0.0217953
0.024512
0.0259434
-0.0217362
0.0133562
0.00307161
-0.0288055
0.046884
0.0643345
0.0472838
0.000506207
0.0762206
0.0543553
0.00892485
-0.0623129
0.0599433
0.00897202
-0.0791743
0.0451678
0.00988926
0.0420492
0.0504788
-0.00544414
-0.0376924
0.0243849
-0.0132247
0.0472005
0.0049189
-0.00823744
-0.032925
-0.0149127
0.00227569
-0.0234827
-0.0164839
-0.0473056
0.0160277
-0.0196564
-0.0218811
-0.0108202
-0.0103485
-0.0357039
0.000458881
-0.0034022
-0.00904365
0.00241671
0.00126553
-0.00432484
-0.00479358
0.00596516
0.00729546
0.00427758
0.0123585
0.0176117
-0.00575417
0.00924224
0.0242463
0.0107634
0.0234278
0.0171766
-0.00897805
-0.0100317
0.0266068
0.0266806
0.0273053
0.0234088
-0.00888903
-0.00488944
0.0257556
0.0313753
0.0462349
0.0254959
0.00283362
-0.0359874
-0.0279095
0.0136605
0.0354822
-0.00564392
-0.0419075
-0.0722187
0.00117515
-0.0388026
-0.00542309
-0.0534603
0.096395
-0.0278844
0.0151275
-0.0277182
0.0421586
0.0330995
-0.0377867
-0.0283871
-0.0530361
-0.0406567
0.0573178
0.0246888
0.00100758
-0.0041169
-0.0255308
-0.0530051
0.0589928
0.00489985
-0.0379061
0.0420892
0.0189648
-0.0210419
-0.0360329
-0.0329372
0.0771312
0.0310324
0.0832885
-0.0191101
-0.00937589
-0.0516953
0.0416662
0.0258599
-0.0362758
-0.0328818
-0.00436646
0.0069988
-0.00535161
-0.0431994
-0.0446048
0.0161778
-0.0340548
-0.0328438
-0.0113323
-0.0625692
-0.0221522
0.0151237
-0.0813038
-0.0657827
0.0116489
-0.0400132
-0.0554283
-0.0226533
-0.0445854
-0.058544
-0.00955024
-0.00877533
-0.0411615
0.0358567
-0.0426564
-0.0509403
0.0179537
-0.015699
-0.0203405
-0.0294322
0.0776391
-0.0545843
0.055658
0.000468963
0.0295084
0.0467217
0.0582171
0.0137912
0.0379023
0.0329885
-0.0156394
0.0588354
0.0279026
0.0181971
0.0930387
0.0303466
0.0114143
0.0298032
-0.0104049
-0.0408083
0.0408953
0.0440668
-0.0183544
-0.0778301
0.0070271
0.00474723
-0.00302045
0.0310141
-0.0380692
-0.00668557
-0.0284647
0.0363431
-0.00827903
-0.0148995
0.0071417
-0.00218756
-0.0118055
0.00194525
-0.00638929
-0.00446232
-0.0011953
-0.00682964
-0.00319947
0.00722513
-0.011079
0.00050089
-0.0118851
-0.0151969
-0.000954927
0.0258496
0.0311908
-0.0444318
0.0441694
-0.0403109
0.00733466
0.00994435
0.0250724
0.0135113
-0.00242734
-0.0340008
0.0390191
-0.00833144
-0.0393258
0.0104496
-0.00418128
0.0102554
0.0241015
-0.0319076
-0.0012696
-0.0187464
0.00361264
0.022016
-0.0324859
-0.0209892
-0.0026265
-0.0315366
-0.0251684
-0.0178211
0.00427175
-0.0041416
-0.0433236
-0.00228155
0.0459871
-0.0438975
0.0117111
-0.0234609
-0.0705523
0.0554759
0.0535027
-0.0577632
0.0872874
-0.000852736
-0.0615693
0.0673266
-0.0063494
0.0327122
0.0742229
-0.0140711
0.0563912
0.0510537
0.0187227
-0.0694453
0.0234273
0.010411
0.041933
0.0379017
-0.00463285
0.0297984
-3.98249e-05
-0.00452019
0.0234886
-0.0164738
-0.0115696
-0.0218313
-0.0303105
-0.0390289
-0.0099011
-0.0248953
-0.0454636
0.0105411
-0.0158809
-0.0280618
0.00104737
-0.00594497
-0.0219808
-0.000177685
0.0015317
0.00442401
-0.00474939
0.00424084
0.0103855
-0.0065212
0.00990649
0.014939
-0.00775362
0.00924639
0.0182579
0.00234751
-0.0117911
0.0200985
0.017267
0.0317853
0.0169091
0.0191629
0.00214477
0.0173042
-0.0155586
0.0392493
0.0228699
-0.012468
0.0348898
0.0276009
0.0176694
0.0247646
0.0407443
0.0122728
0.0411787
-0.0485638
0.0450321
2.11546e-05
0.0407115
0.0291481
0.00319933
0.0511455
-0.01532
0.0346787
0.0392059
0.0124286
-0.0533856
-0.0219072
-0.0772452
-0.010457
-0.0752333
-0.0629839
0.0244667
-0.0639178
-0.0485328
0.0440658
0.0134055
-0.0188259
-0.0844605
-0.0319421
-0.0403021
-0.0186811
-0.00477405
-0.0026479
0.039565
0.0442619
0.00489121
-0.0295479
-0.0293856
0.0120264
-0.0323446
0.0168703
-0.0291469
-0.0605319
0.0388354
0.0220103
-0.0278219
0.0165555
0.0122118
-0.0425505
-0.0539015
0.0208485
-0.0338524
0.0533941
0.0112361
-0.0224188
0.0383894
-0.0360334
-0.016291
0.0368061
-0.0148938
-0.00414876
-0.102798
-0.0319421
0.0437146
-0.0246666
-0.0628881
-0.00314944
0.0130877
-0.0344102
0.0405974
-0.03994
-0.046239
-0.000490415
-0.0281698
-0.0146935
0.0124421
-0.0557418
-0.0217294
-0.00831767
-0.0220553
0.0185222
0.0107644
-0.0579291
-0.0479826
-0.00758409
-0.0402706
-0.0312547
0.0158531
-0.0315755
-0.0411928
0.0227823
-0.0333883
-0.040343
-0.00602716
-0.0243794
-0.0398507
0.00796655
-0.027716
-0.0358417
-0.0113025
-0.0264009
-0.0334987
0.00258888
9.57066e-06
0
1.73876e-05
0
0
7.59762e-07
1.02727e-05
-2.86974e-05
1.95509e-05
8.68015e-06
-2.04016e-06
-0.00303035
-0.0712723
0
0
0
0.020607
-0.00114994
-0.0880412
0.00744164
0.0499533
0.0340539
-0.0254604
-0.0195077
0.0654278
0.0235181
0.0118875
0.0541181
0.0516576
-0.00151556
0.0528116
0.043446
0.0172156
0.0345401
0.0269783
-0.0236467
0.0366287
0.0307149
-0.0263785
0.08811
0.0619544
0.0186873
-0.00141592
0.0316538
-0.0311889
0.0757075
0.0395435
0.0139839
-0.017124
-0.016263
-0.0262821
-0.0113224
-0.0216769
0.00687293
-0.0119508
-0.0141737
-0.00393044
-0.00760867
-0.00844464
0.00389524
-0.00604794
-0.00780539
-0.000745227
-0.00558062
-0.00307322
-0.00621923
-0.0162825
-0.00151713
0.01099
-0.0249809
0.00231705
0.022759
-0.0320116
-0.0438964
-0.00743872
0.00659349
-0.0403801
-0.040581
-0.022625
-0.00967444
0.0374075
-0.0128749
-0.0170959
0.00270838
0.0143501
-0.0117643
0.00775999
0.0211773
-0.0266117
-0.00374847
0.0208618
-0.0311914
0.00599969
0.0344167
-0.017969
0.00332201
-0.0226564
-0.0581993
-0.018571
0.0401386
-0.0118733
0.0358904
0.0391994
0.0168294
-0.0648571
-0.0184763
0.0455928
-0.0479295
-0.00720533
0.0351149
-0.0527953
-0.0206525
0.0298127
-0.00405142
-0.050459
-0.0363954
-0.0333536
0.00712572
-0.06716
0.0408171
-0.0196856
-0.0626787
0.0390184
0.0469864
-0.0445387
0.0350516
-0.00861953
-0.0523776
0.0449237
0.0177793
0.062768
0.0557177
0.0112604
0.036438
0.045348
0.00371582
-0.0302567
0.0188088
0.00480296
-0.0263395
0.0112412
-0.00445054
0.0214638
-0.0170071
-0.00827329
-0.010857
0.000373715
-0.0270139
-0.0125223
-0.0370341
-0.0405034
-0.0113474
-0.0250358
-0.0541392
-0.00157687
-0.0163397
-0.0192366
0.00879956
-0.00246784
-0.014169
-0.00768674
0.00194051
0.00038599
-0.00523876
0.00343668
0.0127485
-0.00368205
0.00246422
0.0117059
0.00576015
0.00697418
0.0104267
-0.0137828
-0.000168216
0.014259
-0.00814208
0.023046
0.0231993
0.0121687
0.0185661
0.011875
0.0179127
0.0424748
0.0274358
0.014992
0.0430268
0.0214114
-0.0130506
0.0286572
0.0382052
-0.0120479
0.0401956
0.0440031
0.000931311
0.0378059
0.0343251
0.00246738
0.0550063
0.0439662
-0.00874389
0.0581903
0.0455243
0.011407
0.0630564
0.0512649
0.0408061
0.00964396
-0.0249747
-0.0302885
0.0168836
0.0032164
0.103184
0.00505633
-0.0798921
0.0329009
0.00500462
-0.0375011
0.069697
-0.0474799
-0.00849343
-0.0492363
0.00633713
-0.0519811
0.0173927
-0.0275721
-0.0452734
-0.00836422
-0.0267369
-0.0370224
0.00105923
-0.0230377
-0.0203652
-0.00740741
-0.0354825
0.0227011
-0.0127824
-0.0383478
0.0131471
0.0257867
-0.0301655
-0.0561725
0.0197871
-0.0224809
0.0342655
0.0139731
-0.0100789
-0.0393096
0.0116368
0
-0.0357738
-0.0459527
-0.00278401
-0.0102032
-0.126809
-0.0279383
-0.0458391
0.00500077
-0.0892283
0.0382596
0.0435738
-0.0487
0.0447783
0
0
0
0
0
0
0
0
0
-2.54068e-05
0
-1.2699e-05
0
-1.12929e-06
-1.86581e-06
-1.70657e-06
1.85193e-05
-2.18014e-05
5.78727e-06
0
0
-3.23506e-07
0
0
0
0
0
0
0
0
0
0
0
0
0
0
0
0
0
-0.00891398
0.0238708
-0.00246122
0.011302
-0.00232748
0.00582555
-0.0100068
0.00640559
-0.0188654
-0.0392195
-0.0336599
-0.00465788
-0.0192968
0.000315807
0.0118621
-0.0459693
-0.0408876
-0.00337633
-0.0427909
-0.0489063
0.0129506
-0.0293599
-0.02942
-0.029988
-0.0426056
-0.0381465
-0.0180144
-0.0305748
-0.0273216
-0.0190462
-0.0333046
-0.00826806
-0.0291149
0
2.05928e-05
0
0
0
0
0
0
0
4.16605e-06
0
0
0
0
0
0
0
0
0
0
0
0
0
0
0
0
0
0
0
0
0
0
0
0
0
-0.0063311
-0.0165736
-0.0185114
0.0368033
0.0213976
-0.0185508
0.0362277
0.00709383
-0.019488
0.0567715
0.0342508
0.00733514
0.0670631
0.0452261
-0.0145754
0.0640603
0.0429304
0.0246272
0.0652874
0.0516496
0.0306569
0.0476283
0.0431915
-0.00493131
0.0549233
0.0257173
0.0030615
0.0392533
0.030738
-0.00214631
0.0318658
-0.00438566
0.0122285
-0.0323977
0.00144896
-0.0125967
1.85904e-05
0
0
-1.6372e-05
-1.79423e-06
0
0
2.18442e-05
0
0
0
0
0
0
0
0
0
0
0
0
0
0
-0.0232995
-0.0178677
0.0134362
-0.0146191
-0.0135257
0.0124044
-0.00816946
-0.00833421
-0.00296745
-0.00481654
-0.00663315
-0.00129269
-0.00616997
-0.00266739
-0.0036243
-0.0172371
-0.00306015
0.00385754
-0.0345735
-0.00488323
-0.0287518
-0.0362628
0.000564367
0.0400797
-0.0414452
-0.00592356
0.0380409
-0.049756
-0.00674859
-0.0379501
-0.0194941
-0.00219682
-0.0190539
-0.0272194
-0.00539054
0.0206964
-0.0189794
-0.00353747
-0.00768781
-0.0305293
-0.00673104
0.0169019
-0.029786
-0.00333866
-0.0256792
-0.0290513
0.00234848
0.0340059
-0.0118258
0.0626455
0.0471507
-0.00908938
0.0516538
-0.0144564
-0.0677188
-0.0532162
0.0521625
-0.00799841
0.0601282
-0.0111859
0.0527231
-0.0661748
-0.0214555
0.0398146
-0.0688995
-0.0169736
0.0504244
-0.0538637
-0.0183758
-0.0283074
-0.065899
-0.025104
-0.0371768
-0.0181949
-0.0545875
0.0281305
-0.0114687
-0.0243329
0.0305396
0.00314561
0.0112019
-0.0114931
-0.0681228
0.0455666
-0.0668634
0.0681179
0.0204297
0.0530454
0.0670417
0.0130148
-0.0494192
0.0481954
0.0189499
-0.0376199
0.027984
0.0209246
-0.0155455
0.0102512
0.0192887
-0.00387837
-0.00324922
0.01291
0.00059215
-0.0211467
-0.00647994
-0.00314517
-0.0175583
-0.0360643
-0.00553938
-0.0311449
-0.0449247
-0.00679134
-0.0268218
-0.0177491
-0.00409569
-0.0113731
-0.0335361
-0.00810938
-0.00350495
-0.00660796
-0.00249308
0.00401272
-0.00401962
-0.00559886
0.00210331
0.00178707
0.0051165
0.0048155
0.00833998
-0.00651758
0.00344203
0.0173729
0.015381
0.0139034
0.0171962
0.0231459
0.0250878
0.027862
0.0190484
0.0226461
0.0153815
-0.00839625
0.0435848
0.0241119
0.0111993
0.0360565
0.0277714
0.0136489
0.0347996
0.0406444
0.0094814
0.0430776
0.046009
0.00180335
0.0403805
0.0407837
0.00240751
0.0548581
0.0457121
-0.00326353
0.056794
0.0492262
-0.0130439
0.0594814
0.0427941
-0.00979318
0.0578552
0.0466427
0.00547855
0.0557112
0.0522084
0.0495086
-0.00153911
-0.00217183
-0.00308268
0.0589328
-0.0595532
0.0561758
0.0566472
0.0613292
0.0541272
0.0594465
0.0050951
0.0582668
0.0017736
-0.0622095
0.0597676
0.00528473
0.0588906
0.000533875
0.0627385
0.0600143
0.00419651
0.0572801
-0.00153317
0.0615275
0.0590093
-0.00370682
-0.0578341
0.00215538
0.0671001
0.0586834
0.00853678
0.0643367
0.00648547
0.0756127
0.0648646
0.013004
0.0689208
0.00882547
-0.0812472
0.075727
0.017191
0.0144085
0.0664799
-0.0835803
0.0841532
-0.0220596
-0.0273272
-0.0470473
0.0319441
0.00190806
-0.0544618
-0.0533728
-0.0050383
-0.0728319
-0.0589816
0.0152653
-0.0577493
-0.0296853
0.0138491
0.00552844
-0.0230322
0.0213003
-0.0287281
-0.00811992
0.00430708
0.00742005
-0.0166687
-0.0267086
-0.0094326
-0.013561
-0.012206
-0.0131255
-0.02204
0.0110755
-0.0107065
-0.0274148
0.00540463
-0.013114
-0.0271313
-0.00101362
0.0251075
-0.00885853
0.0231457
0.0293698
-0.00487371
0.0353406
0.00657521
0.00244917
0.0154713
-0.0176138
0
0
0
0
0
-0.048832
0
-0.00618667
0.0224385
0.0336536
-0.00285756
0.0266547
-0.000670393
-0.0357752
0
0
0
0
0
0
0
8.31994e-05
1.71386e-05
0
0
0
0
0
0
0
0
0
0
0
0
-3.31165e-05
0
0
0
0
0
-3.82952e-07
1.98161e-06
0
-5.10883e-06
0
-3.99311e-06
0
0
0
-4.35373e-06
0
0
0
2.43621e-05
-3.17039e-06
4.5485e-05
1.96633e-05
8.73914e-05
-4.27861e-05
2.61945e-06
0
3.2606e-05
-0.000117734
0
-5.47407e-06
0
-7.31564e-05
0
0
0
0
0
0
0
0
0
0
0
0
0
0
0
0
0
0
0
0
0
0
0
0
-0.00705913
0.00256637
0.0153083
0.016359
-0.0485311
-0.00228818
-0.0306202
-0.0424466
-0.0197046
-0.0558201
-0.0162978
0.00173499
-0.0417727
-0.0432631
0.032202
-0.0303953
-0.0227119
-0.00620008
-0.0365084
-0.0232271
0.00399774
-0.0384814
-0.0337431
0.0184461
-0.0263679
-0.0471365
-0.036332
-0.0138741
-0.0371497
-0.0391639
-0.0199069
-0.00354215
-0.019718
0
0
0
-2.66719e-05
2.54077e-05
5.34118e-05
0
0
0
0
0
0
3.94919e-05
0
-1.45727e-05
0
0
0
0
0
0
0
0
0
0
0
0
-0.0176927
0
0.0608101
-0.0148044
0.055629
-0.0300181
0.0304896
0.0193431
-0.0183997
0.037926
0.0151799
0.012165
0.0631242
0.0295567
-0.0204205
0.0623235
0.0431605
0.0235233
0.0552999
0.0370156
-0.00433661
0.0674928
0.0070181
0.00152308
0.00757224
0.0383134
-0.0270665
0.0155198
0.0280274
-0.0129141
-0.0114805
0.0240131
0.0121672
-0.046516
0.0426496
0.0174205
0.0276028
0.0288794
0.0077614
0
0
0
0
0
0
0
-4.44339e-07
0
2.41877e-07
0
-3.78836e-07
-9.16284e-08
0
0
0
0
0
0
0
0
0
0
0
0
0
0
0
0
0
0
0
0
0
0
0.00492286
0.0326789
-0.00534768
-0.0275146
-0.0153079
-0.0187175
-0.0179961
-0.0104574
-0.0135489
-0.00796268
-0.00798128
-0.00537398
-0.0041201
-0.00372226
0.00374179
-0.00488582
-0.00329984
0.000997057
-0.00976943
-0.00783713
0.00497637
-0.0364861
-0.00769591
-0.0291973
-0.0471179
-0.00334675
0.0430467
-0.0483354
-0.00522428
-0.0401385
-0.0532501
-0.016167
0.0314203
-0.0244239
-0.00371743
0.0237804
-0.0311076
-0.0118463
-0.0201245
-0.0180867
-0.012855
0.00208542
-0.0249752
-0.0126152
-0.00999363
-0.0308006
-0.00437016
0.0272546
-0.0312163
-0.0020578
-0.0311029
-0.00748963
-0.0615985
-0.0535853
-0.0124385
-0.0631762
-0.0523079
-0.0134971
-0.0669434
-0.0519996
-0.062952
-0.0103572
-0.052248
-0.00275769
-0.0627053
0.0624766
-0.0062277
-0.065297
-0.0595873
-0.0654395
-0.00383457
-0.0643944
-0.0661809
-0.00646333
0.065517
-0.0666268
-0.00455852
-0.0671033
-0.0712169
-0.000532375
-0.0756081
-0.0732593
0.0025449
0.0784466
-0.0695142
0.0064239
0.0775767
0.0201824
0.0877898
-0.0280623
-0.0575344
0.0811066
0.0114133
-0.0614162
-0.0750523
-0.0718669
-0.0250854
-0.0508162
-0.0673581
-0.0182433
0.0511751
-0.0663927
-0.024071
-0.0340992
-0.0757419
-0.0476784
-0.0259572
-0.0255874
-0.0672037
0.0283779
0.00997271
0.000724785
-0.0186682
0.0608359
-0.011617
-0.0560473
0.00923567
0.0804942
-0.0266708
0.0646489
0.00984447
0.0415207
0.0531885
0.0202736
-0.0309273
0.0403638
0.0226951
0.0154026
0.0157781
0.0261925
0.00594644
0.00623933
0.0200411
-0.0121557
-0.00877584
0.0201867
0.0117107
-0.0226379
0.00225524
-0.0159733
-0.0295936
-0.033758
0.00976022
-0.0361184
-0.0226615
-0.0126966
-0.0129603
-0.0289297
-0.0140548
-0.0186374
-0.00387433
-0.00551095
-0.00674641
-0.0291501
-5.91107e-05
0.00317225
-0.0102962
-0.0056099
0.00281879
0.00201155
-0.00310367
0.00681077
0.00347121
0.0175479
0.0105678
0.0169268
-0.0133384
0.0122245
0.0260058
0.0163702
0.0328825
0.0250381
0.00705128
0.0217648
0.0179711
-0.0154024
0.0408022
0.0278658
-0.0080823
0.0395803
0.0329444
0.0104583
0.0358362
0.0446079
0.00474817
0.0479728
0.0497688
-0.00312427
0.0468583
0.0462212
-0.00201717
0.0513367
0.0498292
-0.00581647
0.0525335
0.0427559
0.0113135
0.0546185
0.0435942
-0.00740098
0.053743
0.0486677
-0.00232141
-0.0030302
0.0526209
0.0534645
0.0541476
0.0559922
-0.00599931
0.0520316
0.0590978
0.00562227
0.0526499
0.0570895
0.00609739
0.0519099
0.0597828
0.00576618
0.0509546
0.0580498
0.00654503
0.0523642
0.0583948
0.0123455
0.0595292
0.0654962
0.0181105
0.0643275
0.0773702
-0.022848
0.062776
0.0860232
0.0288059
0.0538423
0.0857819
0.0908847
0.0356047
0.0515975
0.0321406
0.0857342
0.0888704
-0.0389398
-0.0440555
0.0341837
0.0807969
0.0395369
0.0886527
-0.0449389
-0.0221858
0.00531985
0.0167318
-0.0227919
-0.0241118
-0.00083392
0.0126647
-0.0107143
0.00409796
0.0266319
0.0120748
0.0059488
0.00468701
0.00295515
-0.0129034
0.0187979
-0.0162565
-0.0300892
-0.0224377
-0.021648
-0.00133086
-0.00904997
-0.00358698
-0.00430635
-0.0169413
-0.00604655
-8.78522e-05
-0.0182683
-0.0118826
0.00277529
-0.0113188
-0.0106461
-0.00571083
-0.0136563
-0.00948187
0.000585256
0.0466542
-0.00933507
-0.00783769
0.0251205
0.0611749
-0.00687026
0.00201115
0.0215854
-0.00281202
0
0
0
0
0
0
-0.0572524
0
0
-0.00565692
0
-0.030313
0.0263263
-0.00540671
-0.0407411
0
1.01553e-05
0.000115832
0
0
0
0
5.96998e-05
0
0
0
0
0
0
0
0
5.75774e-09
-5.1317e-07
0
0
0
0
0
0
0
0
0
0
-4.41566e-05
0
0
0
0
-8.13015e-05
0
0
-0.000196607
0
0
0
0
0
0
0
0
0
0
0
0
0
0
0
0
0
0
0
0
0
0
0
0
5.1924e-07
0
0
0
0
-0.0523511
-0.0684672
0.0171989
-0.0221574
-0.0558151
0.00265501
-0.000534194
0.00500098
-0.0432915
-0.0214748
-0.0190299
0.0157279
-0.0233856
0.0133306
-0.0297719
-0.0515861
-0.0372447
0.00602725
-0.0389435
-0.0256746
0.0478133
-0.0309317
-0.0365424
0.0185486
-0.0197967
-0.0452695
-0.00975147
0.018694
-0.0376675
-0.0104389
0.00536477
-0.0289327
-0.035425
-3.24494e-05
0
-8.7774e-06
6.3499e-05
-1.21284e-05
-1.07876e-06
0
0
0
0
0
0
0
0
0
0
0
0
0
0
0
0
0
0
0
0
0
-0.0733595
0
0.0561723
0.0207018
0.00325926
-0.0237895
0.0337787
0.00511189
0.0143213
0.0498573
0.00625633
-0.0133949
0.0645052
-0.0250281
0.033874
0.0548269
0.041414
0.0267602
0.0255122
0.0536321
-0.0375886
0.0465552
0.0644101
-0.0118025
0.0564063
0.0483126
0.0113851
-0.00133747
0.06065
-0.00245509
0.0243249
0.0220717
0.00695221
0.0046657
0.0166485
0.0395427
0.0114191
0.0401403
-0.00910214
0
0
0
0
0
0
0
0
0
0
2.74477e-07
0
0
0
0
0
0
0
0
-0.0075551
0
0
0
0
0
0
0
0
0
0
0.00365442
0
0.00282317
0
0
0
0
0
0
0
0
0
0
-0.00658657
0
-0.0296058
-0.0141564
-0.0200543
-0.0191031
-0.00845747
0.0137051
-0.0110538
-0.00612312
-0.010794
-0.00593035
-0.00330001
0.00790954
-0.0366352
-0.0159991
-0.031954
0.0178759
-0.00434556
-0.00754407
-0.00179295
-0.00823641
-0.0162168
-0.00528136
-0.0445313
-0.0123863
-0.0303254
-0.0541181
-0.00788698
0.0416522
-0.055321
-0.0123855
-0.0374067
-0.0587533
-0.02153
-0.0347193
-0.0296278
-0.00897478
-0.0221923
-0.039815
-0.0163132
0.0233116
-0.014057
-0.0208744
0.00242836
-0.0233639
-0.0160151
0.0153846
-0.0300864
-0.00383508
-0.0248748
-0.0332514
-0.00471863
0.0254662
-0.00162466
0.00172875
0.0558038
-0.0622383
0.0468291
-0.0546245
0.00715106
0.0575639
0.0654955
0.0522306
-0.0715304
0.0817522
-0.0720012
-0.0135271
0.0646527
0.0609667
-0.029852
0.0377551
0.0831762
-0.0428789
0.0717994
-0.0356904
0.074449
-0.0479985
0.0415875
0.0778539
-0.0355559
0.0838651
-0.0489957
0.044627
-0.0846661
0.0901188
-0.0665284
-0.046067
0.0430304
0.0758171
-0.0546268
0.0246299
0.0818547
-0.0473065
0.0277727
-0.0790421
-0.0331534
0.0326985
0.0699904
-0.0126673
-0.0652376
-0.053934
-0.0136519
-0.0652762
-0.0548244
-0.017697
-0.0677567
0.0530238
-0.0651398
-0.0161992
-0.0507191
-0.00703114
-0.0669328
0.0633083
-0.0121569
-0.0719953
0.054209
-0.0722087
-0.00480617
0.0678475
-0.0719515
-0.00939106
0.0683775
-0.0754456
-0.00658066
0.0721967
-0.0763322
-0.004082
0.0746061
-0.071567
-0.00193062
0.0717092
-0.0648322
0.00148157
0.068652
0.0155416
-0.0578749
0.0764925
0.00604755
-0.0616716
0.0704687
-0.0191694
-0.0688806
-0.0491681
-0.072634
-0.0168752
-0.0689757
0.0489568
-0.0700719
-0.0201549
-0.0496883
-0.0361941
-0.0530303
0.0172933
-0.0314747
-0.0583128
-0.0233235
0.0414847
0.0479412
0.0898485
0.0450746
0.0266514
0.0846584
-0.0483615
0.0331938
0.0759223
0.0534147
0.0254503
0.0859676
0.0583042
-0.00441757
0.0863083
0.061104
-0.00703075
0.062398
0.0743832
0.00320402
0.0570934
0.0819861
0.0850635
0.00267455
0.0821599
0.0850395
0.0053238
0.0101974
0.0346613
0.0273351
0.0283766
-0.0237709
0.0700887
0.0414568
-0.0443648
0.0545634
0.0268471
-0.0317184
0.0475491
0.0291502
0.019153
0.0302888
0.0297402
-0.000126631
0.0120746
0.0253986
-0.0205926
0.0049345
0.0272683
0.0305749
-0.0149604
0.0278804
-0.0246295
-0.0163342
0.00627
-0.0404248
-0.0402861
-0.0376559
0.025435
-0.0187716
-0.00993159
0.0191869
-0.0262048
-0.00171621
0.00171009
-0.0151499
0.00284054
-0.0265003
-0.0141076
-0.0186686
0.0103841
-0.00471016
-0.0311723
0.00177323
0.00196077
0.00202338
0.00878129
0.00254761
0.0117647
-0.0149675
0.0114979
0.00859838
-0.0230793
0.011332
0.0223069
-0.00778011
0.0228064
0.0242438
0.00714392
0.0243023
0.022305
0.0113118
0.0399376
0.0342317
-0.00992688
0.0356579
0.0304073
0.0100575
0.038136
0.040737
0.00902223
0.0488916
0.0515687
-0.0056732
0.0411533
0.0384934
-0.00506287
0.0521878
0.044905
0.00659282
0.054392
0.0420122
-0.00774779
0.0554008
0.0492503
-0.00631493
0.000252181
0.0516847
0.0508138
0.0542935
0.0485486
-0.00567256
0.048468
0.0574579
0.00711616
0.0482092
0.0550733
0.00644386
0.0493324
0.0555554
0.00819224
0.0486037
0.058324
-0.00811581
0.0474475
0.0571947
0.00943713
0.0485098
0.0574918
-0.0155652
0.0553349
0.0644406
-0.0220678
0.0603309
0.0778588
0.0272516
0.0580793
0.088246
-0.0345659
0.0490401
0.0928502
-0.0412561
-0.0440202
0.0890383
-0.017049
-0.0236873
0.00670908
0.00985203
-0.0416071
-0.00518743
-0.0112756
-0.0504255
-0.0238768
-0.0280749
-0.0203994
-0.0148808
0.00728455
0.0115336
-0.0155294
-0.0326972
0.0121304
-0.013161
0.0240731
0.0358622
-0.011371
-0.0279649
-0.0212581
-0.0201594
-0.0103373
-0.0141765
0.00237427
0.0240126
-0.0231824
0.0152899
-0.0190846
-0.0175203
0.00658423
-0.017832
-0.00708853
0.00372632
-0.00541197
-0.0492163
0.00248549
0.0315044
0.0614981
0.0486428
0.081671
0.0370505
0.0348228
0.0367739
-0.00448802
-0.0216567
0.0198085
-0.0407143
0
0
0
0
0
0
0
0
0
0
0
0
-0.0139046
0
-0.0304987
0
0
0
0
0
0
0
0
0
0
0.00323427
0.00205662
0
0
0
0
0
0
0
0
0
0
0
0
0
0
0
0
0
0
0
-6.75083e-06
1.27041e-05
0
0
0
0
-0.000107285
4.52895e-05
0
0
0
0
0
0
0
0
0
0
0
0
0
0
0
0
0
0
0
0
0
0
0
0
0
0
0
7.6911e-06
0
-3.47553e-05
0
0
0
-6.09324e-06
0
1.34969e-05
0.0703881
0.0690281
-0.066157
0.00264782
0.0827461
-0.0812126
0.074042
-0.00915678
0.0523292
-0.0292935
-0.0139552
0.0353913
0.0232428
0.0243514
-0.0368566
-0.0271146
-0.00614159
-0.0414449
-0.00934012
0.030497
-0.0319493
-0.0171401
-0.0443396
-0.0298131
0.0127789
0.00579091
-0.0606021
-0.0431702
0.0540054
-0.0380419
-0.0187058
-0.0223876
-0.0235634
-0.0154793
0.0203126
-0.00819221
-0.00962181
1.39097e-06
0
0
0
0
0
0
0
0
0
0
0
0
0
0
0
0
0
0
0
0.0516174
0.0597176
-0.022942
0.0352792
0
0
0
0.00519575
0.0302149
0.0245305
0.000502693
0.0315202
-0.0148819
0.0161656
-0.0215179
-0.0128013
0.0354837
-0.0160363
0.00970378
0.0173397
0.0210572
0.0638428
0.042386
-0.00734201
0.0547771
0.0229646
-0.00798161
-0.0675896
-0.042151
0.0290428
0.0412358
0.0489971
0.0168555
0.0114636
0.0590006
0.0384695
0.0180467
0.0392094
0.0148115
-0.0130432
0.0363072
0.0120977
0.0440072
0.0119361
-0.00204249
0
0
9.01338e-06
8.86207e-07
0
0
0
0
0
0
0
0
0
0
0
0
0
0
0
0
0
0
0
0
0
0
0
0
0
0
0
0
0
0
0
0
0
0
0
0
0
0
0
0
0
0
0
0
0
0
0
0
0
0
-0.0321767
-0.0354944
-0.0183426
-0.0185628
-0.0243441
-0.0102984
-0.0172329
-0.0201842
-0.00759688
-0.0129422
-0.0178723
-0.00637818
-0.0124113
-0.0164064
-0.00823239
0.00913534
-0.0143507
-0.0248792
0.0170314
-0.0165953
-0.0151589
-0.00124361
-0.0162839
-0.0205663
-0.00247165
-0.0492337
-0.014372
-0.0305052
-0.0554551
-0.0105976
-0.0365018
-0.060723
-0.0163283
-0.0353709
-0.0589703
-0.0270817
0.0248403
-0.0380079
-0.0123414
-0.0218102
-0.0452082
-0.020895
0.0241785
-0.025738
-0.0220625
0.00790636
-0.0305302
-0.0178318
0.0237459
-0.0325267
-0.00743339
-0.0266181
-0.0374799
-0.00655969
-0.0216776
0.00119235
0.0425032
0.0541707
-0.0159448
0.056921
0.065714
-0.00117836
0.0577355
-0.0739489
0.00562571
0.0505275
-0.0795464
-0.0349399
0.0359465
-0.0752027
-0.040566
0.0370858
0.0800098
-0.0323834
0.0436912
-0.0784088
-0.0080722
0.0441614
-0.0610796
-0.0521557
0.0201806
-0.0772367
-0.0377032
0.0262566
0.0705159
-0.038598
0.0296616
-0.0721977
-0.0180092
-0.0665411
-0.0533694
-0.0182278
-0.0687912
0.0517323
-0.0184425
-0.0715645
-0.0496008
-0.0666066
-0.0206938
0.0455889
-0.0190466
-0.0730945
0.0729912
0.0473667
-0.0161493
-0.0684253
0.0494557
-0.00165579
-0.0792354
-0.071464
-0.0262961
-0.0743986
0.0560873
-0.080427
-0.0108222
0.071088
-0.079654
-0.0110492
0.0698991
-0.0746538
-0.0105501
0.0660854
-0.068108
-0.0086286
-0.063344
-0.0647398
-0.00355696
-0.0654677
0.0113471
-0.0568179
-0.073578
0.00275172
-0.0608642
0.0700536
-0.0648862
-0.0356764
0.0380572
-0.019328
-0.0687656
0.0481201
-0.0267899
-0.0723717
0.0523524
-0.0702702
-0.0214907
0.0480917
-0.0340874
-0.0732297
-0.0381234
-0.0318449
-0.0720238
0.0330005
0.0439013
0.0447167
0.0896558
-0.0476622
0.0372372
0.0893994
-0.0494056
0.0223835
0.0525865
0.0840992
0.0272246
0.0738104
0.0561
0.0241909
0.0868659
-0.0648923
-0.0118213
0.0849574
0.069231
-0.0216747
0.063717
-0.0746395
0.00175705
0.063041
0.0856916
-0.00614046
0.0828846
-0.0860677
0.0305109
0.0817183
0.0159027
0.0572121
-0.000674195
0.0676357
0.0871574
0.0971127
0.0196377
0.00213081
-0.0380834
0.0586681
0.0147784
-0.0408484
-0.0498169
0.0562576
-0.0340051
0.046794
0.0256229
-0.0221973
0.0381717
0.0344743
0.00615643
0.0231543
0.031351
0.0227912
0.00445581
0.0321013
0.0440944
-0.00345529
0.0398143
-0.0423385
-0.0290755
0.0409714
0.02547
-0.00357862
0.0048078
-0.0444913
-0.0432377
-0.0253129
0.0424584
-0.017641
0.0107386
0.00572159
-0.0106648
-0.025994
-0.00408637
-0.0174057
-0.0134068
6.7355e-05
-0.0196178
-0.0315293
0.0029241
-0.00873156
-0.011724
-0.0069411
-0.00751626
-0.0108119
0.017001
0.00290434
0.0117467
-0.0151123
0.0119849
0.0133834
0.0141545
0.00964076
0.0131103
0.00103374
0.0224723
0.0244783
-0.00100834
0.0149403
0.0115142
-0.0119675
0.0374479
0.0308839
0.00781127
0.0303553
0.0271507
-0.00809791
0.0346072
0.0392122
0.00516324
0.0424872
0.0453704
-0.00486266
0.0390503
0.0356459
0.00482842
0.0497389
0.0412502
-0.00521182
0.0539306
0.0432592
-0.00724199
0.00753527
0.0458224
0.046384
0.0541815
0.00809355
0.0458047
0.0563283
0.00957928
0.0436466
0.0537591
0.00992982
0.0446223
0.0518736
-0.0103313
0.0454686
0.053306
0.0120741
0.0460017
0.0554723
-0.011483
0.042588
0.055793
0.0131621
0.0431739
0.0540162
0.0192473
0.0507998
0.0613468
0.0258564
0.0565231
0.0765813
-0.032401
0.0540959
0.0890196
-0.0392686
-0.0456413
0.0943655
-0.0223899
-0.00841383
-0.0234889
0.00301605
-0.0240569
-0.0432017
-0.0179656
-0.0594675
-0.0483538
0.0160912
-0.00737813
0.0494116
-0.0677259
0.025476
-0.0678155
-0.0422689
0.0188692
-0.028712
0.0391753
0.0160768
-0.0246465
0.0318881
0.0400532
-0.0158888
-0.0491116
-0.0346729
-0.0570877
0.0305575
-0.0201313
0.0175901
0.0700323
-0.0330141
0.0397685
-0.0544476
-0.0284428
0.0241627
0.0406281
-0.0227617
0.0078085
0.0482889
-0.025317
-0.00828954
0.05362
0.0455516
0.0181841
0.045345
0.0614221
0.0641364
5.56758e-05
0.0573403
0.165287
-0.0754707
0.0610487
-0.1429
0
0
0
0
0
0
0
0
0
0
0.00365715
-0.00320535
0.0225816
0
0.00766365
0
0
0
0
0
0
0.00613396
0
-0.00215064
0
-0.00131042
0
0
0
0
4.53871e-06
0
-2.72431e-05
0
0
0
0
0
0
0
0
0
-1.01602e-05
-2.00336e-05
5.06024e-05
0
-1.56167e-05
0
-0.000112954
2.99981e-05
-8.85735e-05
0
-3.62674e-05
0
0
0
0
6.98391e-06
0
-5.25955e-05
0
-8.02832e-06
-1.5514e-05
0
0
0
0
0
0
0
0
0
0
0
0
0
0
0
0
0
0
0
0
0
-3.58576e-06
0
5.47258e-06
0
0
0
-3.51104e-05
0
0
0
0
0
0
0
0
0.0755614
0.0383236
0.069118
0.016891
0.0866461
0.0941178
0.00535819
0.0684897
0.063451
0.0803666
-0.0227716
-0.101925
0.0621447
0.00958503
-0.0516067
-0.0317061
0.0240034
-0.0162355
-0.0603914
0.0067635
-0.0247351
-0.00528392
-0.024948
-0.0214033
0.0025732
0.00682066
-0.0548025
-0.0171049
0.0532393
-0.027087
0.00169071
-0.0140498
-0.0458211
-0.0154493
-0.030304
-0.0383665
-0.0202068
0.0179752
-0.019346
-0.0228365
0
0
0
0
0
0
0
0
0
0
0
0.0499335
0.049737
0.0178699
0.0359755
0
0
0
0
0
0
0.0371661
0.0148802
-0.026293
0.0482747
0.0312945
-0.0109506
0.0228909
-0.0385341
0.018348
0.010751
0.0452294
-0.00705704
0.0323683
-0.00227605
-0.0257387
0.0148262
0.00739226
0.0227902
0.0285054
-0.050627
-0.00962697
0.0341556
0.0471815
-0.0206663
0.0317403
0.0572561
-0.0143003
-0.0299508
-0.0239201
-0.00161695
-0.0111013
0.0420996