/*--------------------------------*- C++ -*----------------------------------*\
  =========                 |
  \\      /  F ield         | OpenFOAM: The Open Source CFD Toolbox
   \\    /   O peration     | Website:  https://openfoam.org
    \\  /    A nd           | Version:  8
     \\/     M anipulation  |
\*---------------------------------------------------------------------------*/
FoamFile
{
    version     2.0;
    format      ascii;
    class       volScalarField;
    location    "2460";
    object      alpha;
}
// * * * * * * * * * * * * * * * * * * * * * * * * * * * * * * * * * * * * * //

dimensions      [0 0 -1 0 0 0 0];

internalField   nonuniform List<scalar> 
526318
(
0.000130947
0.000378239
0.000602825
0.000612905
0.000608852
0.00070843
0.000723402
0.00105352
0.000554103
0.000331594
0.000712096
0.000668959
0.000815517
0.000151396
0.000618752
0.000375719
0.000647222
0.000306529
0.000198465
0.000261698
0.000358674
0.00046111
0.000447821
0.000183843
0.000317342
0.000471753
0.000346008
0.000470055
0.000178766
9.64452e-05
0.000275845
0.000330314
0.000275064
0.000386611
0.000542046
0.000728823
0.000551612
0.000193458
0.000551451
0.000871862
0.000648248
0.000757813
0.00103572
0.000321697
0.0010073
0.000815938
0.00177388
0.000887688
0.000499663
0.000801392
0.000605202
0.000763621
0.000567273
0.000542551
0.00283092
0.00135914
0.000724596
0.00606345
0.000245505
0.00034982
0.00035312
0.000459301
0.000446331
0.000193261
0.000412999
0.000467559
0.0003827
0.00026904
0.000720093
0.000372874
0.000401061
0.000670556
0.000479548
0.000453335
0.00039174
0.000681391
0.000353815
0.000558959
0.000494664
0.000275846
0.000294146
0.000296891
0.000217635
0.000608881
0.000377193
0.000181684
0.000800195
0.000344089
0.000422365
0.000398401
0.000573362
0.000709069
0.000252224
0.000584464
0.00117453
0.000488683
0.000391567
0.000708234
0.00026049
0.000512746
0
0
0.22437
0.0126765
0.00482768
0
0.00148803
0.00184308
0.000546857
0.000125877
0.000275488
0.000607541
1.53675e-05
0.000107733
0.000291716
0.000100498
0.000163316
0.000257988
0.000171253
0.00033862
0.000487586
0.000663969
0.000340415
0.000330472
0.000569077
0.000799433
0.000485171
0.000705286
0.000878994
0.00104155
0.000898961
0.00107493
0.00125937
0.00112739
0.00104158
0.00162163
0.0010882
0.00130452
0.0011673
0.00163485
0.00159814
0.00172432
0.00133718
0.00138094
0.00183
0.00114717
0.00163906
0.00158921
0.00128257
0.00169921
0.00167073
0.000869189
0.00130897
0.00160989
0.00152329
0.00149764
0.00145922
0.00169923
0.000943569
0.0032039
0.00165974
0.00116171
0.00112973
0.000313293
0.000211847
0.000322003
0.000528852
0.000717256
0.000424839
0.000120974
0.000479587
9.24799e-05
0.000495472
0.000506541
0.000459646
0.000620083
0.000341059
0.000580228
0.000671945
0.000512914
0.000586021
0.000218478
0.000753079
0.000827203
0.000427621
0.00116235
0.00105147
0.00083045
0.0011586
0.00113789
0.00118048
0.00157026
0.00132991
0.00152422
0.00167542
0.00147637
0.00145507
0.00131373
0.00157986
0.00131671
0.00153358
0.00117423
0.000626063
0.00119434
0.00142723
0.00140262
0.00144657
0.00138235
0.000934131
0.00130506
0.000366133
0.000620892
0.000226069
0.00100967
0.000661135
0.000619994
0.000614791
0.000287174
0.00054215
0.00205259
0.00166294
0.00343055
0.000720256
0.00089617
0.00124623
0.00102901
0.000984267
0.000766331
7.68896e-05
0.0742062
0
0.00814918
0.00214132
0
0
0
0
0
0
0.000297905
0.000228417
0.000143731
0.000251081
0.000211091
0.000426508
0.00055165
3.62252e-05
0.00030228
0.000270338
0.000426474
0.000188927
0.000283693
0.00046719
0.000416637
0.000287765
0.000536391
0.000243956
0.000210174
0.000366436
0.000319459
0.00014971
0
0
0
0.0247692
0.0379471
0
0.0316908
0.00133579
0.000710278
0.000624916
0.0006569
0.000156435
0.000356884
0.000242792
0.0001406
0.000150736
0.000331592
9.99326e-05
0.000112326
6.05451e-05
0.000379148
0.000342613
0.000596594
0.00032812
0.000600424
0.001003
0.00138133
0.00119052
0.00117614
0.00170284
0.00163453
0.00157039
0.00226285
0.00118017
0.000899832
0.00168076
0.0012583
0.00119373
0.00147198
0.00151948
0.00188364
0.00337652
0.0012333
0.00107032
0.00152581
0.00172498
0.00157138
0.00212643
0.00185884
0.00288559
0.00127625
0.00573517
0.000135256
0.00271171
0.00571201
0.00139407
0.00061843
0.00178459
0.0009617
0.000998016
0.000545684
0.00166197
0.000540287
0.000585137
0.000519792
0.000475823
0.000381617
0.000445485
0.000245521
0.000201111
0.000598082
0.000808143
0.000976282
0.000648438
0.00114136
0.00105063
0.00023254
0.000865146
0.00095936
0.000976543
0.000923567
0.00075314
0.00142872
0.0012133
0.0013431
0.00154889
0.00144042
0.00157156
0.00153162
0.0012315
0.00165515
0.00125383
0.0016331
0.00136598
0.00133368
0.00165089
0.00170599
0.0011386
0.00163784
0.00191584
0.00187024
0.00127587
0.00119431
0.0012569
0.00116962
0.000796413
0.00087431
0.00119196
0.000602678
0.000746658
0.000664259
0.000499043
0.000489822
0.000666168
0.000996352
0.000589973
0.000520656
0.00118528
0.000148015
0.00131445
0.00184843
0.000277286
0.00142047
0.00123379
0.000281482
8.52671e-05
0.00104331
0.00457403
0.00429678
0.00315964
0.00599396
0.00109963
0.00131045
0.00201335
0.00163748
0.00116481
0.00124178
0.000773091
0
0
0.0245155
0
0.007535
0.0354415
0
0.0198713
0
0
0
0
0
0
0
0
0.00017407
0.000445538
0.000193585
0.000219244
0.000186087
0.000262279
0.000151689
0.000129551
0.000334097
0.000330374
4.82841e-05
0.00063994
7.35381e-05
0.000288871
0.000500805
0.000457155
0.000170728
0.000318776
0.000240598
0.000573218
0.000212908
0.000403062
0
0.00147924
0
0
0
0
0
0
0.00271824
0.00297052
0
0
0
0
0.00733946
0
0
0
0
0
0
0.0435365
0.0115655
0.0145649
0.00210162
0.00415055
9.22466e-05
0.000521823
0.000204025
0.000282883
0.000228801
0.00025532
9.85638e-05
0.00043443
0.00014212
0.000270038
0.000352074
0.000281152
0.000345273
0.000511989
0.000235374
0.000822899
0.00113147
0.000676238
0.00117746
0.000870027
0.00143816
0.00092797
0.00097402
0.00198183
0.00223609
0.00253455
0.00259335
0.000349214
0.00451362
0.00131122
0.0019848
0.000978341
0.00526548
0.00238695
0.00230851
0.00141471
0.00260053
0.00208851
0.00279453
0.000897168
0.00307863
0.00584357
0.00231396
0.000459781
0.000504661
0.00124817
0.000723349
0.00106012
0.00101481
0.000997652
0.00086094
0.00121609
0.000824387
0.000558441
0.00147463
0.00168536
0.00145817
0.000482772
0.000621386
0.00131755
0.00109829
0.00050955
0.00104485
0.000213887
0.000711874
0.000644899
0.000211592
0.000747524
0.000175553
0.000662935
0.000272247
0.000816394
0.000761433
0.00123112
0.00165926
0.00134099
0.00174371
0.00252758
0.00115298
0.00191139
0.000731079
0.000904551
0.00149772
0.00147924
0.0014774
0.00137394
0.00158985
0.00138352
0.0019623
0.00128782
0.00169682
0.00125922
0.00130282
0.00131508
0.0013919
0.00142801
0.00121133
0.00151419
0.00119618
0.00111981
0.00102145
0.0011456
0.00091436
0.00105428
0.00129422
0.000303199
0.000656292
0.000676453
0.000705677
0.000525261
0.000259471
0.000292099
0.00131054
0.00114068
0.000820353
0.000639674
0.000668285
0.000642578
0.000374718
0.000811622
0.000175309
0.00163492
0.00133286
0.00145326
0.000411941
0.00113366
0.00143236
0.000484153
0.000918406
0.0171725
0.00456881
0.00422329
0.00203284
0.00113962
0.00178496
0.0030656
0.001655
0.00243396
0.0023218
0
0
0
0
0.0222359
0.0112239
0
0
0
0
0
0
0
0
0
0
0
0
0
0
0
0
0
0
0
0
0.00807432
0
0
0.000853726
0.00327822
0.008797
0
0
0
0
0
0
0
0
0
0
0
0
0
0
0.000269528
8.44818e-05
0.000208735
0.000358344
0.000207971
0.000233936
0.000588967
0.000359534
0.000406347
0.00018936
0.000447456
0.000302997
0.000315227
0.000427579
0.000346157
0.00023842
0.00040481
0.000286148
0.000556646
0.000195143
0.000774754
0.000212747
0
0
0
0
0
0
0
0
0
0
0
0
0
0
0
0
0
0
0
0
0
0
0
0
0
0
0.033271
0
0
0
0.0093154
0
0.00134935
0.00175213
0.000413644
0.00132943
0.00057274
0.000512894
0.000258836
0.000212777
0.000126645
0.000323118
0.000233638
0.000142724
0.000317759
0.000320623
0.000316219
0.00012559
0
0
0
0
0
0
0
0
0
0
0
0
0
0
0
0.0360208
0
0.000630086
0.000590707
0.000888419
0.000469072
0.00105772
0.00128318
0.000970587
0.00107599
0.000976464
0.00118855
0.00206396
0.00250865
0.000726119
0.00157526
0.00341822
0.00203698
0.000950224
0.00163882
0.00308739
0.000400236
0.0109904
0.00628714
0.0110785
0.010702
0.0016643
0.00300174
0.00321807
0.00412388
0.00435806
0.00076187
0.00833084
0.00973492
0.000603469
0.00063619
0.000626377
0.000649854
0.000879023
0.000946863
0.000550259
0.000365259
0.000288846
0.000480333
0.00127137
0.00159262
0.00130585
0.000916396
0.00108452
0.00200471
0.0016703
0.00144238
0.00397361
0.00173297
0.00128804
0.00166403
0.000505381
0.0010211
0.000485125
0.00099184
0.00114389
0.000412235
0.000496078
0.00110329
0.000592959
0.000766109
0.00197712
0.00248502
0.00120094
0.00349613
0.00175554
0.00163601
0.00146326
0.00502055
0.00835555
0.00160691
0.000924738
0.00444675
0.00209346
0.00103716
0.0015362
0.00179784
0.00193375
0.00142258
0.0011613
0.00181712
0.00125397
0.00159413
0.00154595
0.00155968
0.00133636
0.00129667
0.0012534
0.00109148
0.000863727
0.000595134
0.000623973
0.000794272
0.000856288
0.000345749
0.000606677
0.000589204
0.000502542
0.000311229
0.000331861
0.000601129
0.000382903
0.000694851
0.000653394
0.000576101
0.000473742
0.000592043
0.000510496
0.000699165
0.000560473
0.000527923
0.000254812
0.000383138
0.000363396
0.000325189
0.000443685
0.000474233
0.000374653
0.00041468
0.000309928
0.000296009
0.000375901
0.000322666
0.000280006
0.000384499
0.00028258
0.000332084
0.000311315
0.000263712
0.000194215
0.000250699
0.00027746
0.000219025
0.000217774
0.000290311
0.000222463
0.000275395
0.000237708
0.000270202
0.000241372
0.00022165
0.000254159
0.000219516
0.000248135
0.000204887
0.000259108
0.000266264
0.000279004
0.000268867
0.000259613
0.00155814
7.6626e-05
5.04289e-05
0.000160219
0.000927191
0.000680946
0.000477567
0.000915634
0.000663669
0.00451666
0.0019052
0.00168908
0.00584423
0.0143635
0.0104893
0.0114749
0.00378997
0.00505404
0.00224152
0.00505937
0.00620841
0.013673
0.00417973
0
0.016391
0
0
0
0
0
0
0
0
0
0.0148535
0
0
0
0
0
0
0
0
0.0168844
0
0
0
0
0
0
0
0
0
0
0
0
0
0
0
0
0
0
0.0485771
0
0
0.0258139
0
0.0173217
0
0.0106512
0.0100047
0.000530894
0
0.0199557
0.00863096
0
0
0.0140897
0
0
0
0
0
0
0
0
0
0
0
0
0
0
0.0130081
0
0
0.000162581
0.000313322
0.000179043
0.000242999
0.000773047
0.000251548
0.000320296
0.000357721
0.000680977
0.000721131
0.000219785
0.000248778
0.000258653
0.000712791
0.000550773
0.000274204
0.000757056
0.000415059
0.000410028
0.000347173
0.000459349
0.000294736
0
0
0.0744018
0.0771573
0
0
0
0
0
0.02413
0
0
0
0
0
0
0
0
0
0
0
0
0.0224778
0.0146673
0
0
0
0.00525183
0.000959217
0.00515522
0.000503103
3.62517e-05
0.00042382
0.00014139
0.000436415
7.96862e-05
0.000247786
0.00011745
9.73594e-05
0.000306788
0.000218113
0.000377126
0.000107647
0.000332297
0.00267862
0
0.0975315
0
0
0.00064301
0
0
0.000262711
0
0
0
0
0
0
0
0
0
0
0
0
0
0
0
0.0153643
0
0.000774659
0.000843526
0.00116195
0.00152239
0.00266954
0.00328439
0.003414
0.00354866
0.00342066
0.00287589
0.00443628
0.00319916
0.0118743
0.00966686
0.00384799
0.00810492
0.00360804
0.00588672
0.00266654
0.00297512
0.0624637
0.0162627
0.0133949
0.00479781
0.0103915
0.00547365
0.0373128
0.0630856
0.66645
0.09901
0.0681991
0.103623
0.000181654
0.000453928
0.000663008
0.000555836
0.00096865
0.000836529
0.000319035
0.000502346
0.000417026
0.000256213
0.000176625
0.000479517
0.00038809
0.000384998
0.000378061
0.000353664
0.000312905
0.000301369
0.000282006
0.000271655
0.000281053
0.00020899
0.000244991
0.000245912
0.000267632
0.000271265
0.000284956
0.000234939
0.000267776
0.000236496
0.00124534
0.00191566
0.00170136
0.000724797
0.0010367
0.00157175
0.00106187
0.00186843
0.00285803
0.00296479
0.00865443
0.00082074
0.00136089
0.000160416
0.00065671
0.00101642
0.00124956
0.000963021
0.00142863
0.00160956
0.00902561
0.00453703
0.00611521
0.0115748
0.037544
0.0681286
1.09468
0.0337457
0.0104045
0.00791717
0.0377596
0.00371658
0.00113677
0.00805155
0.00151177
0.00389333
0.00259058
0.00111876
0.00126251
0.00186522
0.00188553
0.00163751
0.00154558
0.00164536
0.00105804
0.00125795
0.0010335
0.000944592
0.000627884
0.000668575
0.000558815
0.000497967
0.000643709
0.000753431
0.000693955
0.000454388
0.00062182
0.000826444
0.00041161
0.000708966
0.000778233
0.00040252
0.000193834
0.000663614
0.000444637
0.00052308
0.000548441
0.000442496
0.000680708
0.000452193
0.000501394
0.000278975
0.000380137
0.000407829
0.000433964
0.000322402
0.000260694
0.000238142
0.000251743
0.000204552
0.000224685
0.000188793
0.000180616
0.000231015
0.000190288
0.000234854
0.000237012
0.000254741
0.000197801
0.00023263
0.000179075
0.000271425
0.000260336
0.000206748
0.000217864
0.000242338
0.00022721
0.000219288
0.000208269
0.000182308
0.000203858
0.000180892
0.000185297
0.00971917
0.00159727
0.000525287
0.000735414
0.00343346
0.00183224
0.000503233
0.000789231
0.000890462
0.00154275
0.00485849
0.00879929
0.0219829
0.00353009
0.00636022
0
0
0.00730823
0.0613672
0.00622115
0.00380446
0.00971378
0.0111891
0.0129115
0.030609
0
0
0
0
0.0108959
0.00833238
0
0
0
0.0219717
0
0
0
0
0
0.0333816
0
0.0173722
0
0
0
0
0
0
0
0
0.00145739
0
0
0
0.00607015
0
0
0
0
0
0
0
0
0
0
0
0
0
0
0
0
0.0128899
0
0.00757592
0
0
0
0
0
0
0
0
0
0
4.912e-05
0.00050551
0.000192845
0.000219898
0.000461358
0.000210547
0.000810371
0.000184857
0.000338798
0.000302364
0.000312691
0.000571846
0.000414665
0.000165159
0.000380387
0.000392826
0.000902757
0.000308921
0.000219628
0.000305555
0.000480518
0.000344243
0.0749676
0
0.123264
0
0
0
0
0
0
0
0
0
0
0
0
0
0
0
0
0
0
0
0
0.0283007
0
0
0.011661
0.00550253
0.000805195
0.00242844
0.000612108
0.000260266
0.000470475
0.000392019
0.000186827
0.000442737
0.000140522
0.000181171
0.000246326
0.000397583
0.000317476
0.000277494
0.000332917
0.00016235
0
0
0
0
0
0
0
0
0
0
0
0
0
0
0.00610554
0
0
0
0
0.00208791
0
0.00179712
0
0
0.0371668
0
0
0
0
0
0
0.00121027
0.00151506
0.000732177
0.0016198
0.00075598
0.00317782
0.00074477
0.0032956
0.000429819
0.000522536
0.000567828
0.00422284
0.0032832
0.0113329
0.0484509
0.015924
0.00592916
0.0255263
0.0128294
0.00640582
0.00869283
0.00427122
0.00755511
0.00517213
0.0727053
0.0330691
0.0146253
0
0
0
2.55139
0.108867
0.743575
0
0
0.000162582
0.000113563
9.84013e-05
0.000138643
0.00011995
0.000104534
0.000124436
0.000111727
0.000102035
0.000122276
0.000110647
0.000144706
0.000176282
0.000135565
0.000176428
0.00018717
0.000172041
0.000146626
0.000154502
0.000157468
0.00020234
0.000140678
0.000133484
0.000181356
0.00018569
0.000192817
0.000172896
0.000188853
0.00016899
0.000256794
0.000263158
0.000272292
0.000230056
0.000208113
0.000245129
0.000231471
0.000394086
0.000695053
0.000627914
0.00082466
0.000748589
0.000470573
0.000518568
0.000396221
0.000218144
0.000429663
0.000162924
0.000405459
0.000369959
0.000372465
0.000356186
0.000309083
0.00032044
0.000316158
0.000270884
0.00025519
0.000274936
0.000235618
0.000295967
0.000236441
0.000297184
0.000235499
0.000284627
0.000747223
0.00147137
0.0012038
0.00170033
0.000921267
0.00079051
0.00111148
0.00142043
0.00133867
0.00294483
0.00137117
0.000189511
0.000155636
0.000172186
0.000144742
0.00014081
0.000129545
0.000110232
0.000137093
0.000101695
0.000114457
8.67024e-05
9.00149e-05
9.68571e-05
0.000111907
9.31876e-05
0.000183354
0.000133475
0.000120056
0.0078229
0.0176328
0.00499355
0.00129485
0.00269545
0.000501524
0.00355285
0.00622241
0.00423177
0.0116076
0.0291831
0.0222476
0
0.0510516
0
0
6.73437
0
0.0131639
0.0106018
1.91268
0.00272306
0.0103639
0.00595546
0.00263476
0.00651259
0.00159777
0.00472464
0.00158642
0.00164696
0.00149162
0.00131212
0.00115016
0.00113568
0.000871559
0.00103491
0.000765052
0.000827101
0.000659439
0.00106024
0.000650542
0.000852537
0.000780146
0.000799375
0.000455148
0.000678852
0.000881427
0.000479994
0.000592491
0.000215882
0.000381233
0.00024657
0.000166219
0.000522072
0.000231262
0.00028808
0.000524896
0.000340211
0.000506317
0.000238441
0.000319564
0.000487713
0.000368995
0.000297701
0.000253852
0.000206633
0.000208188
0.000169178
0.000215317
0.000182315
0.000189101
0.000179027
0.000170983
0.000219003
0.000186687
0.000169216
0.000191151
0.000219933
0.000163817
0.000276406
0.000170772
0.000209413
0.00021036
0.000147975
0.000196346
0.0123177
0.00121762
0.00240355
0.00740482
0.00336254
0.00255544
0.0126522
0.000276542
0.00700687
0.0324289
0.0155135
0.0713038
0
0.0255311
0.0212229
0
0
0
0
0.00438379
0.0816524
0.128142
0.182594
0
0
0
0
0
0.0101397
0.0107357
0.0116613
0
0.000110687
0
0
0
0
0
0
0
0
0
0.0386406
0
0
0
0
0
0
0
0
0.212442
0
0.00135205
0
0
0
0
0
0
0.0018957
0
0
0
0.00257968
0
0
0
0
0.0440349
0
0
0
0
0
0
0
0
0.0271763
0
0
0
0
0
0
0
0
0
0
0.0904644
0
0
0
0
0.145036
0.000152975
0.000180427
0.00013838
0.000202156
0.00017824
0.000135966
0.00067039
0.000112132
3.659e-05
0.00038537
0.000456608
0.000329006
0.000312691
0.000454882
0.00050011
0.000194966
0.000489783
0.000394217
0.000396653
0.000319298
0.000371502
0.000677715
0.000344904
0.000209865
0.000474062
0
0
0
0
0
0
0
0
0
0
0
0
0
0.0071039
0.0103928
0.00643756
0
0
0
0
0
0
0
0
0
0
0
0.00108509
0.000393002
0.000464314
0.000499662
0.000403091
0.000187056
0.000561504
0.000330247
9.25796e-05
0.000325933
0.000390822
0.000464337
0.000218483
0.000343442
0.000595515
0.000157046
0
0.0045483
0
0
0
0
0
0
0
0
0
0
0
0.0338859
0
0
0
0.00658376
0
0.014176
0
0
0
0.0218131
0
0
0
0
0
0
0.00842585
0
0
0
0
0
0
0.000394807
0.000751886
0.000958025
0.0013778
0.00118396
0.000821784
0.000360973
0.00678364
0.00344402
0.0284027
0.105583
0.00137919
0.000950107
0
0
0
0.0495187
0.0276529
0.0849181
0.0608432
0.522637
0.00616411
0.0296381
0.00912326
0.00742743
0
0
0
0
0
0
0
0
0
0
0
0
0.000152799
0.000152387
0.000144826
0.000127888
0.000105261
0.000175881
0.0002259
0.000209648
0.000196763
0.000169233
0.000183038
0.000184786
0.000192502
0.000181647
0.000228437
0.00021816
0.000290275
0.000270019
0.000254282
0.000288943
0.000214847
0.000227265
0.000329798
0.00058105
0.000648774
0.000562643
0.000738336
0.000917204
0.000477674
0.000599012
0.000314578
0.000295584
0.000297906
0.000482825
0.000220788
0.000370426
0.000399029
0.000365359
0.000239389
0.000363169
0.000342178
0.000334116
0.000352677
0.000321893
0.000294632
0.00031157
0.000252298
0.000382354
0.000232215
0.000306194
0.000223678
0.000327224
0.000308213
0.0013926
0.00236412
0.000996484
0.000805306
0.00143096
0.00143947
0.000630782
0.000936619
0.00263184
0.000211806
0.00120293
0.00233116
0.000195931
0.000179842
0.000177331
0.000164858
0.000152822
0.000149733
0.000121386
0.000122419
8.32416e-05
8.583e-05
9.65531e-05
7.97629e-05
8.12203e-05
8.4339e-05
9.78515e-05
0.000100602
0.000116382
0.000147052
0.000109189
0.00013552
0.00014557
0.000112482
0.000138317
0.000170309
0.000206962
0.00760968
0.013957
0.0248775
0.0268189
0.00461229
0.00898015
0
0
0.127651
0
0
0
0
0.0103115
0
0.00479855
0
0
0.178762
0
0.00574803
0.0286943
0.00698666
0.0182072
0.000559672
0.00129082
0.0045533
0.0047248
0.00156074
0.00194364
0.00065415
0.000821794
0.000923147
0.000885269
0.000926431
0.000887597
0.00085563
0.000599961
0.000703556
0.000517016
0.000826464
0.000761077
0.000841959
0.00111135
0.000476726
0.000239059
0.000542035
0.000460115
0.00044177
0.000242073
0.000215363
0.00022355
0.000190302
0.000246967
0.000428378
0.000234245
0.000411827
0.000265402
0.000243182
0.000325463
0.000389002
0.000237604
0.000225319
0.000178551
0.000140967
0.000160191
0.000179329
0.000174024
0.000188088
0.000184008
0.000152295
0.000151623
0.000158378
0.00012622
0.000145183
0.000117819
0.000227403
0.00015271
0.000186781
0.000291891
0.000102564
0.000213915
0
0
0
0
0.0179237
0.0080977
0.00246764
0.0304988
0.0333903
0
0
0
0
0
0
0
0
0
0
0
0
0
0
0
0
0
0
0
0.0141525
0.0059597
0
0
0
0
0
0
0
0
0
0
0
0
0.00135883
0
0
0
0
0
0
0
0
0.245375
0
0
0
0.00690478
0.00562565
0
0
0
0
0
0.0300926
0
0.0470255
0.117459
0
0
0.157463
0.558604
0
0
0
0
0.0125544
0
0.0212102
0
0
0
0
0.0145482
0.00879406
0.0072571
0
0
0
0
0
0
0
0
0
0
0.00696218
0
0
0
0
0
0
0
0
0.000156871
0.000229027
0.000207691
0.000259895
0.000203713
0.000206931
0.000222026
0.000174434
0.000265229
0.000227359
0.000328551
0.000704955
0.000416248
0.000544041
0.000729519
0.000155055
9.11894e-05
0.0008644
8.69688e-05
0.000229058
0.000368709
0.000192822
0.000459394
0.000472257
0.000412867
0.000237012
0.000847304
0
0
0
0
0
0
0
0.0203669
0.000599728
0.0115169
0
0
0
0
0
0
0.00698772
0
0
0.00191793
0
0
0
0
0
0.000287127
0.00033788
0.000469364
0.000452848
0.000342183
0.000493955
0.000664532
0.000367525
0.000251808
0.00051324
0.000413864
0.000111904
0.000269946
0.000731489
0.000224333
0.000238883
0
0
0.000567437
0.0133365
0
0
0.013508
0.0129792
0
0
0
0
0
0
0
0.005677
0.000529912
0.00515275
0
0
0
0.0115428
0
0
0
0.032108
0
0
0
0
0
0
0
0
0
0
0
0
0
0
0
0
0
0
0
0.00103093
0.000652447
0.000547169
0.000699816
0.00119562
0.00346591
0.00228829
0.0277072
0.0182288
0
0
0.117168
0.00722364
0.0092988
0.0209506
0
0
0
0
0
0
0
0.0228547
0.00523039
0.0147414
0.00251425
0.00207634
0
0
0
0.00954688
0
0
0
0
0
0
0
0.00682755
0.00015047
0.000181903
0.00017986
0.000162713
0.000164005
0.000172232
0.000234436
0.000141714
0.000350882
0.000161405
0.000201565
0.000295955
0.000204709
0.000207971
0.000199954
0.000226172
0.000199276
0.000202406
0.000207518
0.000224757
0.000208644
0.000195604
0.000289779
0.000263712
0.000270324
0.000274919
0.000208373
0.000232083
0.000523662
0.000626291
0.000579068
0.00056018
0.00065965
0.000753096
0.000549042
0.000655352
0.000367352
0.000166942
0.00035315
0.000561608
0.000309283
0.000290644
0.000120492
0.000296257
0.000258324
0.000291055
0.000262706
0.000297083
0.000261738
0.000376413
0.000303183
0.000338853
0.000158417
0.000262864
0.000299856
0.000231761
0.000259843
0.000110755
0.00287103
0.00154804
0.000589145
0.000970382
0.00115313
0.000940764
0.000851796
0.000602909
0.00137416
0.000695262
0.00136456
0.00413109
0.000138086
0.000122905
0.000239084
0.000128942
0.000170759
0.000135721
0.000112592
0.000113608
9.46809e-05
7.62028e-05
0.000100321
7.46075e-05
7.02622e-05
6.48227e-05
6.35009e-05
7.3421e-05
8.2853e-05
0.000117218
8.49886e-05
0.000180681
0.000115768
8.65055e-05
9.94851e-05
0.00015645
0.000223655
0
0
0
0
0
0
0
0
0.00946136
0
0
0
0
0
0
0
0.00350134
0
0
0
0
0.0365665
0.00136223
0.0152566
0.00142898
0.000893011
0.00212378
0.00727771
0.000729543
0.000577915
0.000562669
0.000979808
0.00104938
0.000944091
0.000571431
0.000698999
0.000625957
0.000681201
9.94932e-05
0.00045072
0.000745896
0.000378798
0.000548497
0.000390958
0.000392731
0.000413575
0.00032494
0.000225608
0.000215188
0.000215349
0.000376992
0.000296211
0.000293056
0.000213895
0.000291798
0.000366948
0.000152918
0.000317151
0.000229455
0.000222865
0.000177773
0.000191875
0.000163454
0.000161678
0.000150732
0.000178679
0.000149454
0.000178028
0.000139699
0.000142732
0.000113923
0.000126414
9.25159e-05
0.000153061
0.000109531
0.000137333
0.000291853
0.000121603
0.000176973
0
0
0.154763
0.000819
0
0
0
0
0
0
0
0.000541452
0
0.00791862
0.00398228
0.0121126
0.0092693
0
0.0153358
0.0537987
0
0
0
0.00893104
0
0.00612478
0.0048543
0
0
0
0
0
0
0
0.0263074
0.0104473
0
0
0
0
0
0
0.0173847
0
0
0
0
0
0
0
0
0
0
0
0
0
0
0
0
0
0
0
0
0
0
0
0
0
0
0
0
0
0
0
0
0
0
0
0
0
0
0
0.0203655
0
0
0
0
0
0
0
0
0
0
0
0
0
0
0
0
0
0
0
0
0
0
0
0
0
0
0
0
0
0.00482524
0
0
0
0
0.000230295
0.000203039
0.000256492
0.000264706
0.000266921
0.000284498
0.000308585
0.00023457
0.000250802
0.000263277
0.000257442
0.000276477
0.000311686
0.000244546
0.000263658
0.000641963
0.00068754
0.000815717
0.000692387
0.000619309
0.000133472
0.000193471
0.000622395
0.000214075
0.00099196
0.000290055
0.000781456
0.00058403
0.000746867
0
0
0
0.00797792
0.0117073
0.00127016
0.000898087
0.0164416
0
0.0191411
0
0
0
0
0
0
0
0
0.00526398
0
0.00559508
0
0
0
0.000263863
0.000292394
0.000512618
0.000180904
0.000235467
0.000493614
0.000684992
0.000545872
0.000687998
0.000510622
0.000321436
0.000401313
0.000181192
0.00025897
0.000375368
0.000430181
0
0.00392127
0
0
0
0
0
0.000450221
0
0
0
0
0
0
0
0
0
0
0
0.000380866
0
0
0
0
0
0
0
0
0
0
0
0
0
0
0
0
0
0
0.00433589
0.0247893
0
0
0
0
0.0274126
0
0
0
0.0490792
0
0
0
0
0
0
0
0
0.00145511
0.00138122
0.000437653
0.00438626
0.00231658
0.0257853
0.0539107
0.139836
0.199085
0.853949
0.341274
0
0
0
0
0.114057
0.0721297
0
0
0
0
0.0247908
0.003837
0.0133756
0
0
0.136796
0
0.0504886
0
0
0
0
0.00774474
0.00771091
0
0
0
0
0
0
0.000271296
0.000268256
9.85089e-05
0.000259905
0.000519383
0.000308749
0.000215039
0.000167484
0.000229818
0.000314391
0.000292929
0.000243357
0.000304838
0.000227064
0.000250984
0.00021975
0.000215532
0.00022291
0.000223047
0.000310615
0.00024655
0.00025906
0.000252544
0.000251674
0.000300286
0.000250978
0.000320238
0.000613514
0.000604372
0.000613672
0.000616907
0.000638597
0.000701616
0.000736064
0.000676602
0.000422445
0.000258473
0.000539519
0.000469603
0.000233212
9.70813e-05
0.000280772
0.000165415
0.000167144
0.000163674
0.000251645
0.000216482
0.000252778
0.000231301
0.000209351
0.000387592
0.000258153
0.000277345
0.000250355
0.000230545
0.000314042
0.000154659
0.0017882
0.00148309
0.00104525
0.000757354
0.000759326
0.000861661
0.000855461
0.000769139
0.000381834
0.00255799
0.00134658
0.00452814
0.0280357
0.0121945
0.00205445
0.000146507
0.00013637
0.000122181
0.000154218
8.47306e-05
7.29604e-05
7.62631e-05
9.01835e-05
6.87483e-05
6.71598e-05
7.74069e-05
6.25033e-05
3.76559e-05
5.17387e-05
4.2886e-05
4.3243e-05
6.81129e-05
8.36895e-05
0.000104763
0.000133329
0.00015901
0.000201217
6.51045e-05
5.13762e-05
0.000243484
0.000197359
0
0
0.0148871
0
0
0.00739535
0.0155946
0
0
0
0
0.00597307
0.00620578
0
0
0
0
0
0.0560912
0.266674
0
0.0120762
0.00458373
0.00478339
0.00763352
0.00267135
0.00138744
0.00554071
0.000892812
0.00121117
0.000957151
0.000938852
0.000660412
0.00112437
0.00072315
0.000517372
0.000417051
0.00078685
6.49675e-05
0.000494841
0.000613924
0.000282751
5.31714e-05
6.187e-05
0.000198197
0.000325694
0.000299723
9.39854e-05
0.000282297
0.000164015
0.000209046
0.000384455
0.000119831
0.000287857
0.000268723
0.000161333
0.000156357
0.000180775
0.000159297
0.000167883
0.000138641
0.000150712
0.000149314
0.000164497
0.000141479
0.000119548
0.000139262
0.000130253
0.000122316
0.000131253
9.6666e-05
0.000144408
9.42172e-05
0.000151486
0.000146056
9.84376e-05
0.000140173
0.000115287
0
0
0.0169193
0
0
0
0
0.0368464
0
0.00293309
0
0
0
0.0109184
0.00589997
0.00396893
0.00560356
0.0153328
0.0122995
0
0
0
0
0
0
0
0
0
0
0
0
0
0
0
0
0.0248023
0
0
0
0.209711
0
0
0
0
0
0
0
0
0
0
0
0
0
0
0
0
0
0
0.304844
0
0
0
0
0
0.00374294
0.00170225
0.00474738
0
0
0
0
0
0
0
0
0
0
0
0
0
0
0
0
0
0
0
0
0
0
0
0
0
0
0
0
0
0
0
0
0
0
0
0
0
0
0
0.00585611
0
0
0
0.00136809
0
0
0.183647
0.0198479
0
0.000251296
0.000251428
0.000217191
0.000283134
0.000288687
0.000318536
0.000312195
0.000270764
0.00028332
0.000285088
0.000317274
0.000319153
0.000326233
0.000325812
0.00035495
0.000272631
0.00028123
0.000338952
0.000265987
0.000474468
0.000370192
0.00014787
0.000837515
5.47595e-05
0.000537346
0.000785536
0.000249824
0.000440597
0.000534519
0.0010951
0.00147711
0.000825698
0.000934273
0
0
0.00113504
0.00106431
0.00188322
0
0
0.0103016
0.00536545
0
0
0
0
0
0
0
0
0.0187575
0
0
0
0
0
0
0.000387349
6.66456e-05
0.000262407
0.000320239
0.00116283
0.000263833
0.000649521
0.000757982
0.000472341
8.66545e-05
0.000203211
0.000347705
0.000435303
0
0
0
0
0
0
0.0191309
0.00559199
0
0
0.00637027
0
0
0
0
0
0
0.410238
0
0
0
0
0
0
0
0
0
0
0.047349
0
0
0
0
0
0
0
0
0
0
0
0
0
0
0
0
0.0106773
0
0
0
0
0
0.014313
0
0
0
0
0
0
0
0
0
0
0
0.000757189
0.00733902
0.00553495
0.0064718
0.0109448
0.0181153
0.0187432
0.161991
0.00937536
0
0
0
0
0
0
0
0
0
0
0
0
0
0
0.100945
0.0250885
0
0
0
0.0444804
0.0055728
0.0273521
0
0
0
0.00477859
0
0
0
0
0
0
0
0
0.000358099
0.000180785
0.000293389
0.000156435
0.000648962
0.000328081
0.000243081
0.000252677
0.000260331
0.000320037
0.000309531
0.000328931
0.000337892
0.000336809
0.000258109
0.000223255
0.000213481
0.000191578
0.000215685
0.000217729
0.000318997
0.000264893
0.000286423
0.000278136
0.000266173
0.000164559
0.000271023
0.000288669
0.000607822
0.000694785
0.000678279
0.000625765
0.000627391
0.000505751
0.000822687
0.000653402
0.000344974
0.000424878
0.000528377
0.000523619
0.000112015
4.45836e-06
0.000203518
0.000280548
6.04215e-05
4.16843e-05
0.000112894
0.000316478
0.000188592
0.000178966
0.000253464
0.000300857
0.000248922
0.000435301
0.000258248
0.000266502
0.000318023
0.000191704
0.000723817
0.00170072
0.00114979
0.000772286
0.000707388
0.000798744
0.000858876
0.000626919
0.00194105
0.000368508
0.00108551
0.000482763
0.00315829
0.000723204
7.64148e-05
8.59493e-05
5.51776e-05
7.65439e-05
6.45642e-05
5.55026e-05
5.472e-05
4.72735e-05
5.92829e-05
5.83346e-05
3.73707e-05
4.24727e-05
2.20503e-05
5.43419e-05
4.31214e-05
7.98424e-05
0.0001208
0.000142271
0.000177172
0.000199479
0.000214472
3.87941e-05
1.71334e-05
0.000217296
0.000230466
0
0
0
0
0
0
0
0
0
0.00660669
0
0
0
0
0
0
0.0153358
0
0
0.284192
0
0.0166218
0.00407789
0.00626377
0.016257
0.00394483
0.00116869
0.000848323
0.000659291
0.000677124
0.000982457
0.00177298
0.000634204
0.000960642
0.000684041
0.000477016
0.000509425
0.000285762
0.000248962
0.000223647
0.000313467
0.000382991
0.000126681
4.41264e-05
9.91672e-05
0.000337077
0.000350932
0.000172796
0.000189813
8.28396e-05
0.000174296
0.000197942
0.000191857
0.000137989
0.000109015
0.000111344
9.79928e-05
0.000109487
0.000113848
9.90813e-05
0.000134337
0.000117087
0.000121881
0.00012865
0.000108075
0.000104529
0.000115803
0.000124386
0.000131868
0.000101292
0.000140537
0.000101352
9.84398e-05
0.000127209
0.000123013
5.7647e-05
2.49213e-05
9.26153e-05
0
0
0
0
0
0
0
0
0
0
0
0
0
0
0
0
0
0.00893938
0
0
0.00786511
0.0333418
0
0
0.00145299
0
0
0
0
0
0.00105427
0
0
0
0
0
0
0
0
0
0
0
0
0
0
0
0.00930575
0.0137658
0.0152629
0
0
0
0
0.00474498
0
0
0.00628575
0
0
0
0
0.0173322
0
0.204626
0
0
0
0
0
0
0
0
0
0
0
0
0
0
0
0
0
0
0
0
0
0
0
0
0
0
0
0
0
0
0
0
0
0
0
0
0
0
0
0
0
0
0
0
0
0
0
0
0
0
0
0
0
0.0037058
0
0
0
0.136812
0
0
0.000234574
0.000255289
0.000251833
0.000330848
0.000312805
0.000308724
0.000271593
0.000288299
0.000305062
0.000279936
0.000314803
0.000341148
0.00033382
0.000334363
0.00033473
0.000332775
0.000351831
0.000318175
0.000363451
0.000351855
0.000336088
0.000325413