/*--------------------------------*- C++ -*----------------------------------*\
  =========                 |
  \\      /  F ield         | OpenFOAM: The Open Source CFD Toolbox
   \\    /   O peration     | Website:  https://openfoam.org
    \\  /    A nd           | Version:  8
     \\/     M anipulation  |
\*---------------------------------------------------------------------------*/
FoamFile
{
    version     2.0;
    format      ascii;
    class       volScalarField;
    location    "2460";
    object      nut;
}
// * * * * * * * * * * * * * * * * * * * * * * * * * * * * * * * * * * * * * //

dimensions      [0 2 -1 0 0 0 0];

internalField   nonuniform List<scalar> 
526318
(
6.59987e-05
0.000173353
0.000329932
0.00026902
0.000318383
0.000328118
0.000349816
0.000411602
0.000255281
0.000109953
0.00022424
0.000293255
0.000306387
6.42624e-05
0.000233684
0.000153044
0.000245844
0.000189605
9.88292e-05
0.000144536
0.00019631
0.000227342
0.000111903
9.02418e-05
0.000116936
0.000114053
0.000179122
0.000246138
9.25171e-05
5.21524e-05
0.000157498
0.000208912
0.000168467
0.000182221
0.000251853
0.000313851
0.000239988
0.00010807
0.000259283
0.000327302
0.000302306
0.000328293
0.000148848
5.73508e-05
0.000120147
0.000121223
0.000236963
0.000187771
0.000187306
0.00022739
0.000218419
0.000276342
0.000185927
0.000151782
4.7659e-05
0.000139011
7.37749e-05
0.000150046
0.000139025
0.000196351
0.000207213
0.000246347
0.000213475
0.000120005
0.000261601
0.000265717
0.000219354
0.000147296
0.000309496
0.000157924
0.000228828
0.000217177
0.000179294
0.000124788
9.46343e-05
0.00015648
0.000110412
0.000171364
0.000116831
7.35182e-05
0.000101859
0.000104014
6.53255e-05
0.00015846
0.000107401
6.23103e-05
0.000276249
0.000113699
0.000119759
0.00013969
0.000150746
0.000154842
5.44624e-05
9.8998e-05
0.000190932
8.12147e-05
6.50346e-05
0.000115573
4.24213e-05
8.45215e-05
0
0
5.73544e-07
6.46324e-06
2.13225e-05
0
0.000162855
6.17175e-05
0.00010244
2.04738e-05
5.20256e-05
0.000171432
8.02481e-06
4.26266e-05
0.000152685
5.38591e-05
0.000102088
0.000151641
0.000109828
5.4216e-05
7.83028e-05
0.000107791
5.60431e-05
4.48286e-05
9.19234e-05
8.71565e-05
6.37046e-05
5.99606e-05
9.618e-05
8.87804e-05
7.47974e-05
8.49579e-05
8.68161e-05
7.39524e-05
8.07662e-05
8.7008e-05
8.19675e-05
7.27008e-05
7.37629e-05
7.02915e-05
7.23441e-05
9.1213e-05
8.39431e-05
7.93596e-05
7.84233e-05
4.94131e-05
7.87959e-05
7.03561e-05
5.45728e-05
7.70683e-05
8.26883e-05
3.965e-05
6.01321e-05
7.57868e-05
7.07809e-05
5.32721e-05
6.77631e-05
7.88709e-05
3.47513e-05
8.24945e-05
7.7925e-05
3.63296e-05
5.50879e-05
0.000122769
0.000101559
0.000141593
0.000217196
0.000166349
0.000121396
2.70841e-05
0.00011042
2.11652e-05
0.000113681
0.000123205
0.000106475
0.000113208
5.48783e-05
8.15847e-05
7.18927e-05
7.2221e-05
9.67353e-05
3.67187e-05
0.000124131
8.30472e-05
5.52308e-05
8.2852e-05
8.0974e-05
6.76022e-05
8.69153e-05
8.7904e-05
9.16118e-05
0.000115328
9.88652e-05
0.000110163
0.000114437
9.04445e-05
0.000101742
8.8699e-05
8.98142e-05
6.47171e-05
9.11052e-05
6.16036e-05
3.10456e-05
6.96327e-05
7.61326e-05
7.71172e-05
6.11878e-05
6.63836e-05
5.48501e-05
7.78723e-05
0.000135465
0.000240157
9.57303e-05
0.000427732
0.000240323
0.000223881
0.00022783
7.25196e-05
0.000155129
0.00022775
0.000164902
0.000341646
0.000119811
0.000248456
0.000221342
0.000208208
0.000205011
0.000128141
1.1731e-05
2.08228e-05
0
0.000109937
0.00015885
0
0
0
0
0
0
0.000185573
0.000134667
9.61004e-05
0.000166902
0.000132358
0.000260549
0.000264503
2.15006e-05
0.000122976
9.30959e-05
0.000151268
6.60052e-05
9.81241e-05
0.00016502
0.000139121
9.73082e-05
0.00014009
7.81508e-05
3.59998e-05
7.76995e-05
5.10351e-05
2.56684e-05
0
0
0
5.01928e-09
1.99178e-06
0
1.53784e-06
1.69313e-05
0.000118579
4.34736e-05
0.00013329
3.20077e-05
0.000105774
9.68766e-05
7.47403e-05
8.05698e-05
0.000194137
5.61951e-05
7.25242e-05
4.12328e-05
5.60759e-05
5.08748e-05
7.42229e-05
3.58047e-05
3.73757e-05
7.6844e-05
6.65232e-05
6.20599e-05
5.79353e-05
7.80619e-05
6.94631e-05
7.04642e-05
5.52793e-05
3.47472e-05
3.57988e-05
8.81926e-05
9.26291e-05
7.09467e-05
6.99425e-05
6.81182e-05
4.99646e-05
8.19581e-05
4.83953e-05
6.02149e-05
4.84607e-05
7.33921e-05
6.73977e-05
7.13069e-05
5.92645e-05
7.06251e-05
2.91978e-05
8.55855e-05
2.02966e-06
4.57156e-05
8.21871e-05
6.47205e-05
3.663e-05
8.05793e-05
5.69452e-05
0.000281287
0.000143702
0.000298555
0.000130473
0.000106956
0.000115716
0.00010957
8.42082e-05
0.000102505
5.56714e-05
3.30645e-05
6.75904e-05
6.42425e-05
6.92045e-05
6.99248e-05
8.81378e-05
7.54468e-05
3.01276e-05
6.30275e-05
9.1644e-05
6.64015e-05
6.42072e-05
5.50623e-05
9.60118e-05
9.03352e-05
9.59519e-05
0.000110878
0.000104894
0.000114497
0.000111214
9.39578e-05
0.000122973
9.94536e-05
0.000126726
0.000108173
9.33454e-05
0.000126111
0.000115312
6.65745e-05
9.76006e-05
0.000130059
0.000152862
0.00010157
8.24681e-05
7.72797e-05
8.41583e-05
7.19224e-05
7.9261e-05
0.000114296
4.81326e-05
7.3138e-05
6.94961e-05
6.18195e-05
4.75006e-05
6.68311e-05
0.000112181
7.91398e-05
0.000110717
0.000318711
3.1466e-05
0.000290365
0.000561115
0.000104133
0.000386313
0.000206728
6.97837e-05
1.52669e-05
0.000204728
0.000236463
0.000151922
0.000139734
0.00023872
9.19072e-05
0.000200718
0.000221594
0.000251339
0.000174502
0.000204872
0.000116708
0
0
8.65476e-05
0
0.000111196
5.82489e-05
0
5.3903e-09
0
0
0
0
0
0
0
0
0.000115828
0.000282114
0.000134681
0.000150867
0.000120843
0.000160821
7.82156e-05
5.41487e-05
0.000115039
0.000122047
1.60094e-05
0.000215256
2.33732e-05
9.32377e-05
0.00014985
0.00013813
4.34024e-05
9.37242e-05
5.49781e-05
0.000106769
3.1893e-05
4.96708e-05
0
4.43434e-10
0
0
0
0
0
0
8.17136e-10
8.89395e-10
0
0
0
0
2.72769e-09
0
0
0
0
0
0
9.02685e-09
3.11949e-05
1.68662e-05
6.42047e-05
1.6819e-05
1.08054e-05
0.000115088
4.72893e-05
8.7813e-05
0.000126746
0.00010814
5.62355e-05
0.000244462
8.36494e-05
0.000169087
0.000234448
0.000194926
3.53973e-05
5.2112e-05
1.9023e-05
7.60946e-05
7.36625e-05
3.50254e-05
5.63823e-05
4.3378e-05
6.63564e-05
4.56332e-05
3.26451e-05
6.29722e-05
4.33714e-05
5.76818e-05
9.14389e-05
1.02261e-05
0.000100761
4.46826e-05
6.6022e-05
3.78879e-05
7.90511e-05
3.26193e-05
4.6209e-05
3.0243e-05
5.57293e-05
2.74856e-05
3.8554e-05
1.19598e-05
4.48861e-05
6.77668e-05
2.42362e-05
5.34839e-05
5.07931e-05
0.000123056
7.13343e-05
0.000118411
0.000177081
0.000149573
0.000117213
9.20881e-05
7.93711e-05
5.09808e-05
0.000131882
8.25446e-05
4.43297e-05
4.60158e-05
0.000100084
0.000130099
0.00011017
4.63677e-05
0.000143559
2.57502e-05
0.000120404
0.000122824
2.94162e-05
9.60909e-05
2.64558e-05
5.53018e-05
1.92267e-05
5.75175e-05
5.48662e-05
5.06669e-05
9.67222e-05
4.50815e-05
3.71813e-05
4.60812e-05
5.88896e-05
9.34797e-05
5.05301e-05
6.24922e-05
0.00010012
0.000102539
0.000100131
9.8187e-05
0.000110477
0.000102929
0.000139718
0.000102625
0.000128753
9.977e-05
0.000105114
0.000119459
0.000117334
0.000135157
0.000118094
0.000112053
7.97902e-05
0.000108302
8.93724e-05
9.3518e-05
8.27441e-05
8.61626e-05
9.94674e-05
3.16747e-05
5.96623e-05
0.000100364
0.00010813
6.48181e-05
3.86986e-05
4.59061e-05
0.000172634
0.000218244
0.000143615
0.000143496
0.000159089
0.000167539
7.21133e-05
0.000155096
3.3979e-05
0.000282194
0.000206028
0.000204425
7.81587e-05
0.000116389
0.000136635
5.75905e-05
0.000118822
0.000200564
0.000100186
0.000187566
0.000193429
0.000124603
0.000234164
0.000243333
0.000108835
0.000122097
7.84931e-05
0
0
0
0
7.79584e-05
0.000148495
0
0
0
0
0
0
0
0
0
0
0
0
0
0
0
0
0
0
0
0
2.30904e-09
0
0
2.44033e-10
9.37055e-10
2.51464e-09
0
0
0
0
0
0
0
0
0
0
0
0
0
0
0.000172558
5.50889e-05
0.00014383
0.000246728
0.000132712
0.000129279
0.000208105
0.00016027
0.000130426
5.95314e-05
0.00013903
9.03558e-05
9.3018e-05
0.000122513
9.92628e-05
6.90513e-05
9.7102e-05
6.23217e-05
8.2363e-05
3.42894e-05
7.08522e-05
2.38721e-05
0
0
0
0
0
0
0
0
0
0
0
0
0
0
0
0
0
0
0
0
0
0
0
0
0
0
8.8284e-09
0
0
0
5.92055e-05
0
1.19573e-05
1.48433e-05
4.16207e-05
4.73334e-05
0.000136286
0.000107303
6.69074e-05
7.60223e-05
5.95807e-05
0.000183533
0.000136447
8.1171e-05
0.000196929
0.000214479
0.000202543
8.12417e-05
0
0
0
0
0
0
0
0
0
0
0
0
0
0
0
7.68416e-09
0
5.77616e-05
5.44124e-05
8.14507e-05
3.58565e-05
4.81905e-05
7.48461e-05
3.29025e-05
3.4655e-05
2.27129e-05
2.53471e-05
2.63013e-05
3.18771e-05
1.32676e-05
2.89432e-05
3.8682e-05
3.47573e-05
1.55558e-05
4.17501e-05
6.66123e-05
8.70631e-06
8.75635e-05
2.9837e-05
5.26375e-05
9.91685e-05
1.8534e-05
3.3063e-05
2.5113e-05
3.36621e-05
1.93893e-05
2.64605e-06
7.54239e-06
1.28802e-05
0.000150698
0.000142666
0.000159935
0.000170528
0.000196392
0.000180403
0.000181841
0.00012965
0.000121094
0.000204899
0.000104074
0.000158728
0.000165678
0.000167534
8.63465e-05
0.00011573
0.000118199
0.000104317
7.95327e-05
6.00968e-05
6.30342e-05
2.95766e-05
4.49541e-05
9.33347e-05
4.34674e-05
9.11509e-05
0.000116758
3.64062e-05
4.79427e-05
0.000115055
3.13135e-05
3.75748e-05
4.13901e-05
0.000112037
5.17717e-05
0.00010378
3.47504e-05
3.61708e-05
1.68536e-05
7.15667e-05
0.000102461
4.92231e-05
4.51243e-05
0.000125081
0.000101758
7.15185e-05
0.000105898
0.000122636
0.000134114
0.000101185
9.23975e-05
0.000136677
0.000104067
0.000131333
0.000141636
0.000136286
0.000130845
0.000128078
0.000124576
0.000108451
9.10794e-05
6.01278e-05
7.73624e-05
8.61422e-05
7.72064e-05
3.15417e-05
7.63808e-05
6.33317e-05
5.60377e-05
4.19e-05
5.31781e-05
9.50924e-05
6.12223e-05
0.000110478
0.000118386
0.000126552
0.000129089
0.000170083
0.000151742
0.000192393
0.000232334
0.000186302
0.000125529
0.000207019
0.000192595
0.000186711
0.000290106
0.000227302
0.000218573
0.00025682
0.000222894
0.000233859
0.000314586
0.00027873
0.000256592
0.000318344
0.00026027
0.000281961
0.000305622
0.000259443
0.000208984
0.000253866
0.000312101
0.00025929
0.000253535
0.000309602
0.000264944
0.000338503
0.000278647
0.000314211
0.000312236
0.00027743
0.000331212
0.000261412
0.000294324
0.000269922
0.000323806
0.000308391
0.000323355
0.000326843
0.000334386
0.000120693
4.89647e-06
7.62581e-06
2.33025e-05
0.000120339
8.66419e-05
6.09438e-05
2.72739e-05
4.99461e-05
1.29008e-05
8.52008e-06
3.77831e-05
0.000109154
2.96034e-05
0.000110515
0.000106046
0.000199963
0.000112015
5.21768e-05
3.8159e-05
4.16758e-05
0.00010645
4.5904e-05
0
3.7466e-09
0
0
0
0
0
0
0
0
0
4.83009e-09
0
0
0
0
0
0
0
0
4.26463e-09
0
0
0
0
0
0
0
0
0
0
0
0
0
0
0
0
0
0
9.89218e-09
0
0
9.57895e-09
0
4.89235e-09
0
3.00708e-09
2.82064e-09
1.53706e-10
0
5.65592e-09
2.43284e-09
0
0
2.99348e-09
0
0
0
0
0
0
0
0
0
0
0
0
0
0
4.90687e-09
0
0
0.000101679
0.000193972
0.000106101
0.000143317
0.000367582
0.000144118
0.000115615
0.000106344
0.000202386
0.000211619
6.40656e-05
7.14395e-05
6.20024e-05
0.00017812
7.44666e-05
3.07006e-05
6.95762e-05
8.12816e-05
7.94323e-05
5.57915e-05
7.45676e-05
4.72575e-05
0
0
2.58858e-08
2.64962e-08
0
0
0
0
0
5.02281e-09
0
0
0
0
0
0
0
0
0
0
0
0
5.73916e-09
3.74789e-09
0
0
0
4.25434e-05
3.36934e-05
4.45865e-05
5.12381e-05
7.44649e-06
9.80955e-05
3.61961e-05
0.000143924
3.54977e-05
0.000130197
5.77942e-05
5.3603e-05
0.000144812
0.000116231
0.000220467
5.76208e-05
0.000170663
8.66629e-10
0
2.25177e-08
0
0
1.91316e-10
0
0
7.81606e-11
0
0
0
0
0
0
0
0
0
0
0
0
0
0
0
5.4421e-09
0
6.15358e-05
6.66649e-05
5.59084e-05
8.22474e-05
5.13645e-05
7.98406e-05
4.04465e-05
4.33594e-05
4.11635e-05
3.41744e-05
3.58983e-05
2.60732e-05
5.88007e-05
5.03134e-05
1.21925e-05
6.12804e-05
6.90417e-05
8.40551e-05
5.58526e-05
6.09274e-05
1.69321e-05
1.61319e-05
4.04623e-05
9.67771e-06
2.28104e-05
1.37969e-05
8.06431e-06
7.57639e-06
2.58114e-06
8.97525e-06
1.57024e-05
2.28718e-05
8.5362e-05
0.00021236
0.000192239
0.000124233
0.000205358
0.000168878
0.000148075
0.000187525
0.000279334
0.000198875
0.000111681
0.000254347
0.000308882
0.0002976
0.000330062
0.00033804
0.000316211
0.000304248
0.000300332
0.000275471
0.000313219
0.00024335
0.000283123
0.000283985
0.000316517
0.000313702
0.00032856
0.0002925
0.000305445
0.000268302
0.000132054
0.000133734
0.000243563
0.000139732
7.23771e-05
7.98803e-05
7.57938e-05
0.0001288
5.10091e-05
8.56999e-05
2.56762e-05
2.41767e-05
1.1704e-05
1.42049e-05
4.26666e-05
9.3024e-05
0.000108636
8.62233e-05
6.77507e-05
3.1152e-05
6.70262e-05
2.50637e-05
4.10639e-05
0.000142489
0.000141198
0.000136209
9.15673e-07
0.000130444
0.00013909
0.000105106
0.000110005
6.25367e-05
3.74095e-05
0.000155773
7.38211e-05
0.000126991
0.000115954
7.37269e-05
0.000101435
0.000132955
0.000160425
0.000139898
0.00014125
0.000140714
0.000108429
0.000136534
0.000113077
0.000108756
7.46633e-05
8.08119e-05
7.80738e-05
7.2865e-05
9.03008e-05
0.000103403
9.54824e-05
6.07224e-05
9.02701e-05
0.000126353
7.68862e-05
0.000127993
0.000123404
7.28849e-05
3.47134e-05
0.000132481
0.000100895
0.000145119
0.000168384
0.000135137
0.000213992
0.000174555
0.000238393
0.000158564
0.000220223
0.000309637
0.00025273
0.000208914
0.000229534
0.000218556
0.000232663
0.000202016
0.000241383
0.000220338
0.000213741
0.000273845
0.000236148
0.000303087
0.000319117
0.000343669
0.000265227
0.000314261
0.000240909
0.000356721
0.000308315
0.000271538
0.000271236
0.000280753
0.000263483
0.000267189
0.000267201
0.000237851
0.00023676
0.000230921
0.000222934
0.000136779
2.0151e-05
1.54796e-05
3.7213e-05
7.04203e-05
6.70078e-05
4.44836e-05
4.93173e-05
6.39868e-05
3.02668e-05
2.59303e-05
1.89361e-05
4.92308e-05
5.20371e-05
7.63378e-05
0
0
5.02125e-05
4.10689e-06
4.22513e-05
2.60127e-05
7.68768e-05
6.74131e-05
0.000126657
0.000295546
0
0
0
0
3.74261e-09
2.86098e-09
0
0
0
7.13821e-09
0
0
0
0
0
7.05138e-09
0
4.38362e-09
0
0
0
0
0
0
0
0
3.22916e-10
0
0
0
1.74524e-09
0
0
0
0
0
0
0
0
0
0
0
0
0
0
0
0
5.71123e-09
0
1.71923e-09
0
0
0
0
0
0
0
0
0
0
2.61517e-05
0.000263133
9.63396e-05
0.000111964
0.000193004
0.000105112
0.000239852
6.5629e-05
8.62731e-05
7.86304e-05
6.70501e-05
0.000114645
6.72511e-05
2.66257e-05
4.26316e-05
2.44511e-05
4.89378e-05
4.15079e-05
3.55812e-05
4.93764e-05
7.81208e-05
5.56712e-05
2.62052e-08
0
4.51686e-08
0
0
0
0
0
0
0
0
0
0
0
0
0
0
0
0
0
0
0
0
6.17302e-09
0
0
5.01148e-05
4.66606e-05
4.56139e-05
3.03525e-05
7.49702e-05
5.41637e-05
8.88112e-05
0.000107561
8.38076e-05
0.000150787
5.90236e-05
7.59057e-05
0.000102918
0.000175637
0.000161467
0.000137848
0.000171284
7.7285e-05
0
0
0
0
0
0
0
0
0
0
0
0
0
0
1.26124e-09
0
0
0
0
4.80241e-10
0
4.13306e-10
0
0
7.62792e-09
0
0
0
0
0
0
4.11488e-05
5.17365e-05
1.85029e-05
3.20317e-05
9.36391e-06
5.05809e-05
7.59868e-06
3.4003e-05
2.10955e-05
1.53389e-05
1.39697e-05
1.03908e-05
1.00994e-05
1.33656e-06
7.31391e-06
4.63996e-05
1.9644e-05
5.64249e-05
7.51567e-05
9.50398e-05
7.06469e-05
5.52291e-05
7.70046e-05
4.38854e-06
1.75009e-05
1.97353e-05
2.19478e-05
0
0
0
7.52748e-07
5.66651e-06
1.92925e-06
0
0
0.000226955
0.000161362
0.000145351
0.000198822
0.000183845
0.000155671
0.000191942
0.000171399
0.000168012
0.000198921
0.000171836
0.000240726
0.000277171
0.000230667
0.000234956
0.000231492
0.000220515
0.000202419
0.000206327
0.00020061
0.000259715
0.000196374
0.000186849
0.000244349
0.000242967
0.000273581
0.000238829
0.000264198
0.000245463
0.000297293
0.000303488
0.000314062
0.000265642
0.00024793
0.000302932
0.000121814
0.000180525
0.000240627
0.00016533
0.000158424
0.000189704
0.000209849
0.000222895
0.000292048
0.000168556
0.000261206
0.000119191
0.000317815
0.000315177
0.000348275
0.000357363
0.000310605
0.000321741
0.000317683
0.000286358
0.000276091
0.00031094
0.000261798
0.000329239
0.000264137
0.000335528
0.000258596
0.000310664
0.000100137
0.000136796
8.24006e-05
0.000108655
8.29939e-05
0.000152897
0.000195846
6.44405e-05
8.00942e-05
6.67115e-05
1.48715e-05
0.000258299
0.000218855
0.000247742
0.000210688
0.000207322
0.0001943
0.000165471
0.000214685
0.000155721
0.000179818
0.000136353
0.000150859
0.000168268
0.000199679
0.000166912
0.000329729
0.000243915
0.00022699
5.24906e-05
4.00909e-05
9.9033e-06
7.4707e-05
6.48825e-05
4.16576e-05
0.00015697
0.000132614
2.32168e-05
6.3738e-05
0.000160316
0.000119058
0
2.564e-05
0
0
2.21867e-06
0
0.000195825
5.92309e-05
1.04207e-05
5.5606e-05
0.000205744
0.000123067
8.97029e-05
0.000146376
9.7314e-05
0.000204005
0.000116313
9.95516e-05
0.000112213
0.000112692
0.000112402
0.00012397
0.000106284
0.000125895
9.70993e-05
0.000102174
0.000104802
0.000158946
9.5778e-05
0.000123431
0.000139619
0.000130262
9.57784e-05
0.000124865
0.000148573
9.62184e-05
0.000137976
4.88851e-05
9.37192e-05
6.81113e-05
4.62343e-05
0.000121301
7.53301e-05
0.000102556
0.000171995
0.000107504
0.00019969
0.000118098
0.000185375
0.000326323
0.000221025
0.000184689
0.000206671
0.000187882
0.000205786
0.000161026
0.000230088
0.000204847
0.000226398
0.000220037
0.000207981
0.000274054
0.00025536
0.000224817
0.000257163
0.00030153
0.000220593
0.000375804
0.000228653
0.000283712
0.000284047
0.00019878
0.00026367
0.000132801
1.27648e-05
3.53356e-05
2.84616e-05
1.74297e-05
2.06814e-05
2.52874e-05
6.16533e-06
4.08403e-05
3.1325e-05
3.0423e-05
5.35714e-05
0
2.36925e-05
4.05194e-05
0
0
0
0
2.95286e-05
7.51127e-06
2.84743e-05
1.7104e-05
0
0
0
0
0
2.60318e-09
2.75524e-09
4.00214e-09
0
2.6837e-11
0
0
0
0
0
0
0
0
0
9.91247e-09
0
0
0
0
0
0
0
0
2.76098e-07
0
2.73498e-10
0
0
0
0
0
0
3.93855e-10
0
0
0
7.21118e-10
0
0
0
0
1.23872e-08
0
0
0
0
0
0
0
0
5.46454e-09
0
0
0
0
0
0
0
0
0
0
5.99136e-08
0
0
0
0
9.13157e-08
0.000272159
0.00030524
0.000225037
0.000378135
0.0003489
0.000263925
0.000330337
5.5622e-05
1.71949e-05
0.000179983
0.000179255
0.000150667
9.14931e-05
0.000101818
8.63167e-05
3.52816e-05
7.89596e-05
6.45129e-05
6.40237e-05
5.18968e-05
3.47431e-05
3.84036e-05
3.31619e-05
2.93846e-05
6.59992e-05
0
0
0
0
0
0
0
0
0
0
0
0
0
3.08861e-05
8.56477e-05
7.90018e-05
0
0
0
0
0
0
0
0
0
0
0
5.09735e-05
4.24163e-05
8.17915e-05
8.85468e-05
0.000191626
7.15909e-05
0.000222934
6.79028e-05
2.54899e-05
0.000116003
0.000161249
0.000191615
9.02237e-05
0.000146306
0.000275088
7.22637e-05
0
1.10125e-09
0
0
0
0
0
0
0
0
0
0
0
8.40498e-09
0
0
0
1.34473e-09
0
2.89062e-09
0
0
0
4.7247e-09
0
0
0
0
0
0
2.11504e-09
0
0
0
0
0
0
1.3511e-05
3.40965e-05
3.8752e-05
3.38588e-05
3.01379e-05
1.53399e-05
8.32191e-06
2.01157e-05
1.95387e-05
6.85239e-06
2.25496e-05
3.58037e-05
2.17461e-05
0
0
0
2.25963e-08
1.61097e-05
1.0797e-05
6.26929e-05
2.63474e-06
4.53408e-05
6.2519e-05
7.16567e-05
6.14387e-05
0
0
0
0
0
0
0
0
0
0
0
0
0.000213697
0.000217472
0.000214753
0.000194329
0.000162147
0.000272181
0.000370957
0.000331404
0.00024897
0.000212984
0.000224877
0.000234622
0.000255937
0.000228013
0.000306638
0.000282786
0.000326816
0.000299605
0.000280604
0.000336148
0.000262731
0.000266406
0.000175261
0.000256029
0.000215244
0.000236505
0.000201402
0.000185516
0.000208079
0.000260103
0.000234851
0.000223299
0.000229943
0.0003024
0.00016264
0.000335339
0.000329271
0.000269931
0.000192147
0.000350915
0.000336083
0.000325022
0.000345044
0.000321803
0.00030514
0.000339146
0.000271057
0.000418952
0.000253141
0.000332449
0.000243556
0.000357352
0.000337482
8.40623e-05
0.000134261
0.000124551
0.000143167
8.72221e-05
0.000134777
0.00011752
0.000185375
0.000140179
7.8789e-06
1.80853e-05
7.05121e-05
0.000279652
0.00024042
0.000244557
0.000243499
0.000225595
0.000222639
0.000182317
0.000190993
0.000133344
0.000139771
0.000157684
0.000130944
0.000137788
0.000150952
0.000171197
0.000180211
0.000213704
0.000287262
0.000206101
0.000202507
0.000222078
0.000174613
0.0002701
0.000332776
0.000406879
1.60401e-05
2.57979e-05
5.72249e-05
2.36854e-05
4.1856e-05
0.000100298
0
0
5.09835e-05
0
0
0
0
4.13539e-09
0
1.92428e-09
0
0
0.000186416
0
3.88652e-09
0.000240365
0.000142702
0.00011811
2.24599e-05
6.28395e-05
0.000127482
0.000184454
9.43954e-05
9.43698e-05
6.70415e-05
6.22739e-05
9.9984e-05
0.000102689
0.000110841
0.00010347
0.000125145
0.000101013
0.000138119
0.000101512
0.000165105
0.000142878
0.000176487
0.00021596
0.000110398
5.67973e-05
0.000138961
0.000117008
0.00010483
5.80507e-05
7.50955e-05
8.75012e-05
5.67473e-05
8.74989e-05
0.000172851
8.54687e-05
0.000195005
0.000139538
0.000159755
0.000230379
0.000262826
0.000193369
0.000203959
0.000192922
0.000148447
0.000185682
0.000200415
0.00022524
0.000244914
0.000236822
0.000205258
0.000213567
0.000222454
0.000192658
0.000209962
0.000177161
0.000325788
0.000214387
0.000280899
0.000399852
0.00014644
0.000290018
0
0
0
0
5.81172e-05
1.54674e-05
5.11018e-06
2.742e-05
6.00459e-05
0
0
0
0
0
0
0
0
0
0
0
0
0
0
0
0
0
0
0
3.63215e-09
1.52937e-09
0
0
0
0
0
0
0
0
0
0
0
0
5.81727e-10
0
0
0
0
0
0
0
0
2.58112e-07
0
0
0
2.53874e-09
1.3759e-09
0
0
0
0
0
6.23934e-09
0
1.31165e-08
3.5597e-08
0
0
4.70234e-08
1.52197e-07
0
0
0
0
3.43022e-09
0
5.79164e-09
0
0
0
0
2.69244e-09
1.73027e-09
1.42695e-09
0
0
0
0
0
0
0
0
0
0
1.70238e-09
0
0
0
0
0
0
0
0
0.000268289
0.000386966
0.000354329
0.000446904
0.000366605
0.000426736
0.000444242
0.000347595
0.000548796
0.000434546
0.000127869
0.000266357
0.000133156
0.000180505
0.000204051
4.68489e-05
2.11201e-05
0.000167969
1.57634e-05
3.7213e-05
5.3674e-05
2.81564e-05
4.43345e-05
4.72263e-05
1.8724e-05
1.45944e-05
5.18871e-05
0
0
0
0
0
0
0
0.000152785
2.30549e-05
8.97662e-05
0
0
0
0
0
0
1.41471e-09
0
0
3.98682e-10
0
0
0
0
0
7.39719e-05
8.65777e-05
0.000144806
4.23172e-05
6.01344e-05
8.72829e-05
0.000132048
0.000113793
9.02054e-05
0.000170292
0.000105014
3.63244e-05
9.40434e-05
0.000264654
6.21281e-05
7.36895e-05
0
0
1.37409e-10
3.06893e-09
0
0
3.11884e-09
4.311e-09
0
0
0
0
0
0
0
1.1614e-08
1.08402e-09
1.0541e-08
0
0
0
2.3631e-09
0
0
0
6.11976e-09
0
0
0
0
0
0
0
0
0
0
0
0
0
0
0
0
0
0
0
4.03056e-05
2.72615e-05
2.50581e-05
8.80408e-06
1.96137e-05
3.29573e-05
2.14808e-05
6.46155e-05
3.02552e-05
0
0
5.40681e-08
1.02006e-08
2.51276e-05
4.60341e-05
0
0
0
0
0
0
0
1.57725e-05
3.14891e-05
4.21934e-05
3.10185e-05
9.74484e-06
0
0
0
3.13988e-09
0
0
0
0
0
0
0
2.71616e-09
0.000212924
0.000238483
0.000267333
0.000227039
0.000233432
0.000258461
0.000346746
0.000227537
0.000534141
0.000268656
0.000318435
0.000455023
0.000342102
0.00033356
0.000238748
0.000270609
0.000233958
0.000243079
0.000253984
0.000280862
0.000260078
0.000247507
0.000313607
0.000286966
0.000305317
0.000302443
0.000240552
0.000271425
0.000277846
0.000276478
0.000206325
0.00024382
0.000157583
0.000239886
0.000240822
0.000289785
0.000270475
0.000123134
0.000260447
0.000357856
0.00027004
0.000276223
9.7544e-05
0.000217374
0.000247473
0.000279509
0.000258352
0.000286484
0.000267567
0.000401904
0.000327022
0.000365435
0.000171244
0.000284242
0.000326874
0.000253476
0.000284625
0.000120281
0.000159533
8.69216e-05
8.04923e-05
0.00018109
0.000144069
7.68055e-05
0.00019306
0.000109226
6.2876e-05
3.78493e-05
6.16347e-05
8.32301e-05
0.000194863
0.000184859
0.000353426
0.000196022
0.000268627
0.00020998
0.000183159
0.000188375
0.000151115
0.000124008
0.00016153
0.000121897
0.000115237
0.00010997
0.000111016
0.000131598
0.000148503
0.000225423
0.000158356
0.000358577
0.000230378
0.000145338
0.000170536
0.000311243
0.000451859
0
0
0
0
0
0
0
0
2.04742e-09
0
0
0
0
0
0
0
2.38339e-09
0
0
0
0
4.87938e-05
2.65798e-05
8.19077e-05
6.45065e-05
3.90103e-05
7.49725e-05
0.000150138
4.18324e-05
4.38984e-05
5.80155e-05
9.2861e-05
0.000113322
9.53038e-05
9.89693e-05
9.8596e-05
0.00013174
0.000136162
2.22393e-05
0.000100563
0.000155461
9.52221e-05
0.000157377
0.000103144
9.9747e-05
0.000114572
0.000105909
6.92408e-05
6.35338e-05
7.17108e-05
0.000157122
0.000124297
0.000120593
9.30765e-05
0.000172817
0.000177568
0.000108093
0.000237491
0.000171733
0.000190144
0.000174656
0.000213899
0.000185411
0.000185764
0.00018777
0.000237591
0.00021148
0.000250469
0.000208279
0.000205436
0.000177272
0.000200151
0.000146794
0.000241842
0.000173597
0.000215567
0.00044602
0.000192057
0.00026688
0
0
1.21592e-06
1.71364e-10
0
0
0
0
0
0
0
1.71659e-10
0
2.50853e-09
1.26086e-09
3.82921e-09
2.93578e-09
0
4.85539e-09
3.91938e-07
0
0
0
1.01776e-08
0
6.99419e-09
5.54877e-09
0
0
0
0
0
0
0
6.57426e-09
2.24026e-09
0
0
0
0
0
0
7.46541e-09
0
0
0
0
0
0
0
0
0
0
0
0
0
0
0
0
0
0
0
0
0
0
0
0
0
0
0
0
0
0
0
0
0
0
0
0
0
0
0
6.83595e-09
0
0
0
0
0
0
0
0
0
0
0
0
0
0
0
0
0
0
0
0
0
0
0
0
0
0
0
0
0
1.19759e-09
0
0
0
0
0.000490218
0.000424799
0.000551102
0.000563638
0.000572971
0.00061192
0.00053945
0.000408011
0.000480397
0.00048227
0.00052929
0.000586857
0.00064118
0.000439672
0.000447477
0.000170349
0.000180281
0.000208607
0.00017793
0.000156249
2.73994e-05
4.78131e-05
6.33536e-05
2.7838e-05
6.48126e-05
1.87287e-05
3.56969e-05
2.65879e-05
3.42231e-05
0
0
0
2.88424e-09
5.63712e-05
5.97529e-05
6.58329e-06
3.55406e-09
0
5.93159e-05
0
0
0
0
0
0
0
0
1.09492e-09
0
1.1641e-09
0
0
0
6.98877e-05
7.73378e-05
0.000136854
4.86141e-05
6.19919e-05
3.8629e-05
9.42614e-05
5.99723e-05
0.000122111
0.000115773
7.66705e-05
7.74516e-05
4.63748e-05
5.61575e-05
8.07645e-05
8.82543e-05
0
1.05605e-09
0
0
0
0
0
9.28041e-11
0
0
0
0
0
0
0
0
0
0
0
7.80076e-11
0
0
0
0
0
0
0
0
0
0
0
0
0
0
0
0
0
0
1.10634e-09
5.9655e-09
0
0
0
0
5.57718e-09
0
0
0
1.01202e-08
0
0
0
0
0
0
0
0
5.49556e-05
2.85296e-05
7.77468e-06
3.04507e-05
1.39223e-05
9.48167e-06
6.73197e-06
3.68901e-06
4.59332e-06
1.78983e-06
8.23881e-06
0
0
0
0
2.72567e-06
4.15341e-06
0
0
0
0
5.99574e-05
4.28146e-05
2.10971e-05
0
0
1.79012e-05
0
1.97435e-05
0
0
0
0
5.63459e-09
5.59481e-09
0
0
0
0
0
0
0.000355654
0.000347544
0.00013325
0.00035177
0.000705342
0.000429342
0.000322991
0.00025024
0.000342001
0.000454279
0.000485204
0.000380558
0.000462492
0.000266458
0.000294549
0.000269615
0.000258424
0.000278179
0.000278123
0.000405132
0.000311132
0.000280827
0.000278263
0.000286117
0.000333421
0.000285689
0.000370205
0.000358457
0.000295293
0.000246462
0.000268849
0.000242488
0.000203116
0.000354836
0.000300136
0.000313851
0.000192111
0.000369034
0.000352257
0.000206361
9.40857e-05
0.000209193
0.000135704
0.000161675
0.000158509
0.00025256
0.000209057
0.000262235
0.000248828
0.000223485
0.000424259
0.000274562
0.000302464
0.00027263
0.000250001
0.000336867
0.000167286
9.79641e-05
0.000115366
0.000195441
0.000128404
9.25459e-05
0.00015108
0.000157182
0.000187415
2.01019e-05
0.000132373
6.58331e-05
0.000103876
3.91665e-05
6.19046e-05
3.38154e-05
0.000229558
0.00021798
0.000201931
0.000254186
0.000143265
0.000125694
0.00013153
0.000155638
0.000124281
0.00011779
0.000138387
0.000106788
6.70744e-05
9.36816e-05
8.00845e-05
8.28725e-05
0.000132674
0.000162328
0.00021656
0.000276053
0.000337076
0.000416626
0.000120744
9.60264e-05
0.000525343
0.000422821
0
0
3.10922e-09
0
0
2.40144e-09
5.06272e-09
0
0
0
0
4.42813e-09
2.3107e-09
0
0
0
0
0
4.44521e-05
4.83582e-06
0
4.97022e-05
4.33215e-05
5.49988e-05
6.43816e-05
7.70183e-05
7.15928e-05
9.73723e-05
8.44681e-05
7.89815e-05
9.36642e-05
9.38745e-05
9.95532e-05
0.000129018
0.000139361
0.00011166
8.81506e-05
0.000170594
2.09011e-05
0.000145838
0.000163129
8.96203e-05
1.77302e-05
2.03572e-05
6.42579e-05
0.000103817
9.98385e-05
3.07957e-05
0.000115895
7.59547e-05
0.000106203
0.000173266
6.03205e-05
0.00015447
0.000195012
0.000102292
0.000120294
0.000135367
0.00014024
0.000167534
0.00016126
0.000172122
0.000182354
0.000211082
0.000204131
0.000170787
0.000205017
0.00019424
0.000189755
0.000205636
0.000155979
0.00022936
0.00015244
0.000243426
0.000231095
0.000158956
0.000221865
0.000183664
0
0
3.80185e-09
0
0
0
0
1.15987e-08
0
9.3029e-10
0
0
0
3.45786e-09
1.87309e-09
1.25706e-09
1.77511e-09
4.85855e-09
3.88845e-09
0
0
0
0
0
0
0
0
0
0
0
0
0
0
0
0
5.31099e-09
0
0
0
7.56713e-07
0
0
0
0
0
0
0
0
0
0
0
0
0
0
0
0
0
0
8.44387e-07
0
0
0
0
0
9.34916e-10
4.24861e-10
1.18445e-09
0
0
0
0
0
0
0
0
0
0
0
0
0
0
0
0
0
0
0
0
0
0
0
0
0
0
0
0
0
0
0
0
0
0
0
0
0
0
0
1.18975e-09
0
0
0
4.02021e-10
0
0
4.72504e-08
4.74361e-09
0
0.000548011
0.000564444
0.000491921
0.000607504
0.000625003
0.000674309
0.000671083
0.000504044
0.000541249
0.000557473
0.000631486
0.000634836
0.000678363
0.000699922
0.000624839
0.000497924
0.000466512
0.000595274
0.000463077
0.000125744
9.45646e-05
2.69746e-05
0.000130437
1.24143e-05
9.57868e-05
0.000140882
2.60244e-05
5.21689e-05
2.93471e-05
5.04221e-05
6.66543e-05
3.84229e-05
3.66239e-05
0
0
2.53662e-05
5.9835e-05
9.41506e-06
0
0
1.4661e-05
6.86364e-06
0
0
0
0
0
0
0
0
5.54949e-09
0
0
0
0
0
0
8.75303e-05
1.76135e-05
6.33518e-05
7.22998e-05
9.30022e-05
2.14423e-05
6.09633e-05
9.6098e-05
9.7594e-05
1.79731e-05
3.53049e-05
7.18535e-05
8.89765e-05
0
0
0
0
0
0
6.76212e-09
1.97592e-09
0
0
1.36381e-09
0
0
0
0
0
0
2.63898e-07
0
0
0
0
0
0
0
0
0
0
2.03497e-08
0
0
0
0
0
0
0
0
0
0
0
0
0
0
0
0
2.27086e-09
0
0
0
0
0
7.68961e-09
0
0
0
0
0
0
0
0
0
0
0
1.31904e-05
3.84295e-05
2.97488e-05
6.02478e-06
1.00813e-05
3.87907e-06
1.17908e-05
6.03889e-06
9.28018e-06
0
0
0
0
0
0
0
0
0
0
0
0
0
0
2.80093e-06
2.45897e-05
0
0
0
4.28955e-05
3.12894e-05
4.61967e-05
0
0
0
2.16731e-09
0
0
0
0
0
0
0
0
0.000502628
0.000241861
0.000395213
0.000219174
0.000843308
0.00046526
0.000353106
0.000365659
0.000381625
0.000505771
0.00045103
0.000541856
0.000533074
0.000580668
0.000292974
0.000264108
0.000249722
0.000234411
0.00025381
0.000268309
0.000401577
0.000319825
0.000309184
0.000307681
0.000294112
0.000184302
0.000304708
0.000325424
0.000399373
0.000383444
0.000285381
0.00027289
0.000208886
0.000218196
0.00036957
0.000335023
0.000260114
0.000318005
0.000397814
0.000375698
0.00010022
4.36116e-06
0.0001717
0.000214532
5.87596e-05
4.07349e-05
0.000110932
0.000323144
0.000197697
0.000186927
0.000265333
0.000328266
0.000270053
0.000467081
0.000277486
0.000286836
0.000343613
0.000206522
6.39253e-05
8.50502e-05
0.00022201
0.000148347
9.47413e-05
0.000158272
0.000164889
0.000171325
9.85045e-05
1.76754e-05
4.53314e-05
1.75647e-05
6.74464e-05
3.53924e-05
0.000123952
0.000142826
9.41847e-05
0.000137353
0.000114606
0.000101714
0.000101641
8.91309e-05
0.000112558
0.000108982
7.06883e-05
8.23622e-05
4.40315e-05
0.000109919
8.7442e-05
0.000163591
0.000253244
0.000305271
0.000384522
0.000433124
0.000472686
7.33222e-05
3.21617e-05
0.000489618
0.00053236
0
0
0
0
0
0
0
0
0
4.89704e-09
0
0
0
0
0
0
4.9717e-09
0
0
1.16311e-05
0
5.65361e-05
6.23998e-05
8.07501e-05
5.10976e-05
0.000114177
3.5951e-05
5.0945e-05
5.57532e-05
4.77268e-05
0.000105896
0.000140411
0.000121593
0.000134434
0.000147056
0.000104003
0.000115808
8.05509e-05
0.000100876
9.14809e-05
0.000109721
0.000146052