/*--------------------------------*- C++ -*----------------------------------*\
  =========                 |
  \\      /  F ield         | OpenFOAM: The Open Source CFD Toolbox
   \\    /   O peration     | Website:  https://openfoam.org
    \\  /    A nd           | Version:  8
     \\/     M anipulation  |
\*---------------------------------------------------------------------------*/
FoamFile
{
    version     2.0;
    format      ascii;
    class       surfaceScalarField;
    location    "2460";
    object      phi;
}
// * * * * * * * * * * * * * * * * * * * * * * * * * * * * * * * * * * * * * //

dimensions      [0 3 -1 0 0 0 0];

internalField   nonuniform List<scalar> 
788991
(
0.0528201
0.0121066
0.0430842
0.0781511
-0.0394187
0.101872
0.0383658
-0.0244852
0.0624494
-0.0615485
0.0290689
-0.0935417
0.0119289
0.0367964
0.0651922
0.0602132
-0.0196214
-0.00466011
0.0757087
-0.0414004
-0.0239595
-0.0176224
0.0265287
-0.0106942
-0.00230076
-0.0204123
0.00768601
-0.0244066
0.0128015
-0.0176079
-0.0321836
-0.0154887
-0.00223866
-0.00928935
-0.0395825
0.00563687
-0.0323552
0.0165186
0.0725943
-0.0173421
0.0292477
-0.0428488
-0.0204311
0.0541852
-0.0610801
0.0173609
0.0391763
-0.0171579
0.0314531
-0.0290551
0.128109
0.00662251
0.0580618
0.00702511
-0.0769049
-0.0541686
0.00313582
-0.00488772
-0.0222759
-0.00448023
-0.00950826
-0.0539893
0.0354069
-0.0441779
0.0081505
-0.0151691
0.0116654
0.000449477
-0.0687811
0.0165119
0.0113412
-0.00687478
0.00800786
0.00320576
0.0062304
0.00460336
-0.0437758
0.0616667
-0.0117997
0.0110003
-0.0450596
0.0400446
-0.0075419
-0.00529023
-0.0117845
-0.0410675
-0.00138005
0.0212492
0.00757634
0.0191849
-0.0930065
0.00395287
0.0134577
0.0459399
0.0144546
-0.040733
0.0103376
-0.0435839
0.0597027
-0.0127183
-0.0254208
-0.00381231
0.0231168
0.0466059
-0.00933507
0.00274012
0.0028256
-0.0292897
0.0316301
0.00145308
-0.0227453
-0.00346831
-0.00795847
0.00216401
0.0262984
0.0124482
0.0381446
0.00933078
0.0264374
0.0041939
-0.0212051
0.0181967
-0.00937166
-0.00963405
0.0040054
0.0399494
-0.0151282
0.0201837
0.010265
-0.0233632
-0.0091949
-0.00972453
0
0
-0.000662989
0.0161786
-0.000632682
-0.0201106
-0.0230807
-0.0115496
-0.0142716
0.00325017
-0.00977445
-0.0312303
-0.00599536
0.0222269
-0.0153893
-0.0200988
-0.00832689
-0.00588584
-0.00913689
0.0205252
-0.00441023
-0.0116222
0.00313605
-0.0173781
0.0171788
0.016589
0.0346055
-0.0132389
0.0142583
-0.0252184
0.0198722
0.035923
-0.0138479
0.00916232
-0.0268236
0.0246626
0.0413081
-0.0223593
0.0127743
-0.0396134
0.0257613
0.0494275
0.02849
0.0209396
0.0496063
0.0187751
0.0468127
0.0273067
0.018307
-0.0480742
0.0148499
0.0451998
-0.0335869
0.0278785
-0.0445444
0.0161965
0.0536144
0.0289709
0.0348157
0.0439999
0.0236413
0.0549581
-0.0258271
0.0228916
-0.0438323
0.0274823
0.0522662
-0.0238049
0.0256067
0.0402089
0.0319577
0.0539413
0.0235013
0.0197642
-0.0407514
-0.0219928
0.0495759
-0.0286925
0.0316486
0.0484357
0.0302652
0.0371633
-0.009196
0.0262938
-0.0398364
-0.0137257
-0.04183
0.0098137
-0.0478965
-0.0273771
0.00540976
0.0201401
-0.0241501
0.0091011
0.00601493
0.0244493
0.0140373
-0.0129439
0.00515634
0.000874072
0.00599243
0.00981985
-0.000769174
-0.000268391
0.0156275
0.010724
0.0194462
-0.0114076
0.0199915
0.0120096
0.0179593
0.0350331
-0.0122057
0.0235173
0.0445414
0.0252325
0.0175722
0.0500693
-0.0273903
0.0178549
0.0478496
-0.0359275
0.0211934
0.0568697
-0.036605
0.0270686
0.0622893
0.0374828
0.0302672
0.0609531
-0.0296365
0.0250993
0.0550113
0.0248316
0.0260537
0.061144
-0.0248449
0.0271623
0.00757555
0.035049
0.0292829
0.0530867
0.0137562
0.0283072
0.0191773
0.0332924
0.0358906
0.00298825
0.0289491
0.0355496
0.0586949
-0.0512428
-0.0287286
-0.000752462
0.0248389
0.0452663
-0.0621615
0.0698125
0.0417158
0.0424154
-0.0102464
-0.00913827
-0.107293
0.00944251
0.0231391
-0.0574763
-0.120472
0.00112767
0.0252291
-0.0597229
0.0145012
-0.00104544
-0.0290319
-0.0474313
0.00836564
-0.0114537
0.0221275
-0.0969434
0
-0.0441772
0.0393019
0.0470474
0.0170033
0
0
0
0
0
0
0
0
-0.0182891
0.0416546
0.0235361
-0.0253312
0.0105822
-0.0216242
0.0495856
0.0222131
-0.00309777
0.0714076
0.0399242
0.0157974
0.034395
0.030046
-0.013891
0.00681422
0.02925
0.0127855
0.0124106
0.011528
0.0108181
-0.0403945
0.00844924
-0.0163091
-0.0178572
-0.000769209
-0.0449863
-0.0136035
0.00969316
-0.00731132
-0.0092826
0.00979524
-0.0157462
0
0
0
0.000143773
6.99251e-05
-0.0159671
0
-0.00248598
0.010514
-0.00332299
0.00395244
-0.0220982
0.0140372
-0.00683504
-0.0424558
-0.0122643
-0.00881785
-0.0239581
-0.00606826
0.000870136
-0.0136704
-0.010791
-0.00555481
-0.025676
0.00228966
0.0118877
0.00171496
-0.0327418
-0.000925027
-0.0158506
0.0103993
-0.0190224
-0.0192985
0.0151483
0.0244934
-0.0252001
0.0198072
-0.0340776
-0.0270722
0.0170183
-0.0411251
-0.0307601
0.0193386
0.0453309
-0.031414
0.0232087
-0.0481891
-0.0095661
0.020044
0.0248981
0.0215101
-0.0368655
0.0498462
-0.0277557
-0.00452003
-0.00720402
0.0205874
0.0252837
-0.0092211
-0.0452718
0.0322729
-0.00970588
-0.0291664
0.00422043
-0.028294
0.0137062
0.0501041
-0.030333
0.0161642
-0.0523228
-0.0354039
0.00955801
-0.0354433
-0.0493451
-0.0024684
-0.0476643
0.00538339
-0.0551506
0.0313934
0.000193996
-0.00871744
0.00977899
0.0216945
-0.0274326
0.00545174
0.0124537
0.0641482
-0.131564
-0.0333671
0.0685211
-0.0218343
0.00231083
0.0452287
-0.00399839
0.000355284
-0.0301348
-0.0234264
0.00573702
-0.0116653
-0.0154262
0.00968626
0.00684691
-0.00140488
0.010686
-0.000328437
0.00747236
0.0102958
-0.011701
0.0180336
0.00401469
-0.0218351
-0.00909982
0.0179568
0.0131819
0.0207278
0.0420568
0.0137411
0.0168584
0.0481407
-0.032465
0.0202272
0.0501592
-0.0398578
0.0258002
0.06269
0.0436592
0.0197769
0.0653957
-0.0445088
0.0193487
0.0669336
-0.0355791
0.0301607
0.0620862
-0.0287616
0.0297797
0.0588414
0.02535
0.0341923
0.0673654
0.0247558
0.0430417
0.0192422
0.0226745
0.0793292
0.0420131
-0.0207924
0.0395851
0.0332001
-0.0284253
0.054012
0.018142
0.0204797
0.0257103
0.0438802
0.0159912
0.0274451
-0.040461
0.016586
0.00724787
0.029183
0.021728
-0.0045312
0.0365524
-0.00667104
0.0180651
0.0268969
0.0180824
0.079781
-0.00708605
0.013839
-0.0196608
0.198248
0.0556371
-0.01516
0.0260988
0.0526996
-0.0315818
0.0215732
0.0922026
0.0108932
-0.0170786
0.0376177
-0.03362
-0.172365
0.0209059
-0.012592
-0.0501784
-0.0410108
-0.107032
0.00101098
-0.0120499
-0.0604634
0.0316749
0.0284595
-0.0557918
0.0538401
0.0232921
-0.0475627
0.0604895
-0.0177417
0
0
0.0207766
0
-0.0566576
-0.0509288
0.0770489
-0.122555
0
-0.00013743
-0.000206722
0
0
0
0
0
0
0
0
0
0
0
0.0110253
0.0807285
-0.00796957
-0.0150698
0.0118711
-0.0258918
-0.0161561
0.0125539
-0.0155411
0.0236179
-0.0100339
-0.000530181
0.0442654
0.0127336
0.00302388
0.0102886
0.024491
0.010506
-0.0080417
0.0438478
-0.00881489
-0.00733681
0.0077708
0.0443925
-0.016939
0.010521
-0.000176332
-0.00992417
0.00117872
0.0332723
-0.00872675
0.0123861
0.0105393
1.44997e-05
0
-1.36211e-05
0
0
0
1.31816e-05
2.70518e-05
1.53597e-05
0
0
-7.54718e-05
0
0
0
0
7.04301e-05
-6.92539e-05
0
-4.91538e-06
0
0.00021378
0
0
0
0.000216965
-0.000351485
0.0267596
0.0264249
0.0304829
-0.00504203
0.0290588
-0.0373634
-0.0172856
0.00536371
0.0119642
0.0101164
-0.00761843
-0.00723181
-0.0182141
-0.0181784
0.00561205
-0.0319548
-0.0112187
0.0036173
-0.0117955
-0.0350536
-0.0170222
-0.0329402
-0.0422551
-0.0029885
-0.0141059
0.01447
0.0211299
-0.0146698
0.0229739
-0.0255057
-0.0109179
0.0182157
0.0297975
-0.0225552
0.0187939
-0.0300241
-0.0329806
0.0192148
-0.0327666
-0.0390325
0.0106474
0.0339161
-0.0242603
-0.00939407
0.00645364
-0.00962149
-0.0203434
0.0194391
0.0237449
-0.0428031
-0.0361274
-0.0626061
-0.00316964
0.0225645
-0.0138498
-0.0187646
-0.00445752
0.0405722
-0.0398551
0.0128914
0.0420359
-0.0322322
0.0160932
0.0346489
-0.0263937
0.000817626
0.00646494
-0.0487094
-0.00521034
-0.0370248
-0.0452137
-0.00463706
0.015237
0.0013216
0.0180221
0.050901
-0.00184956
-0.0695623
-0.0106549
0.0410506
-0.0283463
-0.00249579
0.0123622
-0.0455161
-0.0276632
0.0295217
0.000857055
-0.0481289
-0.011169
0.0354363
-0.0310726
0.0410611
-0.0449299
0.0205313
0.0159018
0.0236493
-0.0432487
0.0372592
-0.0214595
0.0146603
0.0143697
0.00192182
0.0212345
-0.00887775
-0.000299349
0.0159379
-0.0134927
-0.0194939
0.0102461
0.0115061
-0.00154951
0.0102627
0.0140506
0.000415963
0.0100385
-0.0166863
0.02318
0.00978096
0.0238036
-0.000727632
0.0162719
0.0230467
0.020507
0.0488165
0.0324946
0.0175254
0.0467603
-0.0396538
0.0198676
0.0513125
-0.0505627
0.0229046
0.0658764
-0.0451282
0.027142
0.0752807
-0.0500197
0.034108
0.0661532
-0.0345269
0.0355956
0.0554836
0.02823
0.0448471
0.0661066
-0.0356995
0.0490094
0.0695965
-0.0370684
0.0641253
0.0306677
0.0105107
0.0651132
0.0358894
0.0239528
0.0466693
0.0189053
0.0258165
0.0498067
0.0197425
-0.0228647
0.0136062
0.0316224
-0.00882699
0.0336484
0.0403906
-0.0070467
0.0220437
0.00977813
0.0122788
0.049367
0.0205552
-0.0113617
0.0602851
0.0543552
0.000565646
0.0540186
0.0539212
0.0611801
0.00120101
0.00622205
0.0132849
0.0212561
0.0267245
-0.12464
-0.0259292
-0.00739317
-0.075619
0.00184058
-0.00741706
-0.00286623
0.030753
-0.0177833
-0.0351629
0.00749761
-0.0384435
-0.123153
-0.0370484
0.00584846
-0.0195531
-0.0735565
-0.0248669
-0.010868
-0.0320385
-0.0422702
0.00456689
-0.0557861
0.062791
0.0109066
-0.0791973
0.0379237
0
0
0
-0.064409
0
0
-0.0193925
0.0540147
0.0290488
0
0
0
0
0
0
0
0
0
0
0
0
0
0
0
0
0
0
0
0
0
0
0
0
9.18199e-06
0
-1.66028e-05
0
-1.72485e-05
-7.27897e-06
-1.33729e-05
0
1.21862e-05
-4.97593e-05
7.84286e-06
0
1.9817e-05
0
0
0
0
0
0
0
0
0
0
0
0
0
0
0
0
0
0.00813601
0.0052034
0.0160653
-0.021314
-0.0260512
-0.0297316
0.00574122
-0.0165393
-0.0328407
0.0517016
0.00977811
-0.00788456
0.00974992
0.0364559
0.0253441
-0.00149598
0.0120945
0.0407266
-0.0194681
0.00716535
-0.0185089
-0.022193
0.0209409
-0.0333713
-0.00958006
0.00707767
0.0287365
-0.015574
0.00683905
-0.0235983
-0.0144636
-0.0233542
0.00600972
0
0
0
0
0
0
0
0
0
0
0
0
0
0
0
0
0
0
0
0
0
0
0
0
0
0
0
0
0
0
0
0
0
0
0
0
0
0
0
0.000221159
0.000276641
-0.000134535
0
0
-0.0442424
0
-0.039318
-0.00555223
-0.00141209
0.00248409
-0.00657848
0.0238755
-0.00430041
-0.0193871
-0.00835535
0.00838391
-0.00280054
-0.0206642
0.000592068
-0.0164163
-0.00946621
-0.00513324
-0.0148166
-0.0341686
-0.0096714
-0.0178171
-0.0276178
-0.0233533
-0.0266295
-0.0289222
-0.00468139
0
0
0
-5.95701e-05
0
0
0
0
0
0
0
0
0
0
0
0
0
0
0
0
7.2796e-05
0.000202106
-0.0177037
0.0148025
0.0282844
-0.0132707
0.0145532
0.0281194
-0.00174559
0.0177626
-0.0346386
-0.00563962
0.0173175
-0.0257528
-0.00630994
0.0167322
-0.0204578
-0.00532166
0.0123945
0.0359015
-0.0538698
0.00737584
0.00548325
-0.0160587
0.00417685
0.000924568
-0.0337464
-0.0148967
0.0116439
-0.0435952
-0.00834053
-0.0120944
-0.10273
0.00197972
-0.0114983
-0.0564829
-0.0237351
0.0868508
-0.00439006
0.0138294
-0.0233376
0.0129022
0.0216033
-0.00853423
0.022821
-0.02235
0.0125363
0.0375674
-0.00543474
-0.016487
-0.0148676
0.05499
0.0482604
0.00162405
0.0458935
-0.0334301
-0.0695973
-0.0552928
0.0407023
0.00672951
0.0418505
-0.0104762
0.0358728
-0.0700593
-0.0296523
0.034738
-0.0813507
-0.045888
0.0443017
-0.0331134
-0.025327
-0.0386505
-0.0655838
-0.0383583
-0.0257768
-0.034814
-0.0534121
0.021402
-0.00776763
0.0270569
-0.0330908
0.0261362
0.0026819
0.0354006
0.0291708
-0.0131282
0.0321923
-0.00350986
0.0068465
-0.0163358
-0.00126076
0.0156823
0.00816183
-0.0275787
0.0151441
0.00907233
0.000176493
0.00129767
0.0437685
-0.00743658
0.0167693
-0.017593
-0.00444328
0.0211687
-0.0158516
0.0351396
0.0245663
0.0237027
0.0133473
0.0115433
0.0414069
0.00753084
0.0318013
-0.0607915
0.00244584
0.0345868
0.0527343
0.0145764
0.0600207
-0.0607477
0.0332882
0.0790258
0.0402406
0.0337593
0.0768223
-0.0312183
0.0336669
0.0545699
0.0279813
0.0425544
0.0741481
-0.0241921
0.0390905
0.074887
0.0238326
0.0312683
0.0669081
0.0278081
0.0414394
0.0242047
0.0204927
0.0495849
0.0172323
-0.0150415
0.0388952
0.0124434
0.0129166
0.029717
0.00283744
0.0311129
0.0116317
0.0204888
0.00964059
0.0165697
0.0270568
0.00697359
0.0205383
0.0240796
0.00809217
0.0442611
0.0405239
-0.000557247
0.0471772
0.0380302
0.002301
0.0457733
0.0512759
0.00413858
0.0423875
0.0548679
-0.00337386
0.0318954
0.0390377
0.0532714
0.0115512
-0.0273158
0.00516549
0.0304994
-0.0519581
0.0515485
0.0159738
0.0592141
0.0278039
0.0537784
0.040267
0.00733159
0.0363868
-0.0635782
0.0528231
0.0437162
-0.0162926
0.0438671
0.0503428
0.0450189
0.0444469
-0.0405768
0.0567336
0.0228397
0.0281505
-0.051102
0.0299295
0.0633469
0.0285839
0.0156686
0.0598501
-0.0068246
0.0576444
0.0492834
0.0323713
0.061397
0.000491627
0.0581911
-0.0524028
0.0498873
0.0560068
0.0584334
0.00198703
-0.0631063
0.0696776
-0.065247
-0.0153487
-0.0176406
0.0327675
-0.0249361
0.0337719
-0.0281027
0.0224633
0.070585
-0.0157463
-0.0250552
0.0145058
0.00571755
0.0196123
0.0125241
-0.00118521
-0.00113929
-0.0443545
0.00436172
-0.0175911
-0.0998201
0.0287479
-0.00907304
0.0017394
-0.126023
-0.0702546
-0.00766841
-0.00976064
0.0283805
-0.0141136
-0.0218508
-0.000809295
-0.0260523
-0.0488304
0.0280272
0
-0.000108412
1.80248e-06
-0.0132966
0
0
-0.0328363
0
0
0
0
0
0
0
0
0
4.59904e-05
0.000114638
0
0
0
-0.000106872
0
0
0
0
0
0
0
0
0
-7.21219e-05
-0.000151373
0
0
0
0
0
0
0
0
0
0
0
0
-7.22717e-05
0
0
0
0
0
-0.000191143
0
0
0
0
-0.000185037
0
0
0
-0.000380646
0
-0.000350989
-0.000153678
8.36061e-05
0
1.90763e-05
2.95781e-05
-6.51273e-05
-4.14221e-05
-3.38339e-06
4.91249e-07
0.000104349
0.000202237
-0.000101502
0
-0.000104049
-0.000193616
0
-7.38205e-06
0
0
0
0
0
0
0
0
0
0
0
0
0
0
0
0
-0.000145428
0
6.67449e-05
0
-7.88939e-05
0
-0.0225801
0.0321706
-0.0121609
-0.0295827
0.015955
0.0243856
0.0864954
0.0321287
0.01464
-0.00979395
0.0498738
-0.0267717
0.0221584
0.00741271
0.0515231
-0.0102315
0.0346883
0.0238665
-0.0120855
0.0210924
-0.0511489
-0.0151716
-0.023277
0.0230795
0.00545069
-0.0226861
0.00155831
-0.0219996
-0.0147549
0.0135648
-0.0309187
-0.0235962
0.00158741
0
0
0
-0.000421307
0.000742994
0.00161103
0
0
0
0
0
0
0.000449654
-9.48284e-05
0.00018999
0
0
0
0
0
0
0
0
0
0
0
0
0
0
0
-5.54806e-05
0
0
6.97431e-05
9.04138e-05
7.17631e-05
0
-6.61992e-05
0
-0.0220281
0
0.0186201
0.00143412
-0.0354877
0.0177684
0.02034
-0.0152787
-0.0111918
0.0116949
-0.000211335
-0.0199964
-0.00678427
-0.00327164
-0.0151527
0.0111628
-0.00444344
0.0144615
-0.020499
-0.013569
0.00831153
0.0151124
-0.0111152
-0.0365017
0.0338596
0.0156585
-0.0192007
3.50634e-05
0.000531928
0.000307104
1.58828e-05
0
1.82117e-05
0
-4.90796e-06
0.000261359
2.73567e-06
0
-5.75569e-06
-2.81636e-07
0
0
0
0
0
0
3.98342e-06
0
0
0
0
0
0
0
0
0
0
0
0
0
0
0
8.46627e-05
0
-0.000102662
-0.0265621
0.00973615
-0.0282967
-0.0204532
0.00331802
-0.0401857
-0.0265682
-0.000458472
-0.0435715
-0.0232963
-0.0107768
0.0372068
-0.0259196
-0.016324
-0.032251
-0.0350999
-0.00297479
-0.0286059
-0.0568819
-0.0522492
-0.0287665
-0.0522708
-0.0207233
0.0201844
-0.0265185
-0.00838727
-0.0128776
-0.0435501
-0.00442886
-0.0499055
-0.0374435
-0.0259291
-0.0502367
-0.0670466
-0.0278711
0.0114
-0.0231498
0.0185551
-0.00800967
0.00931352
-0.033201
0.00998796
-0.00106143
-0.0368216
-0.0112958
-0.0461355
-0.0349719
0.046912
-0.00891567
-0.0327321
-0.0307431
-0.0249787
-0.0659711
-0.0408174
-0.0328714
-0.0706206
-0.0473322
-0.0534911
-0.0274134
-0.0317659
0.0252076
-0.0240152
0.0581375
0.0106467
-0.0286035
-0.0446818
-0.00754969
0.0311886
-0.0653288
0.0321379
0.0586353
0.0429679
0.0315942
0.0645631
-0.0410086
0.0153382
0.0608139
-0.0452734
0.00968932
0.0627898
0.0470985
0.00995818
0.0531782
0.0443364
0.0615565
0.0589864
-0.0591869
0.010819
0.05532
0.0563358
0.0137375
-0.039871
-0.0872396
-0.0465565
-0.0353725
-0.0675059
-0.0538681
0.045784
-0.0486004
-0.0172708
-0.0385227
-0.0756806
-0.0230865
-0.0419454
0.000125693
-0.0614156
0.0305694
-0.000106314
0.014034
0.0307437
-0.0129135
0.00510727
0.0194508
-0.0113101
-0.0023369
0.0214492
0.015688
0.0109966
0.00362177
-0.00780087
0.0139184
-0.00730897
0.00171938
-0.00912854
-0.00619726
0.000614288
0.0212654
0.0404663
-0.0399866
0.0285908
-0.00303089
0.0297628
-0.14537
0.0922001
0.0456162
0.0236945
-0.00171238
-0.0210822
-0.00612387
0.0604777
-0.0158681
0.0428762
-0.0831739
0.0119165
0.0406577
-0.0701816
0.0346458
0.0807354
0.0274026
0.0415744
0.0556143
-0.00900975
0.0467554
0.0702565
0.0165006
0.0500957
0.075283
-0.0270822
0.0431407
0.0640765
0.0223802
0.0376525
0.0606607
-0.0166091
0.0271293
0.0468932
0.0143656
0.0348278
0.0114771
0.0128933
0.0439842
0.0245721
-0.0119394
0.0228485
0.0172919
-0.0199036
0.0380114
0.0167841
0.0256365
0.0335062
0.0328483
0.00206327
0.0436265
0.0332215
-0.00456737
0.0467441
0.0282586
-0.00340937
0.0408525
0.0279491
0.00518978
0.0446557
0.0436557
-0.00168537
0.0423615
0.0638988
0.00909442
0.0265649
0.0568642
0.0155482
-0.0281425
0.0470618
0.0129961
0.0170855
0.0488159
-0.0387584
-0.00426286
0.0484326
0.0419205
-0.0152593
0.0316316
0.043496
-0.023532
0.0268938
0.0445424
-0.0330711
0.0217995
0.0486087
-0.0236526
0.020559
0.0522788
-0.00379283
0.0352526
0.0594796
0.00660484
0.0587401
-0.0577808
-0.0057872
0.0375033
0.0533218
-0.0147716
0.0483714
0.0565321
0.0539797
-0.0112419
0.0571339
0.0434321
0.0341223
-0.0519115
0.00823017
0.04927
0.0339109
0.0434795
0.0388588
-0.0105183
-0.029333
0.0527184
-0.00746553
-0.0223248
-0.0205386
0.0211743
-0.0131247
-0.0218279
-0.0174862
-0.00890956
-0.0224244
0.0214721
0.00788038
-0.0215488
-0.0062237
0.0287425
0.0355397
-0.00536501
0.0435075
-0.0634602
0.0621564
-0.0569395
0
0
-0.0104053
-0.00430894
0.0119403
0.00381284
-0.00740177
0.0180486
-0.0498777
0.0233753
0.013744
0.0686135
0.0167778
-0.1012
0
0
0
0
0
0
6.02235e-05
5.94473e-05
3.12417e-05
0
0
0
-6.82484e-05
0
0.000154057
0
-7.47718e-05
0
0
0
0
0
0.000144352
-0.00026953
0
1.90883e-05
0.000160484
0
0
0
0
0.000100011
0
0
0
0
0
0
0
0
-6.3647e-06
-1.2796e-05
0
0
0
0
-6.82263e-05
-2.7087e-05
0
0
0
-0.000193122
-0.000114589
0
0
0
0
-4.16922e-05
0
0
8.2558e-05
0
0
0
0
0
0
0
0
-0.000167947
0
9.21671e-05
-6.44566e-05
0
6.81621e-06
0
-5.75388e-05
0
0
0
0
0
0
0
0
6.43861e-06
0
0
0
0
0.0050331
0.040085
0.0134811
0.0060492
0.0139804
0.0201003
0.0188195
0.0369049
0.00961884
0.0258919
-0.0166497
-0.0267387
-0.00172385
0.0572065
0.0016681
-0.008585
-0.0108943
0.0341015
-0.0114446
0.0264716
0.0153024
-0.0137625
-0.0302059
0.0153667
0.00710842
-0.0108934
-0.0186484
-0.00307705
-0.0125061
0.00531512
-0.0280765
-0.0157539
0.00598868
-0.000826661
0.000837675
-0.000466899
0
-0.00180975
-0.000757378
0
0
0
9.16052e-05
0
0
0
0
0
0
0
0
0
0
0
0
0
0
0
0
0
0
0
0
-0.000117189
0
0
0
0.000145476
-0.000263422
0
0
0
-0.0106188
-0.0300255
0.0367626
0.000214665
-0.0221361
-0.00984155
0.00566799
-0.0095087
-0.00683971
0.011241
-0.0127465
0.000188168
-0.00811314
-0.00470422
0.0159435
0.000270345
0.00592358
-0.0168856
-0.0313742
-0.0222716
0.000199717
0.019871
-0.0210496
0.00800979
0.00106548
-0.0177773
0.00728832
0
0
0
0
0
0
0
0
0
0
2.21239e-06
0
0
0
0
0
0
0
0
0.000187196
3.31171e-05
1.44488e-05
0
-8.76272e-05
0
0
0
1.42358e-05
0
-6.46196e-06
0
3.6777e-05
4.34767e-06
0.000211795
0
7.82762e-05
0
0
0
0.000290185
0
0
0
0
0
-0.0306336
-0.00365394
-0.031099
-0.0436936
-0.00115253
0.0226857
-0.0279465
0.00394567
-0.0278172
-0.0144025
-0.00193329
0.019894
-0.014018
-0.00258988
-0.0118882
0.0102568
-0.0102329
0.0203065
0.0234143
-0.00833959
-0.0149725
-0.0267875
-0.0566782
-0.0202002
-0.0397614
0.0561557
-0.0146354
0.101793
0.00173498
0.00325615
0.0628213
-0.0177102
-0.0190315
-0.0119629
-0.00100305
-0.0661028
-0.0123481
0.000190197
-0.0271613
-0.0118009
-0.0241654
-0.0220486
0
-0.0537063
0
0.0238236
0.0226103
0.0209474
-0.0436454
-0.0416921
-0.0111795
0
-0.00828233
-0.0176276
0.0135492
-0.0240681
0.0320529
-0.0139002
0.016052
0.0234108
0.0186014
0.0265364
-0.0296702
0.037515
-0.0131752
-0.0247564
0.026208
0.0426694
0.0115488
0.0441389
0.0330905
-0.0377688
0.0265212
-5.38616e-05
0.0305798
-0.0337313
0.0400468
0.0388423
-0.00493524
0.0427766
-0.038676
0.0450281
-0.0522175
0.0382981
-0.0385513
-0.0145116
0.0400799
0.0505464
0.00850842
0.0589072
0.055466
0.0146687
0.0548702
-0.0469316
0.0262862
0.0533197
0.0274228
-0.0124361
-0.0437191
-0.0296669
-0.0412448
-0.0746413
-0.035573
-0.0400734
-0.0718219
0.0300938
-0.0577648
-0.0363861
-0.034837
0.0109892
-0.0228197
0.057521
-0.00713748
-0.0388753
0.0401426
0.00830284
0.0410312
0.0559509
0.0161427
0.0562577
0.0619565
0.00960461
0.0633284
0.0639646
0.00843202
0.0632714
0.0608201
0.0188124
0.0581456
0.0412362
0.0281523
0.0562056
0.0256861
0.0592594
0.00607907
0.0487371
0.05988
0.0232277
0.0342904
-0.0457164
-0.0904995
-0.0133692
-0.0756512
-0.0335482
-0.0667681
0.0103875
-0.0707835
-0.0386966
-0.035656
-0.0381897
-0.0437364
0.0225724
-0.00401051
-0.0338402
0.0247453
0.00330273
-0.0010935
0.0430486
0.03777
3.68687e-05
0.0380323
-0.0322508
0.00249244
0.0297273
0.0279979
-0.00174362
0.0335606
0.0285103
-0.00799542
0.0283455
0.0240534
8.1299e-05
0.0168562
0.021319
0.0192332
0.0244498
0.0144122
0.0442751
0.0359591
0.0341533
0.0114491
-0.0225112
0.0420741
0.04307
-0.00962791
-0.0172424
0.00433314
-0.0294511
0.0157318
0.00195725
0.0250171
0.0118218
-0.01081
0.00902793
0.0125726
0.00716991
0.0162491
0.00494867
0.0104165
-0.156697
0.0819969
0.0442027
-0.0155507
0
0
-0.134052
0
-0.0728018
0.0279388
-0.0181463
-0.0252164
-0.0555196
-0.0381652
0.0585663
-0.0213762
0.0164046
0.0341141
0.0368
0.0192618
-0.0216744
0.0544757
0.0334803
0.0446866
0.0564253
0.0253928
-0.0181524
0.0417117
0.0674039
0.0206505
0.0337038
0.0586997
0.0235607
0.0332057
0.0589309
-0.0120231
0.0291922
0.047544
-0.00371233
0.038328
0.0611516
-0.0155967
0.0403453
0.0287939
0.0148898
0.0466968
0.036844
0.00708507
0.0471924
0.0247036
-0.0124977
0.0593838
0.0282078
0.0222001
0.0202193
0.0410159
0.010806
0.019619
0.025551
0.000944544
0.0254839
0.021451
9.2612e-05
0.0261229
0.0254427
-0.00892987
0.0407467
0.0404622
0.0204998
0.0304085
0.0564665
0.0178139
-0.0331658
0.0421953
0.0115688
0.0264258
0.0451461
-0.0417695
-0.00483539
0.04682
0.0348605
-0.0186407
0.0287469
0.036444
-0.0171655
0.02092
0.0420374
-0.0158703
0.0254521
-0.0426275
-0.0264964
0.0259598
0.0460792
-0.0195278
0.021853
-0.044519
-0.00594319
0.0317794
-0.0548501
-0.00610521
0.0237966
0.046692
-0.00214864
0.0702449
-0.0565649
-0.0143539
0.0245128
-0.0424274
-0.0481152
0.0463413
0.0185303
-0.0296206
0.0686516
-0.0315341
-0.0029491
-0.00293091
-0.00926929
0.00745208
-0.0104413
0.00918237
-0.000633421
-0.0303051
0.0292104
-0.00891993
-0.0328685
-0.00508605
0.0364878
-0.0321909
-0.0565474
-0.00422409
0.0400944
-0.0164479
-0.143284
-0.0212898
0
-0.0162683
-6.19569e-05
0
0.00475087
0.0169889
-0.0114886
-0.00427387
-0.0465307
-0.000605042
-0.087176
-0.0791333
0
0
0
0
0
0.000117716
0.000166922
-5.09062e-05
9.90053e-05
0
8.39298e-05
6.75393e-07
4.6311e-05
1.06398e-06
0
0
0
0
0
0
0
0
0
-0.00011578
0
0
-0.000148557
0
-0.000370259
0
0
0
0
0
0
0
0
0
0
0.00330556
0.00210241
0
-5.68828e-06
-4.21088e-06
0
0
0
-4.1213e-05
0
0
0
0
0
-1.24232e-05
0
-7.07161e-08
0
0
0
-1.22229e-05
2.93708e-06
-2.24823e-05
0
0
0
0
-0.000293728
-0.000201523
0
0
0
0
0
0
0
0
0
0
0
-0.000192155
0
-0.0001097
0
0
0
-6.61951e-05
0
0
0
0
0
0
0
0
0
0.000617362
0
-0.000906745
0
0
0
0.000764922
0
0.00211837
0.0085898
0.0246715
-0.0407754
-0.0382535
0.0384683
-0.00584371
0.0488613
0.0536939
0.00430282
-0.0547091
-0.0233827
-0.00166202
-0.0109025
-0.0153798
-0.00149508
-0.0139246
-0.00789208
0.00519193
0.0378488
0.0360321
0.0084885
0.0151898
0.00749162
-0.0170135
0.0108049
-0.035136
-0.00981232
0.012692
0.0173885
-0.00773414
-0.0107459
0.00969537
-0.00959711
-0.013465
-0.00649737
0.0109948
-0.0167449
-0.000678194
0
0
0
0
0
0
0
0
0
0
0
0
0
0
0
0
0
0
0
0.0141932
-0.0481804
0.0327802
0.0465342
0
0
0
0
0
0
0
0
0
-0.0001179
0
0
0
0
0
-0.0212789
0
0.0153376
0.0221003
0.00970817
0.0171607
0.00357759
0.0128078
-0.0396277
-0.0294173
0.0255634
-0.0243389
0.00412291
0.00663103
-0.00720582
-0.0220467
-0.0171724
0.00987589
-0.0192541
-0.0135052
-0.00194107
-0.0339785
-0.0449182
0.0354854
0.0104233
-0.000692979
0
0
2.89094e-05
-1.03471e-05
0
0
0
0
0
0
0
0
0
0
0
0
0
0
0
4.73776e-05
0.000170314
-0.000122169
0
0
0
9.28242e-05
0
0
-3.48805e-05
-1.32963e-05
6.5019e-05
0
0
-0.000146863
8.69757e-05
-8.60502e-05
1.2171e-05
0
0
0
0
0
0
7.56514e-05
-5.61682e-05
0
0
0
0
0
0
0
0
0
-0.0091075
-0.0201547
-0.00195019
-0.0107461
0.000966216
0.0136348
-0.0206165
-0.0119899
0.0193235
0.00365448
0.00605399
0.0129656
0.00518718
-0.00682485
-0.0198661
-0.033748
0.00659958
-0.00248727
0.0227787
-6.91366e-05
-0.0607337
0
-0.000605597
0
0.000359016
-0.0749049
-0.0564985
0.0155599
-0.10266
-0.0174122
-0.107315
0.0267068
0.0197555
-0.0967665
-0.0340849
-0.0352124
-0.0183114
-0.0377965
0
0
-0.0261767
0
0
0
-0.000245672
0
-0.0102717
0
0
0
0
0
0
0
0
0.00908003
0.0363097
0.0242444
0.00294291
0.032459
0.0317551
-0.00546713
0.0310846
-0.0379895
-0.0461618
0.0100623
-0.0489931
0.00993116
0.0499313
-0.0311535
-0.00699902
0.0445063
0.048323
-0.00926145
0.0446984
-0.0504019
0.0105452
0.0429311
-0.0443009
0.013055
0.0636794
-0.049844
0.0239645
0.0597777
0.0364577
0.0113467
0.0559006
-0.0407548
-0.0330005
-0.0527701
-0.0329036
-0.0495569
-0.0729326
0.0210637
-0.0560176
-0.0696676
-0.0176361
-0.0727333
-0.0440477
0.0205116
0.00488527
-0.00208449
0.0431506
0.0482499
-0.017511
-0.0400993
0.0360116
0.0442553
-0.00942274
-0.0735904
0.0127581
-0.0182895
0.0526141
-0.0123006
0.0581012
0.08224
-0.00779468
0.0622512
0.0791106
0.0113592
0.0658979
0.0590773
0.0339637
0.0577849
-0.0376172
0.0331916
0.0601929
-0.0225583
0.057288
0.0165836
-0.0379365
0.0751135
0.0332907
0.00607715
-0.0739109
-0.0420896
0.0129943
-0.0442676
-0.072082
-0.000741335
-0.0534691
-0.0706477
0.0124694
-0.0688415
-0.043841
0.012291
-0.0288315
-0.0556826
-0.00523607
-0.0352194
-0.02737
0.0237004
0.00339357
0.00182528
0.0410747
-0.0443432
0.00240868
0.0459678
-0.0375775
-0.00126801
0.032281
0.0373884
0.00438812
0.026879
0.0241923
0.0031505
0.0259727
-0.0218238
-0.000786586
0.0241016
0.0141409
0.0100553
0.0216947
-0.0119235
0.023255
0.0230203
0.00720492
0.0347585
0.0314309
-0.00208018
-0.0040353
0.0331138
-0.00468962
0.0337525
0.0540808
0.0446442
0.0397654
0.00184369
-0.00807648
-0.0309666
-0.0119154
-0.027622
-0.0385901
0.00315144
0.00758587
0.0187686
-0.0380601
-0.0507289
-0.052954
0
-0.0227038
0
-0.0636847
0.0123025
-0.0510601
0
-0.00012812
0
4.9775e-05
0
-2.13731e-05
-3.19206e-05
-0.113237
0
0
-0.128239
5.08542e-05
4.10073e-05
-0.287424
-0.0384844
-0.0160799
0.0302223
-0.060589
0.0610098
0.057717
0.0279529
0.0140729
-0.000707328
0.0514645
-0.037754
0.0376509
0.0561135
-0.0348131
0.0293739
0.0507595
-0.0141143
0.030929
0.0439301
0.0268492
0.0379048
0.0459038
-0.0136287
0.0412555
0.0542286
0.00587719
0.0428793
0.0462956
0.00892932
0.0568873
0.0377242
-0.0177902
0.0484711
0.0372737
-0.00420267
0.0370045
0.0202805
0.0153458
0.0512523
0.0287238
-0.00992795
0.0203217
0.026319
0.0122918
0.0162715
0.0184302
0.0130444
0.0168524
0.0189612
0.00436788
0.0288857
0.03611
0.0119269
0.0336646
0.0426424
0.0204108
-0.0214596
0.0451261
0.014033
0.0407801
0.0333664
-0.0104028
0.0441695
0.0356797
-0.0159072
0.0254382
0.0302676
-0.0187195
0.0176604
-0.0367078
-0.0109853
0.0203848
0.0437655
-0.0117123
0.0298523
-0.0401999
-0.0240195
0.0272703
0.0397396
-0.0226246
0.0139095
0.0379246
-0.0108596
0.0173034
0.042225
0.00403814
0.0608806
-0.0534965
-0.00753582
0.0128134
-0.0380705
-0.0545933
0.0806126
-0.0502693
0
0
0
0.0190489
0
0.0383086
-0.0371868
0.0536236
-0.0199295
0.0312671
0.0141242
-0.0280112
-0.0457624
-0.022655
0
0
0
0
-0.044578
0
0
-0.0265414
0
0
0
0
0
-0.0118127
-3.88045e-07
0
-0.0595116
0
0
0
0
0
0
0
0
0
0
7.5965e-05
5.27182e-05
2.45063e-05
0
6.44146e-05
0
0
0
0
0
0
0
0
0
0
0
0
0
0
0
0
0
1.70145e-05
6.16575e-06
-0.00012666
0
0
0
0
0
-9.88287e-06
0
0
0.00166879
0
-0.00195041
0
-0.00569624
0
0
4.34644e-05
-9.22826e-05
8.12772e-06
0
-3.57995e-05
0
0
0
0
0
0
-0.000228159
0
-0.000129601
-0.000163215
-0.0012212
0.00010268
-9.86763e-05
0.000280253
0
-0.00219131
-0.00366634
-0.00296966
0
-0.00125609
0
0
0
0
1.54298e-05
0
-8.1304e-05
0
-4.9286e-05
-4.66064e-05
0
0
0
7.34188e-06
-3.31569e-05
4.91273e-05
3.95053e-05
-0.000109067
0
-3.91096e-05
0
0
0
0
0
2.93135e-05
0
0
0
0
0
-1.21109e-05
0
1.20089e-05
0
0
0
0.0013588
0
0
0
0
0
0
0
0
0.00381878
8.49998e-05
0.0568219
0.0535284
-0.000541805
0.0545165
0.0587601
-0.00667226
0.0522475
-0.00968979
0.0720779
-0.0516829
0.0541456
-0.0663104
-0.0125781
0.0373961
0.0306187
0.0296462
0.0195987
-0.0281057
0.0243828
0.0425421
0.0361992
-0.0207921
-0.0224594
0.0494886
-0.0065438
0.0287472
0.00268164
-0.0153986
0.0109716
-0.022064
-0.0163202
0.00943046
-0.0192842
-0.0102693
-0.0142493
-0.000333781
0.0112883
-0.018575
0
0
0
0
0
0
0
0
0
0
0
0.0260349
0.0197732
0.0109661
-0.00432947
0
0
0
0
0
0
0
-0.0945778
0
4.93524e-05
0
-4.36248e-06
-8.02129e-06
5.38115e-05
1.57316e-05
0
7.69239e-06
0
0
0
0
0
0
0.0133283
-0.00144461
-0.0161499
-0.0304268
0.0226355
-0.00159881
-0.00334339
0.0157116
0.00195911
-0.00166672
-0.0155945
-0.032127
0.0236771
0.011542
0.0106479
0.0148115
-0.00281568
0.018181
0.00172129
0.0121059
0.00734939
0.0245942
-0.0211207
0.0174815
3.48818e-05
0
0
-6.93494e-07
7.66864e-05
-4.96837e-06
0.000100189
9.22243e-05
-2.35663e-05
2.64844e-05
6.99101e-05
0.000118521
-6.63328e-05
0
0.000136359
0
0
0.000291242
0
0
0
0
0.000172923
1.89024e-05
1.46373e-05
0
-2.46863e-05
-0.00013952
0.000120823
0
0
-7.23453e-05
9.28337e-05
3.7618e-06
0
0
-3.94036e-06
0.000210517
0
0
0
0
0
0
0
0
0
0
0
1.96006e-05
0
0
0
0
0
0
0
0
0
0
0
0
0
0
0
0
-0.028568
-0.0140165
0.0117115
-0.0148697
-0.00643138
-0.000511272
-0.0131345
0.0021762
0.00808715
-0.00697316
-0.0256241
-0.0107422
0.017641
-0.0169517
-0.0374757
0
-0.00142039
-0.000180723
-0.000766976
0.00517675
-0.0222251
0.00847423
0
-0.000469713
0
0
0
0
-0.0197142
0
0
-0.0571744
0
0.0304206
-0.0411653
0.00297239
-0.0484214
-0.0180809
0.0157677
0.0051875
0
0
0
-8.63497e-05
0
9.38269e-05
0
0
0
0
0
0
0
0
0
-8.31511e-05
0
5.59805e-05
0.00194668
0.0397311
-0.033694
-0.01231
0.0405409
-0.0316729
-0.0127805
0.0418154
0.0281414
-0.017737
0.0530813
0.039785
-0.0270668
0.00254402
0.0294828
0.0445149
0.0293169
-0.0240355
-0.0178844
0.0398467
-0.00165767
0.0453794