/*--------------------------------*- C++ -*----------------------------------*\
  =========                 |
  \\      /  F ield         | OpenFOAM: The Open Source CFD Toolbox
   \\    /   O peration     | Website:  https://openfoam.org
    \\  /    A nd           | Version:  8
     \\/     M anipulation  |
\*---------------------------------------------------------------------------*/
FoamFile
{
    version     2.0;
    format      ascii;
    class       volScalarField;
    location    "20160";
    object      alpha;
}
// * * * * * * * * * * * * * * * * * * * * * * * * * * * * * * * * * * * * * //

dimensions      [0 0 -1 0 0 0 0];

internalField   nonuniform List<scalar> 
526318
(
0.000207994
0.00027076
0.000200154
0.000370014
0.000135272
0.000221795
8.34382e-05
0.000154496
6.31481e-05
0.000204918
0.000313463
0.00026648
9.5482e-05
0.000303543
0.000173376
0.000221494
0.000158112
9.17837e-05
7.64527e-05
0.000179071
0.000348644
0.000300652
9.31189e-05
0.000157431
0.000223025
0.000139462
0.000232114
0.000179667
7.6703e-05
0.000133063
0.000161478
8.99849e-05
0.000114921
0.000267039
0.000203124
0.0002852
0.000376567
0.000204342
0.000393301
8.23768e-05
0.000194522
0.000244789
0.000284376
0.000292502
0.000255162
0.000233634
0.000161585
0.000172652
0.000273442
0.000400478
0.000127823
0.000257572
0.000264163
0.000245461
0.000103503
0.000255871
0.000189531
0.000233305
0.000193616
0.000151841
0.000184372
0.00011771
9.44368e-05
7.54736e-05
0.000124119
0.000125071
0.00010139
0.000172723
0.000115238
7.60192e-05
8.9678e-05
0.00019489
8.3168e-05
0.000196315
0.000255073
0.000291312
0.000263535
0.000335549
0.000171655
0.000149096
0.000108233
0.000196909
0.000248707
0.000299556
0.000141663
0.00011241
0.000285003
8.84483e-05
0.000188003
0.000168562
0.000234235
0.00016468
0.00012477
0.000246752
0.000214657
0.000136916
0.000294938
0.00029307
0.000147283
0.000162601
0.000231384
0.000704947
0.000496227
0.000449421
5.26326e-05
9.91091e-05
0.000137666
0.000295438
0.000200605
0.000185698
0.000152051
0.000146088
0.000230273
0.000247748
8.91226e-05
0.000114536
0.00011323
0.000179511
3.37691e-05
3.93264e-05
0.000136645
0.000101734
0.000187555
0.00016134
0.000121787
5.01069e-05
9.87922e-05
7.01317e-06
8.63775e-05
6.10577e-05
0.000109831
7.04876e-05
4.19431e-05
2.98735e-05
6.44488e-05
3.91389e-05
1.83078e-05
7.19852e-05
6.54616e-05
4.70445e-05
7.71722e-05
8.9602e-05
2.15754e-05
2.81569e-05
9.0891e-05
6.4851e-05
9.64937e-05
7.02455e-05
0.000148692
5.12897e-05
6.28048e-05
6.78192e-05
0.000317267
0.000195207
0.000118848
0.000348491
0.000239031
6.99403e-05
0.000193861
0.00017201
0.000220261
0.000312806
0.000520677
0.00024722
0.000131249
0.000209471
5.20401e-05
0.000191407
0.000132681
0.000172624
0.00029027
0.000105317
0.000121828
0.000255778
0.000272136
0.000363711
0.000216111
0.000102284
0.000263701
0.000224798
6.75927e-05
0.000196709
2.30669e-05
0.000170457
6.62069e-05
0.000222726
0.000114668
4.69589e-05
0.000119105
4.08489e-05
7.39674e-05
6.1889e-05
3.80587e-05
1.38496e-05
7.98797e-05
0.000122005
3.95031e-05
4.76804e-05
0.000157847
8.38582e-05
7.47359e-05
0.000228526
0.000116093
0.000187774
5.96846e-05
0.000297119
0.000254065
0.000212488
0.000225201
0.000182187
0.000244111
0.000193752
0.000261382
5.40391e-05
0.000333335
0.000227553
0.00017135
0.000350772
0.00040301
0.000331596
0.000132819
0.000241584
0.000205224
8.94569e-05
0.000126348
0.000430238
0.000305427
0.00010292
0.000127331
0.000325247
0.000546241
0.000143444
0.000328941
0.00201399
0.0020286
0.000960245
0.000249701
0.000455201
0.000729014
7.17728e-05
7.98682e-05
0.000130121
0.000120979
8.60526e-05
4.49381e-05
9.52543e-05
0.000106942
0.00015732
6.95859e-05
0.000145656
0.000129118
0.000226032
0.000135551
0.000196009
0.000186618
6.31723e-05
0.000133716
8.45855e-05
0.000155835
0.000166516
0.000193376
0.00130708
0.0053954
0.000619682
0.00101693
0.000308512
0.000487493
0.000391166
0.000250726
0.000184423
0.000185474
0.000205753
0.000288659
0.000239548
0.000190104
0.000103604
0.00012091
9.42138e-05
0.000152839
0.000331181
0.000107047
6.63402e-05
7.66085e-05
8.55559e-05
9.17554e-05
1.41771e-05
5.50468e-05
5.29614e-05
7.71788e-05
6.33884e-05
7.21182e-05
4.73205e-05
9.31283e-05
0.000110763
8.8029e-05
0.000183877
0.000184775
0.000188386
0.000225412
0.000253999
0.000213828
5.49927e-05
0.000147237
0.00020243
0.000217679
0.000144654
0.000109297
9.86906e-05
0.000119238
0.000210695
0.000264255
0.000127635
1.27461e-05
0.000239265
0.000142102
0.000131537
0.000182385
0.000248705
0.000231204
0.000254332
0.000158241
0.000193831
0.000203295
0.000223477
0.00026936
0.000176363
0.000235203
0.000359759
0.000155624
0.00034398
0.000242577
0.000111122
0.000135505
0.000291223
9.71907e-05
0.000308784
0.000176605
0.000167053
0.000286287
0.000222543
0.000198428
0.0001512
0.000122964
0.000128879
8.87837e-05
0.000147182
8.02962e-05
3.2706e-05
4.71784e-05
1.6236e-05
0.000100717
9.26566e-06
6.08119e-05
3.02729e-05
3.77244e-05
0.000162295
1.68848e-05
8.96578e-05
4.99982e-05
0.00024998
4.89767e-05
4.23202e-05
0.000152642
0.000106941
0.000219703
0.000187943
0.000156069
0.000183414
0.000235655
0.000233642
0.00022581
0.000204823
0.000174306
0.000223321
0.000247654
0.000242238
0.000257975
0.000242125
0.000196168
6.17961e-05
0.000161595
0.000466442
2.69691e-05
0.000125672
0.000529437
0.000345166
0.000231836
0.000311748
0.000171912
0.000266192
0.000139302
0.000272852
0.000204197
0.000140749
0.000299403
0.000179867
9.08183e-05
0.000249362
0.000322616
0.000304613
0.000670375
0.000493053
0.000294285
0.000358535
0.000123761
0.000960897
0.00150875
0.00236007
0.00362306
0.0564466
0.00555391
0.0027254
0.000649438
0.000994219
0.000341113
6.49793e-05
4.82232e-05
8.72157e-05
6.11505e-05
0.000148838
5.85382e-05
0.000181425
0.00010825
0.000132211
5.32967e-05
0.00016203
0.000201457
0.000202056
0.00016353
0.000165812
0.000103751
0.000144188
0.00019378
9.57275e-05
0.00011929
0.00016934
0.000118449
0
0.00316434
0.000458314
0
0
0
0
0.000781755
0.00365882
0.00359024
0.00886969
0
0
0
0.0333521
0
0.00411231
0.000739943
0.0012154
0.00059464
0.000422926
0.000421293
0.000316956
0.000451835
0.000320893
0.000308351
0.000166077
0.000232148
6.06274e-05
0.00017335
7.26309e-05
0.00014565
0.00011651
5.28265e-05
0.000151582
0.000136821
0.000143838
8.57001e-05
0.000106825
0.00010367
3.91617e-05
7.74964e-05
6.96991e-05
3.04102e-05
6.40722e-05
5.51204e-05
6.4453e-05
3.89327e-05
9.17108e-05
3.016e-05
0.000140088
0.000145634
0.0002168
0.000160278
0.000202985
0.000204191
0.000177001
0.000210155
0.0001103
0.000282276
6.36313e-05
0.000115973
6.7564e-05
0.000182682
7.11092e-05
0.000243141
0.000112198
5.08782e-05
0.000259312
0.000278943
0.000259677
0.00024032
0.000301682
0.000274322
0.000247233
0.0002976
0.000277607
0.000256905
0.000278198
0.000261099
0.000285433
0.000235652
0.00026648
0.000258774
0.000186603
0.000321567
0.000351685
0.000308308
0.000283564
0.000324643
0.000182752
0.000116319
0.000244635
0.000223134
0.000332779
0.000375343
0.000137393
0.00031785
6.56228e-05
0.000198704
0.000329552
0.000188602
0.000272713
0.000341572
0.000262773
0.000149199
0.000214503
0.00017373
0.000181873
8.88251e-05
7.1152e-05
5.41963e-05
5.00525e-05
5.22442e-05
5.33575e-05
9.64632e-05
4.22837e-05
2.35904e-05
0.000135184
9.18886e-05
4.76181e-05
0.000163376
7.54161e-05
0.000149674
0.00017526
2.55714e-05
0.000117762
0.000249988
0.000146112
0.00017905
0.000180925
0.000169178
0.000194459
0.00019059
0.00017171
0.000180166
0.000197174
0.000212499
0.000242245
0.000254308
0.000247992
0.000236783
0.000227279
0.000234642
0.000334258
0.000155607
0.000164777
0.000285279
0.000691038
0.000339779
0.000375457
0.00036206
0.000318107
9.97706e-05
0.000205314
0.00025115
0.000255662
0.000144852
0.000166596
0.000207956
0.000172363
0.000139311
0.000196176
0.000183045
0.00022509
0.000745567
0.000887511
0.00036958
0.000145742
0.000263269
0.000347372
0.0175778
0
0.0430977
0.0578806
0.0146995
0
0.0015871
0.00493196
0.00127532
0.00124217
0
0
0
0
0
0
0
0
0
0
0.00264299
0
0.00328989
0
0.0030671
0.00624564
0
0
0
0
0
0
0
0
0
0
0
0
0
0
0.000147408
7.42343e-05
9.92448e-05
0.00010472
7.56441e-05
4.32272e-05
0.000190279
0.000124946
0.000191197
0.000192248
0.000179984
8.11102e-05
0.000118557
0.000150476
0.000168519
0.00021066
0.000171234
0.000117067
0.000165801
0.000206767
0.000149058
0.000111514
0
0
0
0
0
0
0
0
0
0
0
0
0
0
0
0
0
0
0
0
0
0
0
0
0.0115567
0.00109286
0.000807434
0.000875352
0.00055503
0.000715329
0.000414645
0.000281938
0.000288566
0.000417519
0.000224529
0.000227316
0.000225465
5.1166e-05
9.86637e-05
0.000192527
0.000186626
0.000106685
6.2979e-05
0.00012335
0.000180846
7.44819e-05
0.000104062
0.000201349
0.0025691
0
0
0
0
0
0
0
0
0
0
0
0
0
0
0
0
0.00012408
0.000103454
7.36047e-05
6.5987e-05
6.78089e-05
4.9011e-05
5.56095e-05
2.31338e-05
4.56304e-05
2.8161e-05
3.55311e-05
3.88593e-05
8.43308e-05
0.000134435
0.000178493
0.000149437
0.000230918
0.000154405
0.000181375
0.000264448
0.000144205
0.000215589
0.000163685
0.000151743
7.84948e-05
6.8035e-05
0.000123349
8.25279e-05
6.74291e-05
0.000180438
0.000254565
0.000176692
0.000237285
0.000243975
0.000245427
0.000223187
0.000259037
0.000264904
0.000220987
0.00019467
0.000191171
0.0001847
0.00028112
0.000275722
0.000299766
0.000251318
0.000225468
0.00026725
0.00026267
0.000266721
0.000308977
0.000215036
0.000278428
0.000388296
0.000345031
0.000194203
7.56919e-05
0.000172944
0.000233359
0.000223814
0.000322701
0.000102933
0.000355524
2.88905e-05
0.000372489
5.69502e-05
0.000254785
0.000377802
0.000322266
0.000284253
0.00015007
0.000145038
0.00037504
0.000337981
0.000287292
0.000201633
0.000139643
0.000130051
0.000176337
0.000117607
0.000114392
5.39303e-05
3.4077e-05
3.55493e-05
6.17567e-05
7.15899e-05
0.000112161
2.39938e-05
2.90187e-05
0.000145467
5.87959e-05
4.82439e-05
0.000189893
0.000133959
0.000144774
0.000147539
0.000209739
0.000175289
0.000206888
0.000153301
0.000217576
0.000175391
0.000199859
0.000215402
0.00023172
0.000197274
0.000237536
0.000195833
0.00021977
0.000197156
0.000217047
0.000214936
0.000177279
0.000194431
0.000175812
0.000166388
0.000165354
0.000165824
0.000167571
0.000190298
0.000161625
0.000159809
0.000150731
0.000151381
0.000147301
0.000149331
0.000139086
0.00016064
0.000153863
0.000172885
0.000149162
0.000138909
0.000145857
0.000157628
0.00014984
0.000136155
0.000136532
0.000158947
0.00014187
0.000140916
0.000157059
0.000172105
0.000146804
0.000167067
0.000150709
0.000184058
0.000182568
0.000159428
0.000170468
0.000187635
0.000187124
0.000177872
0.000170806
0.000266702
0.000207956
0.000113647
0.000394476
4.06955e-06
4.86719e-05
0.000402518
0.000404673
6.73994e-05
0.000361065
6.01952e-05
0.000216814
0.000172673
0.000236643
0.000193179
0.000177275
0.000142737
0.00014488
0.00017926
0.000173616
0.000233632
0.000144056
0.000213746
0.000676345
0.000276282
0.000431191
0.000456599
0.000296502
0.000507483
0
0
0
0
0.337452
0
0.0167281
0.00328328
0.00437672
0.00243728
0
0
0
0
0.00715673
0
0
0
0
0
0
0
0
0
0
0
0
0
0
0
0
0.000580975
0
0.000596606
0
0
0
0
0.00454504
0
0.0178811
0.00718689
0
0.00125042
0.00748645
0.0120578
0
0
0
0
0
0
0
0
0
0
0
0
0
0
0
0
0
0
0
0
4.75477e-05
3.304e-05
4.2693e-05
0.0001647
8.45443e-05
0.000158754
0.000173744
8.06445e-05
0.000118386
0.000129169
0.000182959
0.000162775
0.000204864
0.000136313
0.000151582
0.000136102
0.000158613
0.000132863
0.000193991
0.00020373
0.000155149
0.000162042
0
0
0.00390003
0.00288364
0
0
0
0
0.00691342
0
0
0
0
0
0
0
0
0
0
0.0276557
0.000421824
0.00259938
0.000347485
0.00143264
0.000568356
0.000690161
0.000366542
0.000375883
0.000347018
0.000324655
0.000269553
0.000280858
0.000282973
0.000160277
0.00016518
0.000162091
0.00011377
7.96933e-05
7.65401e-05
0.000185938
5.08719e-05
8.14178e-05
8.34143e-05
9.82656e-05
0
0
0
0
0
5.97598e-05
0
0
3.53592e-05
0
0
0
0
0
0
0
0
0
0
0
0
0
0
0
0.539247
5.4903
0.000105242
0.000100879
9.28486e-05
7.66509e-05
0.000102094
4.28995e-05
8.34181e-06
8.41835e-05
9.32208e-05
3.69104e-05
9.41161e-05
3.72261e-05
0.00015331
0.000159254
0.000211446
0.000170846
0.000168546
0.000262444
0.000307272
0.000191874
0.000248278
0.000217377
0.000181682
0.000201864
0.000120827
5.39128e-05
0.000159839
8.26462e-05
0.000175258
0.000184749
0.000223406
0.000250888
0.000183905
0.000190518
0.000242342
0.000267293
0.000263137
0.000267377
0.000199683
0.000212276
0.000176454
0.000156622
0.000166092
0.000190165
0.000165806
0.000177325
0.000177768
0.000166993
0.000175429
0.000172829
0.000191135
0.000197597
0.000203468
0.000195114
0.000193751
0.000193399
0.000178882
0.000183222
0.000180532
0.00017555
0.000182149
0.000185618
0.0002664
0.000295839
0.00028707
0.000245898
0.000196423
0.000309905
0.000250794
0.000292055
0.000346073
0.000217579
0.000367231
0.000129179
0.000290027
0.000507301
0.000161534
0.000171561
0.000126966
0.000393539
0.000332917
0.000139955
9.87249e-05
0.000441577
0.000408101
0.000246442
0.000337664
0.000286185
0.000147129
0.000453461
0.000155036
0.000405904
0.00012501
0.00037956
0.000229978
0.000226739
0.000237756
0.000223646
0.00019122
5.52188e-05
0.000104433
0.000148945
0.000161756
7.43497e-05
5.81046e-05
1.2088e-05
1.20178e-05
7.88146e-05
8.80471e-05
2.73367e-05
5.71684e-05
9.51542e-05
0.000122151
0.000113766
7.62014e-05
0.000116311
0.000136998
0.000195245
0.00017703
0.000137415
0.000161737
0.000152501
0.000238072
0.000209264
0.000187072
0.000163915
0.000215877
0.00018635
0.000193691
0.00019908
0.000206747
0.000177752
0.000180084
0.000152172
0.000157797
0.000138941
0.000149839
0.000149188
0.000131521
0.000129607
0.000130908
0.000132599
0.000132451
0.000125453
0.000134629
0.000129153
0.000138952
0.000131676
0.000142179
0.000143676
0.000157112
0.000152511
0.000161115
0.000166612
0.000179162
0.000168717
0.000173604
0.000175666
0.000179335
0.000175594
0.00017566
0.00017456
0.000170519
0.000169954
0.000170651
9.01757e-05
0.000187768
0.000242655
0.000317071
0.000255902
0.000123551
0.000444623
0.000364278
0.000336874
0.000384631
0.000484168
0.000328697
0.000463072
0.00026977
9.13204e-05
0.000673236
0.000279702
0.000229245
0.000151204
0.000171114
0.000258022
0.000202465
0.000148111
0.000137031
0.00012965
0.00485466
0.00133849
0.00147449
0.000196201
0.000518038
0.00121351
0
0
0
0
0
0
0.0282038
0
0.00527027
0
0
0.00970786
0
0
0
0
0
0
0
0
7.11006e-05
0
0
0
0
0
0
0
0
0
0
0
0
0
0
0
0
0
0
0
0
0
0
0
0
0
0
0
0
0
0
0
0
0
0.000133888
6.75005e-05
0.000143287
0.000215316
9.8314e-05
0.000192335
0.000174137
0.000150756
0.000167581
0.000212311
0.000111258
0.000101763
0.000185912
0.000254568
0.00016475
0.000142176
0.000116115
0.000124345
0.000146231
0.000233982
0.000180718
0.000145877
0.00231658
0
0.000158741
0
0
0
0
0
0
0
0
0
0
0
0
0
0
0
0
0.0107697
0.00118301
0.000992832
0.000545326
0.000792611
0.00052514
0.000349751
0.000357803
0.000349145
0.00017935
0.000314681
0.000103074
0.000105154
9.19249e-05
0.000185743
4.57314e-05
9.23502e-05
8.53006e-05
0.000141362
7.84858e-05
7.95377e-05
0.000173433
0.000199986
0.000108376
6.68563e-05
0
0
0
0
0
0
0
0
0
0
0
0
0
0
0
0
0
0
0
0
0
0
0.500012
0
0
0
0
0
0
0
0
9.73489e-05
0.000113264
8.13179e-05
0.0001182
0.000102173
5.24011e-05
2.73576e-05
8.97616e-05
0.000132726
0.000125429
8.29978e-05
0.000113168
6.57957e-05
7.842e-05
0.000148328
0.000195701
0.000181207
0.000235752
0.000203556
0.000234021
0.000311126
0.00029866
0.000391219
0.000233488
0.00030071
0.0002517
0.000236254
0.000198447
4.2425e-05
9.24335e-05
0.000189133
0.000178635
0.00016758
0.00028051
0.000260444
0.000125608
0.00017059
0.000145915
0.000160627
0.000171646
0.000162662
0.000156163
0.000154477
0.000153505
0.000168733
0.000130794
0.000167429
0.000132182
0.000169823
0.000169582
0.000165026
0.000162204
0.000166665
0.000174953
0.000163119
0.000168706
0.000170385
0.000166377
0.000164316
0.000166989
0.000173002
0.000136465
0.000161112
0.000183629
0.000177126
0.000175216
0.000171757
0.000169501
0.000161472
0.000160394
0.000187547
0.000191498
0.000225212
0.000254046
0.000284585
0.000256342
0.000213145
0.000200797
0.000175423
0.000166831
0.000171911
0.000166817
0.000198439
0.000177642
0.000195443
0.000181452
0.000209761
0.000204074
0.000224402
0.000212305
0.000209471
0.000199235
0.000189947
0.000185771
0.000180054
0.000172395
0.000182532
0.000175565
0.00025555
0.000304065
0.000235079
0.000307858
0.000231831
0.000252712
0.0002821
0.000341873
0.000231247
0.000309393
0.000432446
0.000170581
0.00017114
0.000168868
0.000172315
0.000169532
0.000177718
0.000175446
0.000172133
0.000175083
0.000169874
0.000177076
0.000186586
0.000171186
0.000175256
0.000169551
0.000156784
0.000169729
0.00016775
0.000519667
0.00032038
0.00040383
0.000124131
0.00010865
0.000104033
0.000251562
6.69549e-05
0.00015624
0.000407363
0.000245728
0.000393597
0.00041064
0.000345687
0.000230443
0.000670269
0.000614382
5.11092e-05
0.000198063
0.000453014
0.000224972
0.000309187
0.000192911
0.000176299
0.000131623
0.000148154
0.000169452
0.000326649
2.12963e-05
0.000207789
0.000113928
6.38498e-06
8.39066e-05
0.000105726
2.35986e-05
4.13015e-05
7.50712e-05
6.18021e-05
9.24209e-05
5.72037e-05
0.000119634
0.000140905
6.85176e-05
8.05761e-05
0.000156225
0.00015315
0.000140414
0.000115488
0.000151279
0.000174945
0.00018423
0.000189629
0.000161526
0.000156255
0.000172622
0.000163595
0.000172162
0.000183376
0.0001779
0.000155814
0.000153795
0.000132779
0.000137272
0.000147676
0.000129334
0.000117172
0.000115096
0.000113973
0.000116662
0.000111651
0.000117864
0.000118808
0.000128114
0.000120073
0.000122627
0.000129614
0.000139911
0.000132642
0.00014543
0.000151776
0.000160825
0.000158494
0.000166712
0.000166938
0.000172472
0.000269361
0.000157514
0.000101087
0.000382712
0.000221987
0.000428026
0.0004463
0.00051254
0.000404928
0.000562376
0.000526527
0.00059365
0.000399795
0.00048627
0.000576751
0.00019122
0.000137141
0.000205205
0.000440752
0.000410781
0.000221068
0.000552035
0.000269787
0.000470857
0.000303973
0.000998558
0.000162731
0.00120744
0.00636038
0.0107009
0.000685179
0.00267918
0.00102801
0.000935032
0
0
0
0
0
0
0
0
0.00682853
0
0
0
0
0
0
0
0
0.197962
0
0
0
0
0
0
0
0
0
0
0
0
0.00102779
0
0
0
0
0.0140793
0
0
0
0
0
0
0
0
0
0
0
0
0
0
0
0
0
0
0
0.00197992
0
0
0
0
0.00216623
0.000145577
0.000171336
0.000163221
0.000190106
0.000158885
0.000156223
0.000147669
0.000258867
0.000112719
0.000169467
3.97996e-05
5.32575e-05
0.000105148
0.000108795
0.000226904
7.43368e-05
0.0003261
0.000153296
0.000135646
0.000141855
0.000153836
0.000136703
0.000128494
0.000242472
0.000126465
0
0
0
0
0
0
0
0
0
0
0
0
0
0.000269427
0.000318942
0.00035008
0
0
0.057809
0.0202473
0.000109629
0.00305615
0.000142259
0.00037827
0.000289174
0.000508822
0.0003618
0.00029729
0.000311347
0.000247709
0.000294608
0.000102113
0.000133
0.000142648
0.000243325
0.000100501
0.000252723
6.66445e-05
7.1216e-05
0.00027087
0.000258301
5.34509e-05
0.000354708
0
0.000968621
0
0
0
0
0
0
0
0
0
0
0
0
0
0
0
0
0
0
0
0
0
0
0
0
0
0
0
0
0
0
0
0
0
0
0
0.000110817
0.000194338
0.000103766
8.16233e-05
9.77757e-05
0.000103504
7.91411e-05
9.16863e-05
8.35059e-05
9.94121e-05
0.000109671
8.94409e-05
5.01511e-05
0.00019281
8.0881e-05
4.76963e-05
0.000258631
0.000252175
0.000286951
0.000294194
0.000340332
0.000331678
0.000378468
0.000380847
0.000402725
0.000271306
0.00042414
0.000465992
0.000281884
0.000107534
0.000267017
0.000210935
0.000229968
0.000252928
0.000294477
0.000324646
0.000356368
0.000165624
0.000155372
0.000149866
0.000129666
0.000164412
0.000162055
0.000174226
0.00018902
0.000156467
0.000161145
0.000157764
0.00016054
0.000151506
0.000162936
0.000154693
0.000153438
0.000170398
0.000174544
0.000169449
0.000164665
0.000155932
0.000163375
0.000198798
0.000207834
0.000253641
0.000217592
0.000258305
0.000291504
0.000220245
0.000216713
0.000170952
0.000215249
0.000173602
0.00019426
0.000191301
0.000191369
0.000208513
0.000200755
0.000204513
0.000217444
0.000210562
0.000232569
0.000225961
0.000225395
0.000214278
0.00019306
0.000201585
0.000182407
0.000190866
0.000172709
0.000177558
0.000187169
0.000178934
0.000300518
0.000242292
0.000297968
0.000223423
0.000309195
0.000250735
0.000265997
0.000247006
0.0003089
0.000361248
0.000385917
0.000380123
0.000171254
0.000170693
0.000171958
0.000171742
0.000170847
0.000175754
0.000177362
0.000175748
0.000175663
0.000177868
0.00017833
0.000171744
0.000180738
0.000176225
0.000179821
0.000189858
0.000171586
0.000171383
0.000170208
0.000174711
0.000179468
0.000180391
0.000205996
0.000134533
0.000166098
0.000532786
0.000713808
0.000464972
0.000173909
0.000482907
9.35e-06
0.000529824
0.000167544
0.000311402
0.000631495
0.000495272
0.000445638
0.000370144
0.000650891
0.000910503
0.000124862
0.000142131
0.000665718
0.000188679
0.000574762
0.000324478
0.000326457
8.02711e-05
0.000208305
9.84777e-05
0.000151091
0.00023906
0.000172615
3.42685e-05
0.000163554
5.08948e-05
0.000151082
9.98953e-05
5.2901e-05
0.000111663
9.31569e-05
4.79384e-05
0.000101551
7.12583e-05
6.9381e-05
0.000139961
8.1054e-05
0.000157139
1.30085e-05
0.000144402
0.0001492
0.000104657
3.43374e-05
0.000147518
0.000149854
0.000147078
0.000153023
0.000128273
0.000145576
0.000140446
0.000160443
0.000151978
0.000154944
0.000144067
0.000128537
0.000126835
0.000116434
0.000111489
0.000102237
0.000102399
9.80938e-05
0.000100733
0.000101644
0.000102264
0.000111429
0.000109567
0.000114723
0.000108955
0.000113216
0.000119304
0.000120271
0.000133691
0.000145036
0.000134127
0.000159108
0.000151568
0.000167487
0.000749634
0.000344977
0.00117488
0.00032575
0.000341394
0.000396318
6.32562e-05
0.000888336
0.000549442
0.000272953
0.000913083
0.00065721
0.000781436
0.000822991
0.000605773
0.00103655
0.000986717
0.00775356
0.0109527
0.000832139
0.00145354
0.00149974
0.00179486
0.000697037
0.00395023
0.00984566
0.0192503
0.00442483
0.00760841
0.00590853
0.0285643
0.00789022
0.0200045
0.00516626
0.0105365
0.0222522
0
0
0
0
0
0
0.287279
0
0
0.0253991
0
0
0
0
0
1.4384
0
0
0
0
0.00312237
0
0
0
0
0
0
0
0.00445559
0.00473105
0
0
0.0121577
0.0100478
0
0
0
0
0.00510879
0
0.00661157
0
0
0
0
0
0
0
0
0
0
0
0
0
0
0
0
0
0.00339661
0
0
0
0
0
0
0
0
0.000103123
0.000159711
0.000202973
0.000170711
0.000157169
0.000284291
0.000171766
0.000122531
0.000199528
8.68212e-05
0.000226296
0.000118768
0.000114861
0.000231348
0.000151845
8.11034e-05
7.5863e-05
0.000232109
1.08795e-05
9.66101e-05
0.000334131
0.000152299
0.000200337
0.000129559
0.000102819
0.000225989
0.00012591
0
0
0
0
0
0
0
0.000281411
0.000215837
0.00027975
0
0
0
0
0.000303816
0.000334848
0.0128813
0.0629057
0.00687332
0.0026922
0.000202573
0.000664871
3.6372e-05
0.000414272
0.000429506
0.000257757
0.000231327
6.67303e-05
0.000171168
8.26038e-05
5.91838e-05
7.73567e-05
6.43871e-05
7.94839e-05
0.00016369
0.000132736
0.000121935
0.000113876
8.43991e-05
0.000230525
5.63846e-05
0
0
0.000916704
0
0
0
0
0.00275334
0
0
0
0
0
0
0
0
0
0
0
0
0
0
0
0
0
0
0
0
0
0
0
0
0
0
0
0
0
0
0
0
0
0
0
0
0
0.000175433
9.43847e-05
0.000234997
0.00013941
7.37797e-05
8.73588e-05
8.50105e-05
0.000118288
0.000120823
0.000155984
0.000181667
0.000215695
0.000184554
5.65822e-05
0.000117925
0.000298564
0.000130974
0.000297227
0.000168628
0.000310104
0.00046408
0.000407477
0.000340023
0.000363315
0.00035756
0.000403327
0.000335231
0.000326904
0.000466386
0.000545374
0.000341109
0.000289166
0.000307189
0.000360144
0.00030397
0.000312964
0.000383986
0.000388021
0.000371018
0.000101882
0.000159559
0.000171743
0.000169197
8.10616e-05
9.96361e-05
0.00019423
0.000230624
0.000191924
0.000180475
0.000273375
0.000170751
0.000210194
0.000145891
0.000162156
0.000153675
0.000159571
0.000154019
0.000160468
0.000155003
0.000164957
0.000115185
0.000167183
0.000169183
0.00016191
0.000170478
0.000164603
0.000154345
0.00020105
0.00022008
0.000247008
0.000220026
0.0002654
0.000233251
0.000218954
0.000213547
0.000197241
0.000211323
0.000194213
0.000206627
0.000221623
0.00021687
0.00023739
0.00023467
0.000237398
0.000233978
0.000227595
0.000231352
0.000210307
0.0001985
0.000197714
0.000186961
0.000184785
0.000196482
0.000169904
0.000165526
0.000168139
0.000176417
0.000306669
0.000317248
0.000269909
0.000237164
0.000279489
0.000307637
0.000252176
0.000274086
0.000299746
0.000322318
0.000355067
0.000333024
0.000159138
0.00016082
0.000166298
0.000166379
0.000163449
0.000167971
0.000161844
0.000163342
0.00017285
0.000182574
0.000177808
0.000178377
0.000181984
0.000194813
0.000182019
0.000186886
0.000188627
0.000182293
0.000191873
0.000183213
0.000174681
0.000176614
0.000169165
0.000190628
0.000173039
0.00141053
0.000877294
0.0009544
0.000662072
0.000509087
0.00027855
0.000533033
0.0010783
0.00097408
0.000675527
0.000666938
0.000877641
0.00123388
0.000350507
0.000266372
0.00149835
0.000296419
0.00101796
0.000162676
0.000135788
0.000155617
0.000243858
0.00015543
0.000284272
0.00012127
9.65268e-05
0.00016616
0.000343507
0.000228896
6.77596e-05
4.0432e-05
0.000154288
4.89798e-05
0.000136233
6.10585e-05
4.09345e-05
2.76125e-05
0.000140988
0.000146438
5.06598e-05
4.9098e-05
3.35761e-05
0.000123574
9.64829e-05
0.000139707
6.18754e-05
6.25887e-05
0.000153206
8.4279e-05
0.000132045
0.000120375
0.000146647
0.000104837
0.000135019
0.000136228
0.000123718
0.000106293
0.000121976
0.000109611
0.000104166
9.19141e-05
9.11935e-05
8.89339e-05
9.17091e-05
9.34489e-05
9.03891e-05
9.61289e-05
9.74621e-05
9.81567e-05
0.000100906
0.000100158
9.67855e-05
0.000102819
0.000108019
0.000111783
0.000120908
0.000139269
0.000125856
0.000145735
0.00894918
0.0207607
0.00985436
0.0166862
0.00173669
0.000950836
0.000767776
0.000582643
0.00115323
0.000984215
0.000285475
0.000941786
0.000566973
0.000941596
0.000653321
0.00104219
0.00198019
0.00182196
0.00216332
0.00423803
0.0103231
0
0.0271867
0.0164769
0.0839923
0.00612408
0.0173811
0.0384169
0.0274824
0
0
0
0
0
0
0.242691
0
0
0
0
0
0
0.31338
0
0
0
0
0
0
0
0
0
0
0
0
0
0
0
0
0
0
0
0
0
0
0
0
0
0
0
0
0
0
0
0
0
0
0
0
0
0
0
0
0
0
0
0
0
0
0
0
0
0
0
0
0
0
0
0
0
0
0
0
0
0
0
0
0
0
0
0
0
6.56164e-05
0
0
0
0
0.000188607
0.000197939
0.000193318
0.000127161
3.23804e-05
0.000129106
0.000136979
0.000132309
0.000200687
0.000239967
0.000167183
0.000200367
0.000105204
0.000174045
5.59097e-05
0.000283423
0.000155884
0.000238914
0.000188394
0.000106154
0.00018256
7.91226e-05
0.000261558
6.73038e-05
0.000286986
0.00013992
0.000118246
0.000297818
0.00011538
0
0
0
0
0.000332217
0.00028998
0.000318115
0
0
0.000240305
0.000305236
0
0.0333444
0
0
0.000641472
0.000194549
0.004998
0.0107982
0.00134638
0.00390369
0.000659228
8.41681e-05
0.000280548
0.000149848
0.000270549
0.000196188
0.000288623
0.000209923
0.000273235
0.000231247
0.000263832
0.000114188
8.77824e-05
0.000181323
0.000237986
9.88531e-05
0.000316171
0.000167903
0.000206733
0
0
0
0
0
0
0
0
0
0.199826
0
0.0435591
0
0
0
0.0288933
0.0257479
0.0540552
0
0
0.0538916
0
0
0
0
0
0
0
0
0
0
0
0
0
0
0
0.00952047
0
0.0030494
0
0
0
0
0.740831
0
0
0
0
0.189169
0.263832
0.0234982
0
0
0
0
0
0
0.000265723
0.000265624
0.000149865
0.000122345
0.000237207
6.60159e-05
0.000201767
0.000151709
7.49228e-05
0.000182166
0.000169792
0.000216791
0.000265086
0.000316328
0.000231007
0.00017534
6.45846e-05
0.000205287
0.000224684
0.000340112
0.000174423
0.000403583
0.000416052
0.000355498
0.00040681
0.000505095
0.000408883
0.000497659
0.000384507
0.000492222
0.000518518
0.000559943
0.000623176
0.000238507
0.000333426
0.000405938
0.00029103
0.000437465
0.000475691
0.000621687
0.000568395
0.000132119
9.18325e-05
7.12228e-05
0.000213985
0.000319192
0.000420078
0.000161924
0.000267096
0.000292013
0.000166621
8.50868e-05
0.000137405
0.000181141
0.000151047
0.000161951
0.000149546
0.000162427
0.000152001
0.000153633
0.000283372
0.000177012
0.000169633
0.000163202
0.000156023
0.000167603
0.000162959
0.000155803
0.000199563
0.00020971
0.000233422
0.000212773
0.000224137
0.000257897
0.000200357
0.000222984
0.00022505
0.000230603
0.000214675
0.000208371
0.000249631
0.000238345
0.000269256
0.000251062
0.000233214
0.00022702
0.000202324
0.000212058
0.000197928
0.000189603
0.000196872
0.000192327
0.000180949
0.000173104
0.000165838
0.000172171
0.000180021
0.000173628
0.000289218
0.000299082
0.000262103
0.00026396
0.000264475
0.000263838
0.000270934
0.000254325
0.000344713
0.000288804
0.000336653
0.000325163
0.000473065
0.00035438
0.000420813
0.000138257
0.000150995
0.000150955
0.000149275
0.000152465
0.000152429
0.000141813
0.000148304
0.000165268
0.000152964
0.000176395
0.000184879
0.000187025
0.00017686
0.000178543
0.000183103
0.000194632
0.000182558
0.000193121
0.000180335
0.000185976
0.000194839
0.000159998
0.000171482
0.000190715
0.000179718
0.00331086
0.00222534
0.00221274
0.00130442
0.00132544
0.000689692
0.00120262
0.000809416
0.00127637
0.00135275
0.00184853
0.000739939
0.00160603
0.00125374
0.00151897
0.00157568
0.00172143
0.000289669
0.000297129
0.000198828
0.000359033
0.000119622
0.000312888
0.000232124
0.000304672
0.000208481
0.000183343
0.000225468
6.56985e-05
0.000184033
0.000163768
1.4492e-05
4.00627e-05
5.5748e-05
9.48465e-06
3.71189e-05
5.17809e-05
5.67204e-05
4.01424e-05
5.07122e-05
6.80191e-05
3.72118e-05
5.70138e-05
8.20371e-05
0.000116002
7.32682e-05
6.10065e-05
0.000101828
8.71106e-05
0.000120853
0.000128908
0.000114558
0.00012105
9.8375e-05
0.000123061
0.000116074
0.000106333
0.000107913
9.90185e-05
8.43753e-05
8.13093e-05
8.18591e-05
8.2798e-05
8.26214e-05
8.37629e-05
8.48447e-05
8.87519e-05
8.72139e-05
8.62679e-05
8.61541e-05
8.80022e-05
8.89422e-05
9.63639e-05
9.94886e-05
0.000114162
0.000105191
0.00012845
0.000123263
0.0456084
0.107335
0.00458658
0.0284324
0.015918
0.0259518
0.0129698
0.00480322
0.0205986
0.00159663
0.000541988
0.00876275
0.00229473
0.000399475
0.0011547
0.000391554
0.001664
0.00286377
0.00123672
0.00387471
0.0020895
0
0
0
0
0
0.0386996
0
0
0
0
0
0
0
0
0.20541
0
0
0
0.0116265
0
0
0
0
0
0
0
0
0
0
0
0
0
0
0
0
0
0
0.00858835
0
0
0
0
0
0.00177767
0.00246881
0.0038986
0
0
0
0
0
0
0
0
0
0
0
0
0
0
0
0
0
0
0
0
0
0
0
0
0
0
0
0
0
0
0
0
0
0
0
0
0
0
0
0
0
0.00531804
0
0.00286739
0
0.0101686
0
0
0
0.000153619
0.000179291
0.000189547
0.000190477
0.000194109
0.000196595
0.000201613
0.000146496
0.000168533
4.56456e-05
0.000120797
0.000175097
0.000302299
0.000205311
0.000216272
0.000131581
0.000181293
0.000222409
0.00014651
5.3851e-05
9.07271e-05
0.000235321
0.000158658
0.000143735
0.000252869
4.75483e-05
0.000193055