/*--------------------------------*- C++ -*----------------------------------*\
  =========                 |
  \\      /  F ield         | OpenFOAM: The Open Source CFD Toolbox
   \\    /   O peration     | Website:  https://openfoam.org
    \\  /    A nd           | Version:  8
     \\/     M anipulation  |
\*---------------------------------------------------------------------------*/
FoamFile
{
    version     2.0;
    format      ascii;
    class       volScalarField;
    location    "20160";
    object      nut;
}
// * * * * * * * * * * * * * * * * * * * * * * * * * * * * * * * * * * * * * //

dimensions      [0 2 -1 0 0 0 0];

internalField   nonuniform List<scalar> 
526318
(
0.000471844
0.000590861
0.000479489
0.000784933
0.000312529
0.000489232
0.000186903
0.00030986
0.00013732
0.000379425
0.000577219
0.000567105
0.000192111
0.000641298
0.000342915
0.000459543
0.000314125
0.000229958
0.00017614
0.00042567
0.000840654
0.00067877
0.00015561
0.000355963
0.000444922
0.000228498
0.000538097
0.000417178
0.000178016
0.000314894
0.000393067
0.000230447
0.000290395
0.000584539
0.000454222
0.000580752
0.000799192
0.000494332
0.000863842
0.000164966
0.000430437
0.000511982
0.000377602
0.000426528
0.000322043
0.000316529
0.0002102
0.000270767
0.000549798
0.000703547
0.000249819
0.000495514
0.00048463
0.000426591
7.99841e-05
0.000305412
0.000224977
0.000195185
0.000470605
0.000367351
0.000458388
0.000280205
0.000209894
0.000191747
0.000319489
0.000301045
0.000247005
0.000414881
0.00024588
0.000157764
0.000218115
0.000360111
0.000164645
0.000336572
0.000417397
0.000470466
0.000486159
0.000619167
0.000275347
0.00025301
0.000203422
0.00037584
0.000445746
0.000505062
0.000249383
0.000214117
0.000550461
0.000165413
0.000326512
0.000324071
0.000392737
0.000258313
0.000194245
0.000349823
0.000302196
0.00019448
0.000416742
0.000410533
0.000205191
0.000228643
0.000112075
0.000292111
0.000256012
0.000252183
3.39847e-05
3.77639e-05
0.000168256
0.00026082
0.00029449
0.000261122
0.000225419
0.000253159
0.000537974
0.000511375
0.000207376
0.000270057
0.000291423
0.000444257
8.73165e-05
5.50556e-05
0.000191863
0.000142443
0.000264007
0.000211237
0.00016862
6.1424e-05
0.000127782
7.88041e-06
0.00010568
6.85033e-05
0.000123542
7.75744e-05
4.44105e-05
3.12382e-05
7.08359e-05
3.88197e-05
1.99035e-05
7.20133e-05
6.76753e-05
4.41597e-05
7.33126e-05
8.81105e-05
2.23617e-05
2.85097e-05
8.5121e-05
6.0829e-05
9.25668e-05
6.54212e-05
0.00013967
4.84458e-05
6.11072e-05
6.35106e-05
0.000307965
0.000188054
0.000114505
0.000305253
0.000224148
6.51411e-05
0.000178643
0.00014126
0.000213643
0.000273261
0.000519357
0.000506627
0.000294234
0.000445758
0.000109746
0.000304979
0.000234855
0.000274886
0.000461866
0.000169113
0.000196407
0.000420625
0.000434714
0.000530236
0.000301098
0.000135646
0.000319282
0.000298576
9.47623e-05
0.000277834
3.27709e-05
0.00020228
8.5428e-05
0.000238588
0.000125134
5.20586e-05
0.000129166
4.476e-05
8.13056e-05
6.68046e-05
4.11889e-05
1.49527e-05
8.39904e-05
0.000124245
4.23448e-05
5.03669e-05
0.000156573
8.113e-05
7.64122e-05
0.000230147
0.000111277
0.000187679
5.90163e-05
0.000291083
0.000233722
0.000205332
0.000227992
0.000184576
0.000478032
0.000377164
0.000549131
0.000107346
0.00066763
0.000444292
0.00033277
0.000608348
0.000712246
0.00040501
0.000157344
0.000285516
0.000289475
0.000154862
0.000181994
0.000666341
0.000468967
0.000146232
0.000173207
0.000178576
0.000180594
0.000107604
0.000353544
0.000328914
0.000156611
0.000258426
9.08259e-05
0.000148797
0.000241138
0.000186201
0.000195734
0.000342226
0.000318539
0.000218113
0.00011425
0.000213285
0.000268768
0.000323973
0.000133578
0.000279842
0.000246773
0.000437447
0.0002609
0.000367543
0.000351062
0.000106977
0.000246824
0.000120374
0.000240911
0.000232809
0.000274101
4.48329e-05
9.01932e-05
0.000149965
0.000101349
0.000163178
0.000224947
0.00020743
0.000184306
0.000261624
0.000195623
0.000314123
0.0004449
0.000426805
0.00038212
0.000240932
0.000284528
0.000232502
0.000371747
0.000850965
0.000286634
8.94222e-05
0.000104058
0.000108331
0.000111927
1.45582e-05
6e-05
5.10683e-05
7.56139e-05
6.13339e-05
6.88774e-05
4.41825e-05
8.85103e-05
9.17609e-05
7.64944e-05
0.000168727
0.000180564
0.00020341
0.000229129
0.000243327
0.000202934
4.62549e-05
0.000122315
0.000183042
0.000219023
0.000126282
0.000102298
9.25585e-05
0.000103582
0.00018688
0.000219638
0.000104197
9.6687e-06
0.00018421
0.000109048
9.90516e-05
0.000173723
0.000252305
0.000218201
0.000257631
0.000279016
0.000323458
0.000291687
0.000364459
0.00039679
0.000278515
0.00037573
0.000571572
0.000247552
0.000549785
0.00034182
0.00013708
0.000148444
0.000310816
0.000117363
0.000339642
0.000188517
0.000216355
0.000309063
0.000259593
0.000209544
0.000159652
0.000132247
0.000136637
9.6505e-05
0.000157437
8.60541e-05
3.52359e-05
5.06819e-05
1.74831e-05
0.000109188
1.00568e-05
6.67392e-05
3.3482e-05
4.17735e-05
0.000171732
1.84604e-05
9.46926e-05
5.05477e-05
0.00025224
5.18793e-05
4.73588e-05
0.000167634
0.000112766
0.000226364
0.000200062
0.000179104
0.000209202
0.000274563
0.00025672
0.000261716
0.000244249
0.000219564
0.000260698
0.000292785
0.000296714
0.000334918
0.000370847
0.000352061
9.56533e-05
0.000266179
0.000872304
5.29414e-05
0.00022164
0.000770343
0.000578356
0.000331079
0.000467749
0.000168575
0.000237179
0.000131293
0.000250349
0.00023119
0.000191981
0.000364951
0.000245594
0.000123765
0.000350723
0.00044759
9.23947e-05
0.000291337
0.000310804
0.000129494
0.000268659
7.32167e-05
5.38198e-06
5.44729e-05
4.36357e-05
2.4697e-05
2.079e-05
0.000209959
0.0003811
0.000207558
0.000216019
8.48446e-05
0.000173271
0.000123851
0.000232351
0.000163874
0.000388155
0.000145926
0.000423731
0.000227322
0.000249437
0.000104188
0.000305534
0.000384426
0.000370191
0.000300343
0.000297324
0.000186083
0.000242104
0.000343865
0.00015295
0.000174481
0.000229032
0.000151421
0
7.25995e-10
1.05152e-10
0
0
0
0
1.79361e-10
8.39666e-10
8.23751e-10
4.43922e-05
0
0
0
5.95697e-05
0
4.70351e-05
2.5468e-05
4.53185e-05
6.03811e-05
0.000206307
0.000113994
0.000194805
0.000262386
0.000277487
0.000197647
0.000207361
0.000364391
9.78895e-05
0.000315453
0.000174142
0.00030934
0.000281913
0.000127462
0.000372475
0.000349159
0.000382258
0.000232002
0.000126869
0.000123493
4.33134e-05
8.90879e-05
7.25218e-05
2.98068e-05
6.17603e-05
5.32865e-05
6.16717e-05
3.77301e-05
8.15751e-05
2.62955e-05
0.000110902
0.000118232
0.000194634
0.000137668
0.000164785
0.000182064
0.000155631
0.000191914
8.46522e-05
0.000211537
5.01171e-05
9.32052e-05
5.45179e-05
0.000135629
5.25611e-05
0.000179666
8.3272e-05
3.66403e-05
0.000186257
0.000343604
0.000306441
0.000284643
0.000356659
0.000335713
0.000355535
0.000400456
0.000363067
0.00027807
0.000324739
0.000297135
0.000325755
0.000227521
0.00022922
0.00030476
0.000264077
0.000378423
0.000419209
0.000347846
0.000371117
0.000409694
0.000255649
0.000172716
0.000325073
0.000287924
0.000454662
0.000421831
0.000146377
0.000339832
6.97546e-05
0.000181455
0.000334858
0.000168132
0.000221934
0.000264622
0.000254243
0.000145884
0.000227583
0.000183926
0.000191499
9.44657e-05
7.54016e-05
5.80668e-05
5.30412e-05
5.63554e-05
5.70771e-05
0.00010578
4.61918e-05
2.60527e-05
0.000148611
0.000105545
5.35647e-05
0.000190782
8.85377e-05
0.000161373
0.000183207
2.98837e-05
0.000133928
0.000279081
0.000167382
0.00019886
0.00019721
0.000201542
0.000222914
0.000257034
0.000233981
0.000228813
0.000265647
0.000291024
0.000314113
0.000378901
0.000354863
0.000372808
0.000369366
0.000393242
0.00049478
0.000234179
0.000251196
0.000400233
0.000894058
0.000437117
0.000549728
0.000431667
0.000363243
0.00012435
0.00026574
0.000183416
0.000205976
0.000136055
0.00019242
0.000253996
0.000221837
0.000154025
0.000204196
0.000178938
0.000199226
0.000121261
0.000192535
0.000180608
4.14097e-05
0.000167172
0.000254001
1.31672e-05
0
1.70118e-05
2.21988e-05
0.000209954
0
0.000274731
0.000269806
0.000160121
0.000159248
0
0
0
0
0
0
0
0
0
0
6.68683e-10
0
8.02103e-10
0
7.77134e-10
1.5813e-09
0
0
0
0
0
0
0
0
0
0
0
0
0
0
0.000383847
0.000195274
0.000265494
0.000278108
0.000196288
0.000101723
0.00036981
0.000267554
0.000352636
0.000359562
0.000324606
0.000145354
0.000209935
0.00026784
0.000295636
0.000369479
0.000279562
0.000183968
0.000224637
0.000297466
0.000172075
0.000136557
0
0
0
0
0
0
0
0
0
0
0
0
0
0
0
0
0
0
0
0
0
0
0
0
9.3802e-06
1.90564e-05
5.52765e-05
5.14835e-05
4.72205e-05
0.00013752
0.000278448
0.000119447
0.000200967
0.000290041
0.000267554
0.000203421
0.000365251
7.86846e-05
0.000166505
0.000372723
0.000416502
0.000260627
0.00015568
0.000297981
0.000458189
0.000197284
0.00026988
0.000533643
6.6269e-10
0
0
0
0
0
0
0
0
0
0
0
0
0
0
0
0
0.000142521
0.000119688
8.46127e-05
7.19118e-05
6.44893e-05
4.94893e-05
4.92763e-05
2.02037e-05
3.7429e-05
2.28126e-05
2.64062e-05
2.86449e-05
6.60515e-05
0.000104646
0.000128524
0.000115366
0.000176233
0.000129456
0.000146686
0.000214164
9.96747e-05
0.000139993
0.000106698
0.00010848
5.67748e-05
4.9445e-05
8.53295e-05
5.7001e-05
4.28899e-05
0.00011295
0.000146349
0.000102809
0.000390777
0.00038543
0.000408764
0.000378034
0.000406502
0.000392849
0.000412467
0.000373955
0.000397712
0.000389478
0.000310644
0.000323537
0.000384109
0.000362737
0.000247293
0.000268238
0.00027858
0.00028481
0.000246816
0.00018864
0.000263835
0.000303614
0.000399143
0.000223177
8.67701e-05
0.000197333
0.000277948
0.00025603
0.000377141
0.000123737
0.000349072
2.8041e-05
0.000300678
5.3693e-05
0.000236078
0.000326427
0.000251219
0.000233176
0.000109999
0.000110498
0.000271675
0.000290998
0.000277202
0.000172375
0.000135116
0.000138149
0.000187086
0.000123832
0.000121491
5.74655e-05
3.75926e-05
3.87442e-05
6.91621e-05
7.95769e-05
0.000128732
2.73611e-05
3.42256e-05
0.000171428
6.94796e-05
5.70396e-05
0.000226887
0.000159067
0.000183025
0.000177501
0.000241089
0.000200448
0.000262443
0.000185636
0.000267098
0.000228983
0.000277077
0.000298201
0.000321919
0.000273134
0.000344286
0.00030573
0.000375836
0.000345365
0.000385332
0.000370593
0.000368546
0.000372631
0.000395921
0.000392811
0.000385939
0.000405928
0.000435715
0.000422917
0.000398807
0.000403947
0.000415147
0.000439266
0.000438819
0.000454678
0.000437189
0.000475566
0.000483154
0.000519333
0.000486069
0.000453514
0.00049997
0.000523319
0.000527871
0.000495156
0.000491111
0.000543856
0.000516818
0.000525605
0.000566505
0.000619218
0.000561651
0.000625798
0.000581848
0.000670722
0.000665422
0.0006175
0.000640793
0.000673825
0.00067198
0.000658758
0.000651993
0.000294768
0.000215625
0.000153092
0.000544753
5.28843e-06
6.33517e-05
0.000534842
0.000350992
7.44406e-05
0.000224818
3.97726e-05
0.000175893
0.000136737
0.00014223
0.000139098
0.000123787
0.000139
0.000118186
0.000146783
0.000118307
0.000158988
0.000100351
0.000154091
0.000138505
3.26314e-05
0.000198038
0.00011432
0.000135298
0.000203284
0
0
0
0
3.03576e-06
0
0.000309329
0.000336591
0.00024403
0.00017681
0
0
0
0
2.74948e-09
0
0
0
0
0
0
0
0
0
0
0
0
0
0
0
0
1.19945e-10
0
1.21979e-10
0
0
0
0
1.0069e-09
0
3.95521e-09
1.59148e-09
0
2.76511e-10
1.65895e-09
2.66615e-09
0
0
0
0
0
0
0
0
0
0
0
0
0
0
0
0
0
0
0
0
0.000122122
8.53125e-05
0.000104304
0.000407972
0.000186753
0.000387948
0.000338581
0.000145102
0.000209366
0.000227284
0.000326715
0.000289367
0.000332333
0.000224631
0.000199903
0.000166765
0.000183393
0.000200229
0.000291743
0.000284068
0.000215471
0.000225911
0
0
1.01141e-09
7.47799e-10
0
0
0
0
1.79287e-09
0
0
0
0
0
0
0
0
0
0
1.27675e-05
4.1269e-05
7.84048e-05
3.94578e-05
0.000164424
0.000163635
9.61674e-05
0.000180845
0.000261969
0.000309879
0.000225632
0.000321476
0.00043054
0.000457324
0.000269197
0.000304581
0.000345841
0.000266566
0.000179544
0.000183562
0.000413886
0.000117846
0.000200023
0.000193886
0.000229871
0
0
0
0
0
1.72743e-11
0
0
1.02209e-11
0
0
0
0
0
0
0
0
0
0
0
0
0
0
0
5.95798e-07
1.10724e-06
0.000116562
0.000111127
8.95672e-05
7.5793e-05
8.11906e-05
3.53826e-05
6.11324e-06
6.21157e-05
6.86054e-05
2.71217e-05
6.5402e-05
2.59596e-05
0.000101245
0.000105066
0.00013289
0.000116187
0.000134049
0.0001941
0.000245559
0.000152193
0.000134729
0.000124294
0.000114137
0.000120648
7.36001e-05
3.32381e-05
8.68388e-05
4.44211e-05
9.06139e-05
9.83791e-05
0.00012149
0.0001358
0.000405237
0.000419268
0.000426554
0.000420046
0.000404106
0.000405814
0.000437347
0.000417435
0.00046546
0.000449579
0.00042552
0.000445508
0.000482461
0.000505945
0.000543796
0.000536566
0.000580918
0.000572667
0.000650937
0.00065513
0.000712019
0.00070027
0.000692836
0.000691292
0.000651314
0.0006582
0.000648746
0.00065869
0.000647877
0.000657246
0.000316871
0.000315348
0.00038448
0.00036443
0.000208066
0.000302224
0.000265197
0.000311434
0.000270715
0.000187069
0.000229225
0.000111003
0.000201915
0.000583252
0.000167351
0.000195733
0.00014405
0.000450405
0.000317589
0.000112361
6.75677e-05
0.000291772
0.000276979
0.000181325
0.000212567
0.000174614
7.65399e-05
0.000285237
0.000116511
0.000298968
7.84428e-05
0.000292485
0.000202795
0.000179978
0.000229956
0.000195504
0.000181264
5.76869e-05
0.000115869
0.000158671
0.000182694
8.36685e-05
6.67724e-05
1.37132e-05
1.43204e-05
9.56157e-05
0.000106412
3.38461e-05
7.12327e-05
0.000119391
0.000161002
0.000152325
0.000101097
0.000151748
0.000180376
0.000254743
0.000237781
0.000188763
0.000238373
0.000221854
0.000330295
0.000303195
0.000269884
0.000247843
0.000342442
0.000322057
0.000348809
0.000359311
0.000378762
0.000355094
0.000399851
0.000367992
0.000388605
0.000393074
0.000368287
0.000389284
0.000403636
0.000406961
0.000411815
0.000432414
0.000454662
0.000451268
0.000489776
0.000470922
0.000519741
0.000505817
0.000559239
0.000565403
0.000618258
0.000600004
0.000633577
0.000644566
0.000652444
0.000652422
0.000651927
0.000631823
0.000644362
0.000651309
0.000671015
0.000673147
0.000614335
0.000648578
0.000625457
6.8015e-05
0.000139228
0.000206752
0.000307289
0.000204874
0.00011171
0.000497932
0.000368184
0.000360256
0.000307385
0.000316029
0.000200248
0.000280422
0.000203465
6.77528e-05
0.000220141
0.000123468
0.000154739
8.07255e-05
0.00011644
0.000174161
0.00013976
0.00010063
9.56939e-05
9.43455e-05
0.00017057
0.000126387
0.000220955
5.58469e-05
0.000156798
0.000366349
0
0
0
0
0
0
2.83884e-05
0
7.14244e-05
0
0
3.72861e-09
0
0
0
0
0
0
0
0
1.56955e-11
0
0
0
0
0
0
0
0
0
0
0
0
0
0
0
0
0
0
0
0
0
0
0
0
0
0
0
0
0
0
0
0
0
0.000314184
0.000157924
0.000319638
0.000495592
0.000204107
0.000438546
0.000309238
0.000294781
0.000281377
0.000358262
0.000172947
0.000154095
0.000258338
0.000355069
0.000203164
0.000146256
0.00011577
0.000161907
0.000204894
0.000329422
0.000253187
0.000202002
6.00827e-10
0
4.11711e-11
0
0
0
0
0
0
0
0
0
0
0
0
0
0
0
0
8.91723e-05
5.82898e-05
0.000113242
8.3451e-05
9.87418e-05
0.000143645
0.000158795
0.000230232
0.000243051
0.000180456
0.000230375
0.000129657
0.0001625
0.000136974
0.000322321
9.89595e-05
0.000176295
0.000176929
0.000293773
0.000163973
0.00017198
0.000395023
0.000463845
0.000248294
0.000146638
0
0
0
0
0
0
0
0
0
0
0
0
0
0
0
0
0
0
0
0
0
0
4.80846e-07
0
0
0
0
0
0
0
0
8.65681e-05
0.000100302
6.71515e-05
9.44487e-05
7.52235e-05
3.9827e-05
1.94701e-05
6.45661e-05
0.000128299
0.000108141
6.90932e-05
6.9834e-05
4.11423e-05
4.20035e-05
8.01863e-05
0.0001231
0.000113763
0.00014568
0.000136711
0.000176881
0.000214655
0.000220051
0.000280832
0.000133365
0.000163311
0.000141153
0.000139517
9.87929e-05
2.09396e-05
4.56182e-05
9.66842e-05
9.47094e-05
8.59658e-05
0.000132517
0.000125391
0.000504839
0.000692197
0.000607242
0.000653915
0.000728829
0.000680628
0.00067011
0.000655506
0.000683814
0.00074467
0.000560139
0.000750324
0.000573398
0.000772197
0.000663382
0.000617533
0.000617643
0.000664375
0.000686362
0.000621855
0.000644894
0.000683559
0.000671112
0.000646558
0.000646944
0.000701982
0.000546254
0.000650708
0.000757342
0.000636916
0.000629581
0.00061684
0.000609403
0.00059136
0.000598214
0.000436608
0.00041671
0.000429642
0.000427274
0.000423646
0.000423398
0.000458579
0.000422921
0.000487545
0.000476099
0.000431622
0.000460275
0.000570303
0.000537111
0.000620704
0.000600512
0.000692983
0.000674452
0.000739591
0.000720583
0.000720656
0.000702821
0.000662479
0.000649298
0.000633003
0.000611377
0.000633423
0.000608362
0.000329677
0.00035279
0.000247125
0.000319174
0.000262977
0.000374877
0.000407846
0.000318783
0.000237871
0.000252307
0.000310077
0.000677973
0.000693354
0.000694217
0.000712747
0.000704217
0.000745404
0.000738508
0.000741746
0.000745262
0.000733531
0.000764323
0.000841395
0.000787006
0.000821993
0.000795616
0.000739201
0.000809149
0.000816846
0.000355575
0.000194348
0.000245969
0.000124458
8.95402e-05
0.000116941
0.000235796
5.47114e-05
0.000104567
0.000268949
0.000164071
0.000259336
0.000195678
0.000193617
9.02496e-05
0.000277227
0.000312157
2.13825e-05
0.000150911
0.00029776
0.000118312
0.000245789
0.000153124
0.000140679
0.000116355
0.00012043
0.000173217
0.000304183
2.30764e-05
0.000213072
0.000123401
7.20668e-06
9.85539e-05
0.000128451
2.97527e-05
5.22149e-05
9.63774e-05
7.77519e-05
0.000127743
7.74111e-05
0.000160065
0.00018896
9.93642e-05
0.000112783
0.000241918
0.000224171
0.00020025
0.000174764
0.000244099
0.000278115
0.000302667
0.000326534
0.000278782
0.000249704
0.000320274
0.000315504
0.000320301
0.000335332
0.000363735
0.000351097
0.000379112
0.000351927
0.000343028
0.000376336
0.00037982
0.00036578
0.000375874
0.000364615
0.00039885
0.000393349
0.000432273
0.000442821
0.000474461
0.000452406
0.000487044
0.000505574
0.000551587
0.000527108
0.000573301
0.000597308
0.000632869
0.000623313
0.0006562
0.000656728
0.000679065
0.000196091
0.000112921
7.63905e-05
0.000243497
0.000147814
0.000295559
0.000270543
0.000417005
0.00027032
0.000325407
0.000318029
0.000341561
0.00018127
0.000281324
0.000349417
6.73609e-05
4.69694e-05
6.21202e-05
0.000180376
0.000276644
0.000119136
0.000297044
0.000146575
0.000148057
6.54519e-05
8.79214e-05
1.63915e-05
7.72473e-05
8.79544e-05
0.000153942
0.000206847
0.000433722
0.000294509
0.000268373
0
0
0
0
0
0
0
0
9.00337e-05
0
0
0
0
0
0
0
0
2.60052e-07
0
0
0
0
0
0
0
0
0
0
0
0
2.09189e-10
0
0
0
0
2.86221e-09
0
0
0
0
0
0
0
0
0
0
0
0
0
0
0
0
0
0
0
2.11512e-09
0
0
0
0
2.31407e-09
0.000682727
0.000774886
0.000719286
0.000923815
0.000785732
0.000771647
0.00033132
0.000580193
0.000250277
0.00037666
8.13103e-05
0.000116474
0.00018506
0.000171035
0.00032466
0.000108869
0.00045945
0.000216235
0.000186855
0.000197693
0.000178406
0.000136666
0.000149035
0.000323013
0.000167242
0
0
0
0
0
0
0
0
0
0
0
0
0
0.000173154
0.000219813
0.000257267
0
0
5.05876e-06
3.10156e-06
5.09489e-06
4.88186e-05
1.82358e-05
5.4253e-05
7.59759e-05
8.34402e-05
0.000157527
0.000285348
0.000378715
0.000357874
0.000427066
0.000222636
0.000264785
0.000291728
0.000369976
0.000174968
0.000495731
0.000139208
0.00014764
0.000555851
0.000551582
0.000118438
0.000791976
0
2.7319e-10
0
0
0
0
0
0
0
0
0
0
0
0
0
0
0
0
0
0
0
0
0
0
0
0
0
0
0
0
0
0
0
0
0
0
0
9.86481e-05
0.00018473
9.5801e-05
6.78043e-05
8.10408e-05
8.15439e-05
6.46862e-05
5.76416e-05
5.53726e-05
5.42063e-05
6.01779e-05
7.51193e-05
4.11444e-05
9.49675e-05
3.93918e-05
2.3317e-05
0.00012876
0.000141838
0.000153784
0.000172232
0.000176154
0.000225259
0.000232173
0.000259062
0.000279099
0.000128106
0.000179269
0.000208533
0.000136315
4.88497e-05
0.000122889
8.27336e-05
9.99846e-05
0.000104255
0.000115638
0.000119347
0.000132022
0.000666965
0.000633863
0.000624778
0.000548605
0.000697613
0.000690766
0.000777651
0.000823566
0.00059184
0.000609274
0.00058725
0.000609167
0.000592607
0.000615024
0.000606224
0.000589639
0.000604102
0.00061262
0.00059444
0.000594368
0.000578792
0.000592353
0.000465758
0.000442593
0.000471996
0.000454177
0.000441408
0.000441328
0.000467124
0.000459852
0.00047854
0.000605165
0.000495398
0.000494995
0.000531944
0.000598091
0.000616326
0.000558516
0.000594844
0.000702462
0.000688538
0.000754099
0.000736692
0.000741032
0.000720839
0.000667285
0.00069011
0.000630698
0.000660651
0.000597266
0.00061507
0.000648351
0.000619023
0.00030286
0.000245223
0.000379426
0.000320118
0.000312929
0.000290082
0.000392049
0.000371409
0.000307422
0.000324613
0.000292147
0.00032713
0.000699898
0.000671858
0.000688885
0.000717514
0.00071235
0.000733876
0.000747679
0.000754986
0.000769525
0.000786431
0.000788447
0.000762042
0.00082018
0.000827628
0.00083117
0.000890885
0.000816913
0.000849588
0.000826961
0.000733508
0.000760841
0.000776097
0.00102846
0.000670456
0.000831216
0.000324702
0.000436152
0.000280652
9.95776e-05
0.000339651
6.81715e-06
0.000245547
8.71271e-05
0.000175823
0.000265028
0.000228633
0.000211684
0.000143223
0.000256124
0.000355557
4.90064e-05
6.10521e-05
0.000305895
0.000111231
0.000287343
0.000162848
0.000225557
6.45317e-05
0.000140552
9.03204e-05
0.000145575
0.00020268
0.000158278
3.48979e-05
0.000157362
6.07218e-05
0.000163801
0.000121167
6.55546e-05
0.000140811
0.000115115
6.41398e-05
0.000144799
0.000106608
0.000104139
0.000212068
0.000120412
0.00024272
1.94843e-05
0.000232814
0.000241271
0.000175062
5.74156e-05
0.000239561
0.000242777
0.00028006
0.000308823
0.000226634
0.000280314
0.000287427
0.000312762
0.000336183
0.000361435
0.000377361
0.000350719
0.000337445
0.000341629
0.000347027
0.000351718
0.00034756
0.000352702
0.000353059
0.000390221
0.000394844
0.000427399
0.000432254
0.000464054
0.000440126
0.000480426
0.000490791
0.000506719
0.000544935
0.000590622
0.000563998
0.000628519
0.000618942
0.000661311
8.1366e-05
0.000118758
0.00012633
0.000100087
0.000214476
0.000237562
3.79973e-05
0.000512395
0.000332694
0.000115622
0.000295026
0.000208024
0.000177146
0.000343513
0.00017656
0.000327121
0.000436176
4.28939e-05
5.97818e-05
0.000114204
0.00032044
0.000321119
0.000163236
3.00612e-05
0.000171481
2.72147e-05
6.34923e-05
2.00278e-05
0.00010003
8.02085e-05
6.93215e-05
0.000268644
0.000231659
0.000481743
0.000238944
0.000180234
0
0
0
0
0
0
3.28668e-07
0
0
3.00388e-05
0
0
0
0
0
1.58121e-06
0
0
0
0
1.22295e-09
0
0
0
0
0
0
0
9.0682e-10
9.63875e-10
0
0
2.46963e-09
2.04479e-09
0
0
0
0
2.8148e-09
0
3.64238e-09
0
0
0
0
0
0
0
0
0
0
0
0
0
0
0
0
0
1.33027e-09
0
0
0
0
0
0
0
0
0.000474182
0.000718684
0.000918286
0.000786364
0.000748458
0.00148189
0.000865674
0.00061376
0.00102675
0.000419901
0.000461924
0.000237581
0.000208679
0.000431169
0.000262765
0.000147163
0.000122183
0.000352447
1.57286e-05
0.000133305
0.000454642
0.000207619
0.000234756
0.000152764
9.72913e-05
0.000232009
0.000128155
0
0
0
0
0
0
0
0.000194367
0.000196538
0.000193543
0
0
0
0
0.000156158
0.000111119
3.97839e-05
1.58313e-05
3.60542e-05
6.13414e-05
2.98804e-05
4.71155e-05
6.20115e-06
7.01059e-05
8.29298e-05
0.000440512
0.000383474
0.000119483
0.0001986
0.000119769
8.54829e-05
0.000117557
0.000116518
0.000157481
0.00030303
0.000220054
0.000225368
0.000220713
0.000162041
0.000403663
9.91323e-05
0
0
2.58563e-10
0
0
0
0
7.60788e-10
0
0
0
0
0
0
0
0
0
0
0
0
0
0
0
0
0
0
0
0
0
0
0
0
0
0
0
0
0
0
0
0
0
0
0
0
0
0.000161291
8.77842e-05
0.000223992
0.000103275
5.67407e-05
6.19843e-05
6.05496e-05
7.23561e-05
7.20397e-05
7.63151e-05
9.13487e-05
0.00010579
9.02299e-05
3.49861e-05
7.19785e-05
0.000129106
5.5814e-05
0.000116935
6.17988e-05
0.000146998
0.000216666
0.000202143
0.000191902
0.000244269
0.000222895
0.00028898
0.00021745
0.000131966
0.000175122
0.00023929
0.000158452
9.72257e-05
0.000102793
0.00011196
9.96087e-05
0.000115062
0.000134064
0.000143356
0.000138551
0.000414207
0.000617049
0.000722756
0.000679612
0.000329845
0.00042434
0.000794755
0.0010087
0.000798552
0.000816289
0.00116989
0.000730553
0.00095706
0.000643156
0.000593485
0.000561826
0.000577627
0.000564901
0.000595591
0.000583133
0.000619405
0.000439097
0.00057867
0.000586242
0.000573464
0.00059558
0.000591498
0.000558468
0.000472079
0.000470752
0.000475373
0.000466559
0.000430575
0.00042853
0.00046503
0.000457591
0.000547998
0.000587254
0.000541033
0.000531522
0.000675813
0.000693595
0.000692918
0.000651422
0.000763626
0.00075316
0.000742464
0.000744502
0.000702768
0.000678131
0.000682097
0.000644794
0.000638229
0.00067717
0.000588823
0.000573043
0.000581327
0.000608362
0.000308142
0.000316032
0.000352895
0.000346951
0.000353664
0.000341919
0.00039965
0.00040067
0.000286229
0.000321973
0.000336151
0.000269298
0.000650514
0.00067885
0.00069129
0.000707306
0.000706702
0.000719146
0.000714174
0.000728705
0.000755995
0.0008076
0.000779402
0.00078882
0.000808313
0.000882059
0.000841395
0.000875278
0.000885935
0.000895387
0.000922666
0.00091685
0.000878266
0.000797087
0.00077237
0.000964245
0.000876901
0.000442793
0.000424169
0.000318894
0.000297149
0.000187308
9.60659e-05
0.000164442
0.000294057
0.000287965
0.000226787
0.000158207
0.000247194
0.000347716
6.78154e-05
6.40511e-05
0.000550207
0.000147587
0.000414207
8.27069e-05
6.91429e-05
7.78399e-05
0.000143341
0.000124027
0.000186027
0.000114804
9.06621e-05
0.000147364
0.000275975
0.000229814
7.35436e-05
4.81155e-05
0.000179682
5.96241e-05
0.000161698
8.72168e-05
5.40307e-05
4.24629e-05
0.000215327
0.00023131
8.08184e-05
7.52869e-05
5.5793e-05
0.000218494
0.000164533
0.000232541
0.000106922
0.000115277
0.000278644
0.000148987
0.000246816
0.000251111
0.000305325
0.000216511
0.000286139
0.000337372
0.000277264
0.000289632
0.000342384
0.000306799
0.000313908
0.000298905
0.000320539
0.000314862
0.000328523
0.000349992
0.000354011
0.000389496
0.000394282
0.000411185
0.000413654
0.000429952
0.000420934
0.000447124
0.000469868
0.000486067
0.000525777
0.000588686
0.000546905
0.000615789
4.08472e-05
6.52974e-05
5.38507e-05
3.84084e-05
0.000140064
0.000270163
5.82189e-05
0.000256312
0.000366309
0.000319679
5.22333e-05
0.00019515
0.000114882
0.000191684
0.000133741
0.000215986
0.000397141
0.000364492
0.000444337
2.3292e-05
4.45598e-05
0
1.31034e-05
4.09525e-05
3.27519e-05
1.57568e-05
4.32309e-05
2.75508e-05
3.63746e-05
0
0
0
0
0
0
2.43476e-07
0
0
0
0
0
0
2.47111e-07
0
0
0
0
0
0
0
0
0
0
0
0
0
0
0
0
0
0
0
0
0
0
0
0
0
0
0
0
0
0
0
0
0
0
0
0
0
0
0
0
0
0
0
0
0
0
0
0
0
0
0
0
0
0
0
0
0
0
0
0
0
0
0
0
0
0
0
0
0
1.48178e-11
0
0
0
0
0.00100016
0.0010348
0.00103358
0.000673672
0.000167658
0.000679076
0.000637695
0.000609991
0.000966322
0.00113819
0.000882348
0.00104212
0.000555218
0.000822784
0.000257274
0.000472666
0.000261948
0.000410613
0.000312192
0.000179888
0.000285047
0.000131443
0.000310469
8.64128e-05
0.000300181
0.000146504
0.000112168
0.000283774
0.000109318
0
0
0
0
0.000217549
0.000275847
0.000220293
0
0
0.000150389
0.000149116
0
3.44735e-05
0
0
0.000126104
6.20691e-05
3.17892e-05
6.59437e-05
4.4943e-05
2.48588e-05
0.000113816
7.76313e-06
4.98128e-05
0.000254398
0.000459072
0.000330876
0.000494449
0.000358459
0.000301947
0.000304928
0.000321161
0.000167092
0.000139227
0.000297104
0.000357031
0.000165674
0.000493207
0.000261694
0.000318581
0
0
0
0
0
0
0
0
0
1.29445e-06
0
1.88639e-05
0
0
0
0.000173385
0.000175593
6.34402e-05
0
0
9.374e-05
0
0
0
0
0
0
0
0
0
0
0
0
0
0
0
1.93932e-09
0
6.21133e-10
0
0
0
0
1.84737e-06
0
0
0
0
8.70653e-06
9.46257e-06
0.00013356
0
0
0
0
0
0
0.000242275
0.000212921
0.000116581
8.246e-05
0.000158692
3.66601e-05
0.000109042
7.98003e-05
3.96565e-05
9.35682e-05
8.96155e-05
9.64339e-05
0.000120811
0.000117476
8.34009e-05
9.24813e-05
3.45093e-05
6.31739e-05
6.64158e-05
0.000102634
5.43895e-05
0.00025023
0.000296013
0.00021227
0.000188719
0.000224202
0.000219236
0.000225367
0.000213819
0.000182202
0.000177143
0.000223958
0.000221089
7.44533e-05
0.000104105
0.000123195
9.35427e-05
0.000139585
0.000139584
0.000178354
0.000153931
0.000500769
0.000354439
0.000277367
0.000833833
0.00126063
0.00163174
0.000701849
0.00115345
0.00121294
0.000670265
0.000378672
0.000588309
0.000769138
0.000546783
0.000585576
0.000555586
0.000595202
0.000568969
0.000576474
0.00109348
0.00066941
0.000587829
0.000569259
0.000556288
0.000588262
0.000579596
0.000558737
0.000490488
0.000469704
0.000474159
0.000452406
0.000445114
0.00045319
0.000445999
0.000474791
0.000628922
0.00064333
0.000574074
0.000584584
0.000767108
0.000768624
0.000754226
0.000737516
0.000754447
0.000731435
0.000667028
0.000686732
0.000668168
0.000650795
0.00067688
0.000660342
0.000622398
0.000595518
0.000572873
0.000593795
0.00061942
0.000597552
0.00028701
0.000329622
0.000383933
0.000374548
0.000333695
0.000378125
0.000397352
0.000415824
0.000339586
0.000281011
0.000325471
0.000269612
0.00028078
0.00023105
0.000325027
0.000600898
0.000659077
0.000674493
0.000662167
0.000690579
0.000697576
0.000649107
0.000678761
0.00077976
0.000709908
0.000827259
0.000841829
0.000874336
0.000834027
0.000860128
0.000896927
0.000963814
0.000901143
0.000995902
0.000930036
0.00097796
0.00101031
0.000768268
0.000827031
0.00101026
0.00095124
0.000471373
0.000425931
0.000236384
0.000358774
0.000270461
0.00018822
0.000326057
0.000215497
0.00026303
0.0002166
0.000223534
9.01813e-05
0.000224563
0.000215797
0.000467193
0.000361497
0.000363591
0.000113942
0.000169447
0.000103464
0.000128118
7.65941e-05
0.000218215
0.000167892
0.000212596
0.000179538
0.000178257
0.000176101
7.64503e-05
0.000191105
0.000192293
1.70555e-05
5.44755e-05
6.93814e-05
1.41009e-05
5.79695e-05
8.08381e-05
8.85127e-05
7.474e-05
8.95714e-05
0.000115411
6.79551e-05
0.000107823
0.000153482
0.000214749
0.000134052
0.000114003
0.000190538
0.000179991
0.000263399
0.000294277
0.000248011
0.000276368
0.000231442
0.00034009
0.000297613
0.000302382
0.000302946
0.000302165
0.00027864
0.00029215
0.000292863
0.000306662
0.000316638
0.000344034
0.000345466
0.00036841
0.000364505
0.000369892
0.00037204
0.000386672
0.000388281
0.000424816
0.000437146
0.000497102
0.000462546
0.000558944
0.000535927
2.64912e-05
8.54058e-06
7.97714e-06
2.13912e-05
1.29731e-05
5.301e-05
9.1533e-06
0.000126794
1.18658e-05
0.000333457
0.000113003
6.16383e-05
0.00014141
8.21035e-05
0.000236623
8.14903e-05
0.000336918
0.000575179
0.00025879
0.000585742
0.000204096
0
0
0
0
0
2.40185e-05
0
0
0
0
0
0
0
0
1.62625e-07
0
0
0
3.66179e-08
0
0
0
0
0
0
0
0
0
0
0
0
0
0
0
0
0
0
2.68714e-08
0
0
0
0
0
6.36731e-10
8.84186e-10
1.3963e-09
0
0
0
0
0
0
0
0
0
0
0
0
0
0
0
0
0
0
0
0
0
0
0
0
0
0
0
0
0
0
0
0
0
0
0
0
0
0
0
0
0
3.05225e-09
0
6.38465e-10
0
2.17737e-09
0
0
0
0.000819637
0.000974792
0.00104276
0.0010122
0.00102903
0.00102255