/*--------------------------------*- C++ -*----------------------------------*\
  =========                 |
  \\      /  F ield         | OpenFOAM: The Open Source CFD Toolbox
   \\    /   O peration     | Website:  https://openfoam.org
    \\  /    A nd           | Version:  8
     \\/     M anipulation  |
\*---------------------------------------------------------------------------*/
FoamFile
{
    version     2.0;
    format      ascii;
    class       volScalarField;
    location    "4080";
    object      alpha;
}
// * * * * * * * * * * * * * * * * * * * * * * * * * * * * * * * * * * * * * //

dimensions      [0 0 -1 0 0 0 0];

internalField   nonuniform List<scalar> 
526318
(
0.000586097
0.000869285
0.000398805
0.000888329
0.000579291
0.000463286
0.00119867
0.00181235
0.000560331
0.00194176
0.00152772
0.00140434
0.00122985
0.000858979
0.00141453
0.00081995
0.00111312
0.000497845
0.00049551
0.000552249
0.000663239
0.000440327
0.00324467
0.000569551
0.00262609
0.00192397
0.000526789
0.00044827
0.000714042
0.000241806
0.000275251
0.000510361
0.00057878
0.000204429
0.000999628
0.000548216
0.000816171
0.000751295
0.000956747
0.000259022
0.000510978
0.000785009
0.00463641
0.00746789
0.00696267
0.00620515
0.00362702
0.00358292
0.00172814
0.00176726
0.00131389
0.000925862
0.000773756
0.000894098
0.0657192
0.0137806
0.00969276
0.0824257
0.000488682
0.000667435
0.000545455
0.000508653
0.000585753
0.000658704
0.000660261
0.0004781
0.000399306
0.000418021
0.000253359
0.000389864
0.000311527
8.57114e-05
0.000164579
8.45099e-05
0.000434811
0.000211524
0.000310169
0.00037513
0.000207275
6.53894e-05
0.000523802
0.000303719
0.000522646
0.000450338
0.000474154
0.000415613
0.000223416
0.000631105
0.00019491
0.000243313
0.000361776
0.000647392
0.000935965
0.00216805
0.0017024
0.00109726
0.000313748
0.000664707
0.000285583
0.000189792
0
0
0
0
0.804669
0
0.010374
0.0238305
0.00466057
0.00289675
0.0043851
0.00339131
0.00129234
0.00265379
0.00130197
0.00118261
0.000764435
0.000949542
0.000666719
0.00058702
0.000339771
0.000440353
0.000914784
0.000750157
0.000157795
0.000395563
0.00106858
0.00176602
0.000540037
0.00068997
0.00213194
0.00151532
0.000847494
0.00165097
0.000184994
0.00191604
0.00124221
0.000953563
0.00129327
0.00276336
0.00233871
0.0021345
0.0011057
0.000316981
0.00225364
0.00201861
0.00227705
0.00201724
0.00121248
0.00243925
0.000320283
0.00289216
0.00191962
0.000464706
0.000505812
0.00456526
0.00154915
0.000198385
0.00185717
0.0039832
0.00113489
0.00324567
0.00222413
0.000440643
0.000315303
0.000410746
0.000250898
0.000422406
0.00020764
0.000569909
0.000172082
0.00059541
0.000427903
0.000550959
0.000659097
0.001073
0.00118989
0.000621525
0.00136774
0.000297992
0.000351953
0.00105479
0.000681447
0.000456588
0.00110779
0.00199579
0.000801416
0.00093473
0.00198472
0.00133792
0.000682794
0.00175518
0.000603267
0.000167537
0.00151578
0.000123789
0.000481627
0.000302456
0.00149219
0.000602339
0.00101139
0.000351255
0.00342551
0.000702902
0.00184967
0.00198525
0.00152615
0.00354154
0.00157177
0.000960757
0.00049949
0.000722167
0.000937513
0.000642361
0.000499973
0.000500264
0.000685201
0.00110883
0.000507389
0.0120967
0.00295925
0.00821869
0.00294985
0.00152574
0.000861124
0.000171136
0.000977076
0.000231782
0.00154384
5.12116
0
0.0443212
0.0220215
0
0
0
0
0
0
0.000667298
0.000436844
0.000839645
0.000538089
0.00037253
0.000196973
0.000262426
0.000266369
0.000351944
0.00028435
0.000302903
0.000427278
0.000274847
0.000533429
0.000218753
0.000123116
0.0002992
9.26616e-05
0.000402917
0.000260851
8.54353e-05
0.000952151
0
0
0
0
0
0
0
0.0054629
0.00329487
0.0041378
0.00356818
0.00190719
0.00244832
0.00240214
0.00172845
0.00153138
0.00127359
0.00143825
0.00105554
0.000903667
0.000671952
0.000541794
0.000194275
0.001035
0.00130577
0.000451772
0.00189673
0.00173539
0.00199661
0.000967699
0.00186566
0.000354693
0.0033257
0.0026161
0.0032243
0.00330537
0.0016685
0.00228904
0.00137215
0.00325377
0.00478379
0.00657332
0.00152307
0.00180228
0.00527198
0.00108305
0.00151892
0.00434303
0.00402378
0.00145713
0.00382416
0.0121897
0.0119745
0.00865386
0.00711987
0.00294139
0.000825911
0.00077269
0.00328172
0.000230014
0.000596328
0.000151285
0.000458391
0.000323471
0.000428316
0.0001781
0.000394635
0.000466422
0.000624981
0.000764586
0.000706277
0.00192987
0.0013166
0.000503614
0.000539149
0.000634896
0.000554882
0.000422073
0.000565885
0.000904033
0.000423021
0.000867768
0.000981104
0.00100148
0.000771889
0.000252237
0.00237533
0.00210695
0.000550967
0.000257673
0.000350002
0.00107195
0.000869527
0.000730054
0.000664831
0.000661452
0.000625345
0.00222427
0.000907338
0.00140888
0.00169011
0.00104689
0.000205927
0.0022205
0.00133709
0.00167866
0.000967587
0.0019846
0.00199391
0.00127143
0.00119706
0.000948752
0.0019322
0.00085824
0.000972947
0.000652821
0.00104098
0.00052339
0.000296846
0.000364465
0.000990732
0.000594613
0.000219595
0.000539736
0.000682048
0.00154974
0.00051875
0.0136122
0.0165234
0.0132051
0.01001
0.00624156
0.00276705
0.00108797
0.00206053
0.00200594
0.00140544
0.00214271
0
0
0.115349
0
0.0259012
0
0
0
0
0
0
0
0
0
0
0
0.000481323
0.00041156
0.000616766
0.000531086
0.000235871
5.90883e-05
0.000186522
0.000284883
0.000249007
0.000390181
0.000329796
0.000623074
0.000366595
0.000121268
0.000267386
0.000166379
0.000178872
0.000315811
0.00053002
0.000297605
0.000542973
0.000494124
0
0.00362679
0.00870747
0
0
0
0
0
0.000494946
0.0046563
0
0
0
0
0.00715107
0
0
0
0
0
0
0
0.811995
0
0.0135407
0.277129
0.00277894
0.00207739
0.00161291
0.00150994
0.00132372
0.00122896
0.00118697
0.00105851
0.00108421
0.00091485
0.00070303
0.000614111
0.000305155
0.000988398
0.00121802
0.000227598
0.00123743
0.000894855
0.000555955
0.00174728
0.00188937
0.00135818
0.00108618
0.00289837
0.00692714
0.00615684
0.00200321
0.000274623
0.00729241
0.0054661
0.00405805
0.00323607
0.0056222
0.0108903
0.00128788
0.0110683
0.00814638
0.00929273
0.0091475
0.0174643
0.0142067
0.0139545
0.0154913
0.000757903
0.00105662
0.00149523
0.0021459
0.00136451
0.00092855
0.00194644
0.00149866
0.00143752
0.00139319
0.00189246
0.00120127
0.00148627
0.00480453
0.000584796
0.0010617
0.00161281
0.000516581
0.00118808
0.000842192
0.00110742
0.000325207
0.000162655
0.000991595
0.000434676
0.000852926
0.0012228
0.00142412
0.00158276
0.00322301
0.00199567
0.00152511
0.0033521
0.0106381
0.00948322
0.00240927
0.00500689
0.00104328
0.000822721
0.00113249
0.00249228
0.0014076
0.00237609
0.000989783
0.000798428
0.000762055
0.000979398
0.0011156
0.00145422
0.00158697
0.000412459
0.00181516
0.000489992
0.00164266
0.00271968
0.000808211
0.00137183
0.00129376
0.00112736
0.000502995
0.00151978
0.0011578
0.00196786
0.00071576
0.000290649
0.000740315
0.000821812
0.000845893
0.000650236
0.00101118
0.000779846
0.001538
0.00131738
0.000483273
0.000992196
0.000512235
0.000168924
0.00112791
0.000665497
0.000624276
0.000633779
0.00132082
0.00086624
0.0031259
0.00283286
0.000714516
0.0216004
0.0438059
0.0104341
0.0075722
0.00404168
0.00212744
0.00204986
0.00342456
0.00112038
0.00743101
0
0
0
0
0.264798
0.0372909
0
0
0
0
0
0
0
0
0
0
0
0
0
0
0
0
0
0
0
0
0.000830126
0
0
0.00126126
0.000429932
0.000255525
0
0
0
0
0
0
0
0
0
0
0
0
0
0
0.000283915
0.000292726
0.000296989
0.000254647
0.000206233
0.000136392
0.000401603
0.000130181
0.000513001
0.000172182
0.000184683
0.000335362
0.00020486
0.000374855
0.000347698
0.000341944
0.000480949
0.000257244
0.000471879
0.000340322
0.000910594
0.000649223
0
0
0
0
0
0
0
0
0
0
0
0
0
0
0
0
0
0
0
0
0
0
0
0
0
0
0.0298829
0
0
0
0.040285
0
0.0887873
0.0447626
0.00216742
0.00419922
0.00148483
0.00146467
0.00134406
0.000507567
0.000309063
0.000718014
0.00040999
0.000601043
0.000415132
0.000355729
8.11006e-05
0.000193697
0
0
0
0
0
0
0
0
0
0
0
0
0
0
0
0
0
0.000508692
0.00137976
0.000443345
0.00177417
0.00149829
0.00174557
0.00196357
0.00281727
0.00466382
0.00315495
0.00962949
0.0145292
0.00871761
0.0135954
0.00584303
0.0068055
0.00525248
0.00525595
0.00810965
0.00332771
0.00836045
0.0725088
0.053233
0.00721817
0.00854647
0.00992939
0.0379199
0.0232391
0.0370355
0.291375
0
0
0.000907389
0.000806508
0.00120532
0.000940558
0.00154317
0.00132907
0.000663017
0.000680229
0.000661294
0.000888166
0.00183019
0.000821659
0.00178483
0.000930583
0.00124578
0.00368262
0.0017837
0.00233193
0.00703874
0.0050493
0.00127867
0.0193835
0.00045891
0.00115419
0.000810012
0.00083397
0.000508028
0.00155581
0.000916574
0.000672752
0.00257078
0.00232176
0.00474287
0.00487117
0.0038456
0.00582719
0.0177246
0.00704399
0.0564593
0.0216702
0.0133888
0.00530371
0.00176659
0.00919756
0.00201594
0.00191837
0.00198512
0.0010021
0.000636405
0.00130347
0.0012259
0.00141381
0.00150379
0.00253431
0.00147441
0.00209514
0.00127188
0.00082616
0.00119983
0.00146957
0.000571733
0.000725226
0.00066529
0.00100493
0.00024413
0.000883356
0.000631899
0.000293151
0.000703684
0.00106891
0.00109646
0.000723565
0.00132467
0.00112078
0.00153749
0.00104823
0.0009181
0.000910269
0.000582107
0.00108702
0.000869297
0.000679474
0.000808077
0.000727389
0.000798477
0.000821482
0.000668442
0.000963942
0.000783959
0.000607021
0.000592895
0.000556157
0.00056329
0.000466189
0.000478482
0.000495184
0.000460629
0.000371548
0.000343353
0.000364014
0.000327176
0.000237642
0.000214827
0.000222315
0.000238418
0.000156315
0.00014602
0.000135895
0.0001381
0.000170658
0.000144313
0.000148214
0.000111951
0.000219007
0.000157638
0.000108833
0.000154038
0.000197976
0.000207377
0.000140006
0.000151935
0.00026076
0.0016359
0.0008598
0.00036966
0.00028577
0.000218736
0.000595534
0.0051794
0.00130652
0.414117
0.046164
0.00572299
0.00640839
0
0.10571
0.0742778
0.00483803
0.0115095
0.00830059
0.0614187
0.0463778
0.016346
0.00856003
0
0.0153096
0
0
0
0
0
0
0
0
0
0.0124617
0
0
0
0
0
0
0
0
0.0168537
0
0
0
0
0
0
0
0
0
0
0
0
0
0
0
0.0216244
0
0
0.00896743
0
0
0.0176254
0
0.167685
0
0.192062
0.228713
0.0107332
0
0.0217802
0.235704
0
0
0.0132033
0
0
0
0
0
0
0
0
0
0
0
0
0
0
0.0121673
0
0
0.000198517
0.000155521
0.000142581
0.000186522
0.000284597
0.000182767
7.25878e-05
0.000272743
0.00052233
0.000430727
0.000337506
0.000311584
0.000239567
0.000519075
0.000367037
0.000671679
0.00113094
0.000484047
0.000439109
0.00062251
9.04819e-05
0.000576979
0
0
0.000452926
0.00876322
0
0
0
0
0
0
0
0
0
0
0
0
0
0
0
0
0
0
0.0173394
0.0125835
0
0
0
0.0427393
0.00717289
0.0384983
0.00313837
0.00112758
0.00148577
0.00119895
0.000998537
0.000183929
0.000301122
0.000124411
0.000287401
0.000244078
0.000109543
0.000108891
0.000183041
0.000104918
0.00250877
0
0
0
0
0.000150151
0
0
0.000356627
0
0
0
0
0
0
0
0
0
0
0
0
0
0
0
0.015069
0
0.00195141
3.03692e-05
0.00262087
0.00200065
0.0033357
0.00460177
0.00410204
0.00671341
0.0112458
0.0144472
0.0148473
0.0344159
0.0548902
0.0164022
0.218462
0.0403851
0.0075549
0.00210101
0.00697364
0.00168059
0
0
0.116689
0
0
0
0
0
0
0
0.00385296
0
0.000786405
0.000650211
0.00134002
0.00121154
0.00146542
0.00126697
0.000738195
0.00063734
0.000656498
0.00055385
0.000706912
0.000793689
0.00045292
0.000363385
0.000266627
0.000282452
0.000139786
0.000105084
0.000185715
0.000130467
0.000155691
0.000152989
0.000139652
0.000199436
0.000100746
0.000167899
0.000156024
0.000113992
0.000154898
0.000113778
0.000787431
0.00220414
0.00176028
0.000918264
0.00224906
0.00351706
0.00218566
0.00206351
0.0124981
0.00521668
0.990931
0.00258517
0.0335395
0.000803603
0.00280875
0.000596439
0.00145706
0.00164386
0.00166712
0.00583189
0.0151047
0.037004
0.004994
0.0128418
0.211946
0
0
1.24035
0.0206123
0.0337619
0.458409
0.0176853
0.00555888
0.00926512
0.00492995
0.00806138
0.00356625
0.00138151
0.000604508
0.00161284
0.00156171
0.00117681
0.00153998
0.00207339
0.000768418
0.00120849
0.000739719
0.00123815
0.000705612
0.000938538
0.000239593
0.000114157
0.00058362
0.000536513
0.00134483
0.00130999
0.000862264
0.00079917
0.00077948
0.00112693
0.00153581
0.000832325
0.000465676
0.000654553
0.00102572
0.000649962
0.000891633
0.000585238
0.000727497
0.000693925
0.000773888
0.000539202
0.000745917
0.000622624
0.000568943
0.000594066
0.000525752
0.000462281
0.000423505
0.00039363
0.000309929
0.00025622
0.000192012
0.00014351
0.000118766
8.33724e-05
0.000113784
2.33409e-05
4.48737e-05
6.11078e-05
8.7541e-05
4.85492e-05
7.50639e-05
2.63845e-05
4.93594e-05
6.23863e-05
3.09325e-05
9.66682e-05
6.23252e-05
7.28803e-05
0.00013435
0.000105765
0.000133021
0.00584695
0.0140033
0.00381596
0.00289143
0.00826058
0.00338149
0.00192842
0.00366237
0.00364219
0.00514953
0.108902
0
0
0.00870754
0.0165071
0
0
0.0541019
0
0.0664555
0.0901374
0.017489
0.0500283
0.0203724
0.0876455
0
0
0
0
0.0107348
0.00711741
0
0
0
0.0170926
0
0
0
0
0
0
0
0.0209668
0
0
0
0
0
0
0
0
0.000446177
0
0
0
0.00618741
0
0
0
0
0
0
0
0
0
0
0
0
0
0
0
0
0.0132582
0
0.00724343
0
0
0
0
0
0
0
0
0
0
0.000258738
0.000184849
0.000108257
0.000215272
0.000194245
0.000162686
0.000364306
0.000288078
0.000346577
0.000452351
0.000760022
0.000324143
0.000410271
0.0007794
0.000879412
0.000966965
0.00206928
0.00085755
0.000205218
0.000970103
8.01347e-05
0.000409557
0.000426544
0
0.0019645
0
0
0
0
0
0
0
0
0
0
0
0
0
0
0
0
0
0
0
0
0
0
0
0.0855777
0.0270933
0.00285071
0.0113889
0.00235754
0.00109473
0.00179713
0.000904549
0.000369604
0.000766815
0.000294543
0.000371524
0.000239419
0.00021377
9.87153e-05
0.000136502
0.00028326
0.000125489
0
0
0
0
0
0
0
0
0
0
0
0
0.00724673
0
0
0
0
0
0
0.000879237
0
0.00149563
0
0
0
0
0
0
0
0
0
0.00234532
0.0029273
0.000640927
0.00278498
0.00390667
0.00534631
0.0244541
0.0151962
0.00148182
0.000858106
0.00137338
0
0.157021
0
0
0.26972
0.204958
1.32257
0.0842307
0.013254
0.0627356
0.00113516
0.00836778
0
0
0
0
0
0
0
0
0
0
0
0
8.19026e-05
0.000171424
8.5984e-05
0.000137926
0.000195697
0.000134297
0.000107978
0.000126476
7.43702e-05
0.000189801
0.000232791
0.00017339
6.83233e-05
0.000102952
0.000121928
0.000149817
0.000107316
0.000126801
0.000108314
0.000145755
0.000117057
0.000121439
0.000180435
5.65792e-05
0.000153636
0.000124423
0.000203477
0.000149405
7.54676e-05
0.000110614
4.21218e-05
4.03733e-05
9.11349e-05
0.000114101
0.000127065
0.000737053
0.000609017
0.00123702
0.00131025
0.00134393
0.00104864
0.000872662
0.000792194
0.000640821
0.000556263
0.000747488
0.000519
0.000270532
0.000370802
0.000110165
0.000163944
9.73412e-05
0.000166818
0.000147955
0.000132287
0.000111667
0.000215125
0.000147924
0.000233828
5.13853e-05
8.80015e-05
0.000211534
0.000211933
0.0014537
0.00185212
0.00214431
0.00279046
0.00250343
0.00122559
0.00135767
0.00309713
0.00347503
0.00262109
0.0159696
8.77358e-05
0.000139672
7.88735e-05
0.00012442
0.000153779
0.000160988
0.000109956
0.000140725
0.000112991
0.000118921
0.000134698
0.000124302
0.000138881
0.000122664
0.000137583
0.0001396
9.5671e-05
0.000199534
0.0271869
0
0.140891
0.000336029
0.00598135
0.00137952
0.0014587
0.00686469
0.00591027
0.0717248
0.0751656
0.0532291
0
0
0
0
0
0
0.00739398
0.0765924
0
0.01372
0.0156497
0.0166834
0.00249044
0.0108487
0.000657541
0.00353285
0.000781299
0.000732607
0.0016452
0.00131609
0.00103364
0.00170837
0.000732656
0.00102483
0.00139202
0.000326766
0.000568178
0.000652794
0.000650131
0.00157254
0.000640243
0.00108203
0.000211034
0.000460477
0.000695905
0.000672687
0.000669038
0.000113913
0.000742908
0.000117333
0.000421516
0.000549257
0.000129255
0.000582162
0.000799563
0.000652347
0.000688848
0.000543167
0.00063517
0.000720629
0.000699784
0.00047454
0.000569952
0.000483839
0.000450002
0.000356957
0.000320746
0.0002012
0.00013882
0.000201451
0.000175535
6.32678e-05
5.50967e-05
9.23938e-05
3.7409e-05
5.11018e-05
1.70203e-05
2.22059e-05
6.37279e-05
7.94679e-05
7.16351e-05
8.45223e-05
0.000116331
0.00230215
0.023541
0.0082746
0.0332165
0.043066
0.0457832
0.421775
0.00884152
0.0102696
0
2.32179
0
0
0
0.152595
0
0
0
0
0.0969887
0
0
0
0
0
0
0
0
0.00683176
0.00691329
0.0110682
0
0.0012934
0
0
0
0
0
0
0
0
0
0.0265957
0
0
0
0
0
0
0
0
0.208235
0
0
0
0
0
0
0
0
0
0
0
0
0.0222419
0
0
0.0414329
0
0
0
0
0
0
0
0
0
0
0
0
0
0
0
0
0
0
0
0
0
0.0913774
0
0
0
0
0.0422212
0.000151588
0.000198541
0.000268517
0.000139592
0.000196996
7.0812e-05
0.00022182
0.000319877
0.000114345
0.000205945
0.000484756
0.000372885
0.000449932
0.000289359
0.000129883
0.000657368
0.000325998
0.000481495
0.00012472
0.00114014
0.000897203
0.0014442
0.00058826
0.00069653
0.000341234
0
0
0
0
0
0
0
0
0
0
0
0
0
0.0581714
0.0123416
0.0104103
0
0
0
0
0
0
0
0
0
0
0
0.00383589
0.00166002
0.00104591
0.00172985
0.000350142
0.000110702
3.11969e-05
0.00125102
0.000799831
0.000578701
0.000413046
0.000354292
0.000248262
0.000164522
0.000239318
1.59294e-05
0
0.00288432
0
0
0
0
0
0
0
0
0
0
0
0
0
0
0
0.00225467
0
0
0
0
0
0
0.0265207
0
0
0
0
0
0.00597939
0
0
0
0
0
0
0.00413311
0.0017619
0.000368724
0.00455235
0.00315963
0.00205194
0.00442161
0.194018
0.0185339
0
0
0.00820762
0.00878452
0
0
0
0.0111433
0
0
0
0
0.050948
1.36198
0.0123167
0.0210149
0
0
0
0
0
0
0
0
0
0
0
0
2.84126e-05
8.862e-05
0.000130364
3.09147e-05
0.000179739
0.000264416
0.000296195
0.000184537
0.000143564
0.000227902
0.000126699
0.000118763
0.000131225
0.000185232
0.000105034
0.000111808
0.000118418
3.01587e-05
0.000118402
7.51239e-05
6.28801e-05
0.000192178
0.000788985
0.000916561
0.00133521
0.000910494
0.000961564
0.00142913
0.000949192
0.000820087
0.000566352
0.000341191
0.000467598
0.000699069
0.000483574
0.000196243
0.000486379
0.000519717
0.000188621
0.000176616
9.78868e-05
8.96506e-05
0.000161566
9.81572e-05
0.000204448
0.000245027
0.000150324
0.000320853
0.000241032
0.000193014
0.00017345
0.000393077
0.00036331
0.0016502
0.00335235
0.00193537
0.00138155
0.00386451
0.00247039
0.00127367
0.00154369
0.0027868
0.00576546
0.00608248
0.00337584
0.000118133
0.000102133
0.000126166
6.37313e-05
0.000139861
0.000172174
0.000118904
0.000172088
0.000133755
0.000101979
0.000171848
0.000189791
0.000129325
9.85767e-05
0.000154886
0.000150753
0.000143725
0.000154833
0.000128452
9.61055e-05
0.000167404
0.000129082
0.000106834
0.000135162
0.000197596
0.101659
0.163777
0.0967041
0
0.0273334
0.0258916
0
0
0
0
0
0
0
0.00947093
0
0.00433847
0
0
0
0
0.00124879
0.10918
0.0211321
0.24225
0.00132122
0.0028918
0.00479961
0.00644261
0.00132319
0.00167502
0.00116382
0.000946288
0.00133929
0.000455581
0.00105268
0.000387325
0.000668917
0.000802351
0.000680877
0.0013912
0.000601142
0.000696957
0.000575925
0.000857579
0.000702719
0.000458123
0.000697085
0.000696934
0.000340001
0.00061781
0.000309733
0.000491798
9.53126e-05
0.000767739
0.000527372
0.000607028
0.000552026
0.000638085
0.000254102
0.000787295
0.000861701
0.000524178
0.000522013
0.000396217
0.000307856
0.000191472
0.000310363
0.000197541
0.000143081
9.57927e-05
0.000157225
0.000132849
9.02247e-05
7.38784e-05
5.13056e-05
5.65848e-06
0.000103981
9.79673e-05
3.72464e-05
0.000108667
0.000121078
0.000144708
0
0
0
0
0.412782
0.251483
2.68439
0
0.223444
0
0
0
0
0
0
0
0
0
0
0
0
0
0
0
0
0
0
0
0.0127933
0.00362327
0
0
0
0
0
0
0
0
0
0
0
0
0.146776
0
0
0
0
0
0
0
0
0.104747
0
0
0
0.00663433
0.00528539
0
0
0
0
0
0
0
0.0568991
0.0850356
0
0
0.116672
0.128559
0
0
0
0
0.0111468
0
0.0176059
0
0
0
0
0
0.000897418
0.00144971
0
0
0
0
0
0
0
0
0
0
0.00633991
0
0
0
0
0
0
0
0
7.83039e-05
0.00017758
0.000213233
0.000163722
0.000229012
0.000133518
0.000138822
0.000120297
0.00015072
0.000105132
0.000148482
0.000392248
0.000622436
0.000338801
0.000448019
0.000184519
0.000471651
0.000550532
0.00022446
0.000619282
0.000684991
0.000250065
0.00155717
0.000487723
0.000800406
0.00130578
0.001634
0
0
0
0
0
0
0
0.0355528
0.00230476
0.0160619
0
0
0
0
0
0
0
0
0
0.00046626
0
0
0
0
0
0.000143361
3.0458e-05
0.000670678
0.00254382
0.000548874
0.0014881
0.000750751
6.98379e-05
0.000485628
0.000437273
0.000608482
0.000450146
0.000292387
0.000431259
0.000441026
0.000137498
0
0
0.00271381
0.0127149
0
0
0.0188136
0.0105103
0
0
0
0.00843455
0
0
0
0.00395573
0.00310376
0.00260672
0
0
0
0.00527396
0
0
0
0.00499254
0
0
0
0
0
0
0
0
0
0
0
0
0
0
0
0
0
0
0
0.00198362
0.00122422
0.00266023
0.00749231
0.00685164
0.0191809
0.0094344
0
0
0
0
0.00445037
0.00143289
0.986814
0
0
0
0
0
0
0
0
0
0.00402582
0.227774
0.00986149
0.0371165
0
0
0
0.00914239
0
0
0
0
0
0
0
0.00677167
0.000101713
0.000184416
0.000145756
0.000273
0.000102966
3.57765e-05
0.000230771
0.000328122
0.000232288
0.000263934
0.000407467
0.000153369
0.000275979
0.000284846
0.000121677
0.000130852
0.000224818
0.000180819
0.00014071
0.000169533
0.000191347
5.92107e-05
6.16239e-05
3.17672e-05
1.21979e-05
8.00661e-05
0.000192738
8.55102e-05
0.000738119
0.000955422
0.000853646
0.000709621
0.000980281
0.000797818
0.00080841
0.000798408
0.000445748
0.00034431
0.0004975
0.000556984
0.000253866
0.00014491
0.000176435
0.000280605
0.000122959
0.000110059
6.55437e-05
4.51956e-05
4.41514e-05
0.000206193
0.000273308
0.00039552
0.000349178
0.000365143
0.000156211
0.00014621
0.00027015
0.000141342
0.00231933
0.00424487
0.00118458
0.00146029
0.0016865
0.00140454
0.00117739
0.00122594
0.00346718
0.00359544
0.000782633
0.00135947
0.000131099
9.87827e-05
8.05797e-05
0.000171082
0.00011718
0.000152586
0.000148624
0.000139571
0.000128892
0.000155535
0.000166485
0.000194742
0.000154785
0.000195095
0.000150574
0.000147461
0.000133812
0.000175684
0.000142488
0.000145281
0.00013394
0.00014347
0.000161402
0.000114264
0.000133269
0
0
0
0
0
0
0
0
0
0
0
0
0
0
0
0
0.00594365
0
0
0
0
0
0.0112057
0.0474798
0.00206947
0.00161689
0.00226027
0.0106616
0.0014491
0.00113999
0.00134396
0.000832947
0.000841428
0.00192228
0.000593496
0.000278884
0.00100334
0.000591151
0.00143873
0.000569487
0.000985047
0.000770708
0.0005103
0.000542882
0.000446944
0.000550946
0.000431647
0.000620653
0.000459403
0.000642141
0.000417074
0.000500256
0.000569709
0.000413316
0.000590883
0.00051934
0.000628001
0.000337695
0.000654253
0.000458623
0.000476318
0.000313602
0.000300756
0.000266733
0.000205032
0.000200013
0.000195271
0.000174697
0.000118916
0.00016295
0.000111942
8.03677e-05
3.37222e-05
6.97761e-05
5.46359e-05
8.85258e-05
0.000147726
4.9161e-05
0.000124492
0
0
0.162973
0.000427915
0
0
0
0
0
0
0
0.00238473
0
0.0113922
0.0129154
0.00628005
0.0061085
0
0.0021933
0.0639075
0
0
0
0.00204331
0
0.00257217
0.00501108
0
0
0
0
0
0
0
0.0248753
0.00670734
0
0
0
0
0
0
0.120756
0
0
0
0
0
0
0
0
0
0
0
0
0
0
0
0
0
0
0
0
0
0
0
0
0
0
0
0
0
0
0
0
0
0
0
0
0
0
0
0.0198396
0
0
0
0
0
0
0
0
0
0
0
0
0
0
0
0
0
0
0
0
0
0
0
0
0
0
0
0
0
0.00131546
0
0
0
0
0.000129052
0.000137386
0.000120635
0.000182021
0.000131456
0.000152402
0.000203947
0.000108288
0.000195028
0.000156849
0.000188022
0.000118084
0.000134267
0.000260536
4.69953e-05
0.000223388
0.000538962
0.000630541
0.000251283
0.000638738
0.000463579
0.000225591
0.00109166
0.000497846
0.000912928
0.000164975
0.00236058
0.00157129
0.00252086
0
0
0
0.00742833
0.0418943
0.000706973
0.00599542
0
0
0.315019
0
0
0
0
0
0
0
0
0.0041242
0
0.00448023
0
0
0
0.000753929
0.000373314
0.000475311
0.000100653
0.000494245
0.00227839
0.00108758
0.00130602
0.000998306
0.00060213
9.60533e-05
0.000449044
0.000420348
0.000671897
0.000287351
0.000432632
0
0.00383896
0
0
0
0
0
0.0104495
0
0
0.0105251
0
0
0
0
0
0
0
0
0.000204175
0
0
0
0
0
0
0
0
0
0
0
0
0
0
0
0
0
0
0.00319715
0.0236432
0
0
0
0
0
0
0
0
0
0
0
0
0
0
0
0
0
0.00168063
0.00401258
0.00579255
0.0525055
0.0722887
0
0
0.040931
0
0
0.041789
0
0
0
0
0
0
0
0
0
0
0.780732
0.0283628
0
0
0
0
0
0
0
0
0
0
0.0142697
0.0158699
0
0
0
0
0
0
0.000158964
0.000220972
7.82613e-05
0.000583803
5.3171e-05
0.000737917
0.000186446
0.000706687
0.000427514
0.000348318
0.000267696
0.000156169
6.2062e-05
0.000124351
0.00012362
0.000170382
0.000175449
0.0001655
0.000169894
0.000296834
0.000243427
9.10578e-05
7.29372e-05
0.000148395
7.74745e-05
0.000123373
9.14653e-05
0.000734984
0.000795565
0.000653769
0.00083989
0.000936598
0.000907713
0.000904538
0.000859247
0.000322519
0.000359509
0.000586184
0.000507833
0.000101387
0.000108034
0.000166185
0.00022817
8.42535e-05
0.000154345
8.75139e-05
0.000116784
7.00882e-05
0.000172011
0.000240568
0.000339383
0.000304693
0.000245285
0.000139468
5.08782e-05
0.000241618
7.60457e-05
0.00399564
0.000579014
0.000978971
0.00104126
0.00114999
0.00105619
0.000775309
0.00120073
0.00209525
0.00282371
0.00407708
0.00759305
0
0.119975
0.0192655
0.000128563
9.30177e-05
0.000101506
0.000124397
0.000122555
0.000112359
0.000102009
0.000106271
0.000134747
0.000122034
0.000149527
0.000169653
0.000129567
0.000170857
0.000124704
0.000176187
0.000140576
0.000130379
0.000125465
0.000127075
0.000106648
0.000130136
0.000132003
0.000126171
9.30096e-05
0.000138018
0
0
0
0
0
0.00667666
0.0133272
0
0
0
0
0.0054578
0.00627232
0
0
0
0
0
0
0
0
0.109615
0.00864612
0.0212382
0.013895
0.0018515
0.00194547
0.00839958
6.00025e-05
0.00357288
0.000853749
0.00101559
0.00139844
0.000163611
0.000778964
0.000551996
0.000195483
0.00083687
0.00027886
0.000603518
0.00071532
0.000335107
0.000327405
0.000783192
0.000185451
0.000759062
0.000524783
0.000268697
0.00074336
3.4195e-05
0.000339402
0.000433505
0.000225859
0.000447979
0.00029831
0.000471005
0.000513759
0.000465114
0.000480056
0.000368003
0.000295095
0.000307789
0.000276737
0.000258766
0.000250056
0.000212505
0.000167813
0.000201616
0.000139755
8.39724e-05
6.91893e-05
7.06372e-05
1.00391e-05
9.27291e-05
0.000118978
2.30088e-05
0.000175055
3.7841e-05
0
0
0.0162032
0
0
0
0
0.0356264
0
0.0112073
0
0
0
0.0158351
0.0116408
0.00282095
0.0104881
0.00636471
0.0153504
0
0
0
0
0
0
0
0
0
0
0
0
0
0
0
0
0.0186303
0
0
0
0.22731
0
0
0
0
0
0
0
0
0
0
0
0
0
0
0
0
0
0
0.227956
0
0
0
0
0
0.00327841
0.000853266
0.00456498
0
0
0
0.0595794
0
0
0
0
0
0
0
0
0
0
0
0
0
0
0
0
0
0
0
0
0
0
0
0
0
0
0
0
0
0
0
0
0
0
0
0
0
0.00360997
0
0.00109515
0
0
0.00386622
0.0172545
0
7.79729e-05
0.000100232
0.000127323
0.000128688
0.000127777
0.000103365
7.45086e-05
0.00013394
0.000142219
0.00018635
9.77183e-05
0.000116863
0.000133372
9.01343e-05
0.000294103
0.000157758
0.000301633
0.000353841
0.000121519
0.000307367
5.10461e-05
0.000476186
0.000439551
0.000717155
0.000207249
0.000787976
0.000485285
0.00103236
0.000870756
0.00127996
0.00140807
0.00252853
0.00355089
0
0
0.00700796
0.00241477
0.0513954
0
0
0
0
0
0
0
0
0
0
0
0
0.0186427
0
0
0
0
0
0
8.03536e-05
0.000486828
0.000148408
0.00059442
0.00256473
0.00174747
0.000201579
0.00104266
0.000351788
0.00040231
0.000471755
0.000497409
0.000600659
0
0
0
0
0
0
0.00875446
0.00450399
0
0
0.00618101
0
0
0
0
0
0
0.60968
0
0
0
0
0
0
0
0
0
0
0.0224834
0
0
0
0
0
0
0
0
0
0
0
0
0
0
0
0
0.0104425
0
0
0
0
0
0.0119126
0
0
0
0
0
0
0
0
0
0
0
0.00636933
0.0501216
0.0343831
0
0
0
0
0
0.0445751
0
0
0
0
0
0
0
0
0
0
0
0
0
0
0
0
0
0
0
0
0.073615
0
0
0
0
0.00462741
0
0
0
0
0
0
0
0
0.000352184
0.000573204
0.000993287
0.000505217
0.000174889
8.24793e-05
0.00048276
9.99504e-05
0.000211472
5.10942e-05
0.000158432
0.000114243
3.5866e-05
0.000107433
0.000140838
8.77078e-05
0.000186651
0.000192787
0.000261324
0.000143728
0.000135752
0.000181837
0.000177473
0.000114962
0.000105201
0.000132766
5.79852e-05
0.000220581
0.000664885
0.000903886
0.000805885
0.000927615
0.000745965
0.000852339
0.000940943
0.000827189
0.000375478
0.000430483
0.000477703
0.000697243
9.12461e-05
0.000185995
0.000203173
0.000281838
6.27798e-05
6.16364e-05
0.000103131
0.000160535
0.000557319
0.000365497
0.000184755
0.000452391
0.000236252
0.000374054
0.000133701
0.000156114
0.000348612
8.74606e-05
0.000282488
0.00167692
0.00153012
0.000994926
0.00142124
0.00129741
0.00134726
0.00100669
0.00282699
0.00120201
0.00377728
0.00398276
0.00300596
0.00427532
7.56125e-05
0.000127079
0.000151154
0.000108787
9.63949e-05
0.000136055
0.000135824
0.000122739
0.000149991
0.000129123
0.00011672
0.000134683
0.000178141
0.000110895
0.000138016
0.000131703
0.000101806
0.000114784
9.36239e-05
0.000131003
9.33513e-05
0.000117026
0.000164815
9.31505e-05
0.000103334
0
0
0
0
0
0
0
0
0
0.00622182
0
0
0
0
0
0
0.0145664
0
0
0
0
0.162032
0.0168566
0.0244323
0.437294
0.0090707
0.00741522
0.00185008
0.00261184
0.00195701
0.00148618
0.00425734
0.000495895
0.00117846
0.00137908
0.000261473
0.0011457
0.000830682
0.00061303
0.000123712
0.000827737
0.000558136
0.000131528
0.000604391
0.000125032
0.000629284
0.000509757
0.000451765
0.000449387
4.74265e-05
0.00038555
0.000252184
0.00041873
0.000252705
0.000343976
0.00028634
0.000352825
0.000375313
0.000260255
0.000317969
0.000297464
0.000240867
0.000214171
0.000262314
0.00020177
0.000175463
0.000133543
0.00010477
7.59962e-05
9.19376e-05
7.75908e-05
2.88605e-05
4.7435e-05
0.000115068
0.000113673
6.97327e-05
4.66653e-05
0.000118558
0
0
0
0
0
0
0
0
0
0
0
0
0
0
0
0
0
0.00933431
0
0
0.0533267
0
0
0
0.00642969
0
0
0
0
0
0.000399242
0
0
0
0
0
0
0
0
0
0
0
0
0
0
0
0.00973836
0.0144972
0.0133123
0
0
0
0
0.00470103
0
0
0.00592235
0
0
0
0
0.00832782
0
0.00513242
0
0
0
0
0
0
0
0
0
0
0
0
0
0
0
0
0
0
0
0
0
0
0
0
0
0
0
0
0
0
0
0
0
0
0
0
0
0
0
0
0
0
0
0
0
0
0
0
0
0
0
0
0
0.00355043
0
0
0
0.0208471
0
0
0.000126764
8.22179e-05
0.000100695
0.000150671
0.000130275
8.91361e-05
0.000111853
0.000116343
6.54823e-05
0.000130188
0.000114306
0.000163183
0.0001463
0.000194734
0.000200306
0.000131708
0.000146401
0.000130206
0.000214111
0.000173749
7.59979e-05
4.16507e-05
0.0002359
8.60808e-06
0.000671158
0.000643516
0.0017124
0.000969087
0.000453743
0.000846696
0.001709
0.00171227
0.00105654
0.000527679
0.00065041
0.00406157
0.000688427
0.0194782
0.00832969
0.00575872
0.0015576
0
0
0.00881025
0
0
0
0
0
0
0.00188986
0
0
0
0
0
0.0100261
0
0.00788751
0
0.010314
0.000332948
0.000171632
0.000454531
0.000458478
0.000966269
0.0025897
0.000673602
0.00045053
0.00040167
0.000550131
0.000249145
0.000863925
0
0
0.000440907
0
0
0.00491155
0.00264377
0
0
0
0
0
0
0
0
0.0744787
0.226041
0
0
0.094744
0
0.0109713
0
0
0
0
0.0130301
0
0.00758343
0.0184007
0
0
0
0
0
0
0
0
0
0
0
0
0
0
0
0
0
0
0.00621838
0
0
0
0
0
0
0
0
0
0
0
0
0
0
0
0
0
0
0
0
0
0
0
0
0
0.31724
0.0372187
0.0646519
0
0
0
0
0
0
0
0
0.00232031
0
0
0
0
0
0
0.00148116
0
0
0
0
0
0
0
0
0
0.196674
0.0108827
0.0239593
0
0
0.00875943
0
0.000340231
0
0
0
0
0
0
0
0.000396501
0.000450668
0.000232483
8.30989e-05
5.84509e-05
0.000133874
6.22711e-05
0.000131423
3.52877e-05
8.25085e-05
6.17194e-05
6.01495e-05
4.88731e-05
3.58761e-05
4.86115e-05
0.000123963
8.12061e-05
0.000193972
0.000175184
0.000156143
0.000262113
0.000271215
0.000212289