/*--------------------------------*- C++ -*----------------------------------*\
  =========                 |
  \\      /  F ield         | OpenFOAM: The Open Source CFD Toolbox
   \\    /   O peration     | Website:  https://openfoam.org
    \\  /    A nd           | Version:  8
     \\/     M anipulation  |
\*---------------------------------------------------------------------------*/
FoamFile
{
    version     2.0;
    format      ascii;
    class       volScalarField;
    location    "4080";
    object      nut;
}
// * * * * * * * * * * * * * * * * * * * * * * * * * * * * * * * * * * * * * //

dimensions      [0 2 -1 0 0 0 0];

internalField   nonuniform List<scalar> 
526318
(
0.000240266
0.000327615
0.000181428
0.000310633
0.000244979
0.000178836
0.000475479
0.000567698
0.000211013
0.000505944
0.00037328
0.000500875
0.000372852
0.000291787
0.00043178
0.000270148
0.000337309
0.00025248
0.00020146
0.000255356
0.000300733
0.000177628
0.000615116
0.000229321
0.000763711
0.000349492
0.000226704
0.000191316
0.000306184
0.000106775
0.000130655
0.000272569
0.000296307
7.80003e-05
0.000373541
0.000190419
0.000285196
0.000337028
0.000357499
8.14883e-05
0.000194029
0.000276514
0.000476126
0.000966841
0.000530126
0.000661667
0.000322571
0.000565508
0.000511699
0.000384799
0.000376164
0.00027055
0.000191536
0.000194803
0.000351608
0.00091197
0.000673457
0.000604083
0.000226453
0.000317466
0.000270994
0.000226843
0.000226169
0.000346373
0.000347717
0.000227122
0.000185568
0.000191855
9.03802e-05
0.000136549
0.000147293
2.14093e-05
4.90347e-05
1.7823e-05
7.65612e-05
3.66076e-05
7.52711e-05
9.09437e-05
3.69967e-05
1.3442e-05
0.000142723
8.25997e-05
0.000122521
8.92273e-05
0.000103359
0.000114461
6.19565e-05
0.000162522
4.29199e-05
6.65239e-05
7.20314e-05
0.000104604
0.000149223
0.00025721
0.000200071
0.00012857
3.77263e-05
7.58999e-05
3.29813e-05
2.14584e-05
0
0
0
0
6.88889e-05
0
0.000737337
0.000375433
0.000633981
0.00033145
0.00061435
0.000735468
0.000551829
0.000841228
0.000556388
0.000527348
0.000396361
0.000458952
0.000362603
6.6416e-05
3.79882e-05
4.96973e-05
0.000107051
6.91956e-05
1.77594e-05
2.77298e-05
9.73261e-05
9.21735e-05
3.88039e-05
3.56026e-05
0.000113912
7.43449e-05
3.46789e-05
6.27355e-05
8.74346e-06
5.56455e-05
5.50642e-05
2.92429e-05
4.70549e-05
6.22609e-05
5.49305e-05
5.92374e-05
3.96343e-05
1.02358e-05
4.8291e-05
4.46056e-05
5.46702e-05
4.39584e-05
2.58213e-05
5.56468e-05
8.16473e-06
6.33398e-05
4.48317e-05
1.0946e-05
1.20037e-05
7.44478e-05
3.75504e-05
4.6051e-06
2.87285e-05
3.92926e-05
2.65257e-05
4.52862e-05
5.86914e-05
0.000136097
0.000127101
0.000143257
8.32093e-05
7.15532e-05
4.59006e-05
9.76359e-05
2.92453e-05
0.000101454
7.37715e-05
0.000103395
0.000110842
0.000136965
0.000137493
6.04843e-05
9.51382e-05
2.89089e-05
4.11965e-05
0.000125435
7.87805e-05
2.89945e-05
9.7319e-05
8.71765e-05
3.65278e-05
4.53056e-05
9.30638e-05
6.35968e-05
3.23371e-05
7.68534e-05
2.61729e-05
7.30644e-06
5.9625e-05
4.39774e-06
2.00875e-05
1.19348e-05
4.76817e-05
1.58975e-05
3.29361e-05
1.04809e-05
9.70456e-05
2.13419e-05
5.46176e-05
6.03661e-05
3.05403e-05
8.5873e-05
5.37018e-05
3.10446e-05
0.000145429
0.000223662
0.000317992
0.00020702
0.000146754
0.0001477
0.000201161
0.000215715
0.000112501
0.000872814
0.000184677
0.000527319
0.000350206
0.000317764
0.000110977
2.61473e-05
0.000147278
2.77912e-05
0.000167798
2.33124e-06
0
0.000193432
0.000965654
0
0
0
0
0
0
0.000348764
0.000218236
0.000467528
0.000297465
0.000191836
9.85796e-05
0.000103614
0.000132132
0.000113808
7.8892e-05
8.40613e-05
0.00011856
7.54949e-05
0.000149357
5.84319e-05
3.28312e-05
6.01951e-05
2.28658e-05
4.90458e-05
4.07027e-05
9.55761e-06
0.000115631
0
0
0
0
0
0
0
1.53883e-05
0.000393173
0.000158227
0.000530169
0.000285851
0.000562764
0.000754248
0.000763653
0.000681636
0.000622795
0.000655497
0.000563941
0.000526885
6.76241e-05
5.60558e-05
1.64007e-05
7.18686e-05
4.55663e-05
2.14099e-05
4.88058e-05
4.83578e-05
5.00035e-05
2.40148e-05
3.96198e-05
8.1192e-06
2.95543e-05
3.08621e-05
5.96302e-05
8.86e-05
7.60504e-05
7.72868e-05
3.45889e-05
7.50801e-05
5.07765e-05
6.18912e-05
2.90474e-05
5.39499e-05
7.92093e-05
2.35399e-05
3.38231e-05
6.37852e-05
6.07503e-05
1.39302e-05
3.48921e-05
5.45785e-05
5.58545e-05
4.56424e-05
2.76009e-05
6.67331e-05
2.60854e-05
1.76558e-05
0.000117182
5.07069e-05
0.000115287
1.92149e-05
8.29154e-05
4.23629e-05
7.0066e-05
3.06453e-05
6.38226e-05
8.04058e-05
0.000105434
8.80364e-05
5.38167e-05
9.40606e-05
5.55249e-05
3.53436e-05
2.5864e-05
2.65485e-05
4.86428e-05
1.84658e-05
3.37786e-05
3.61728e-05
1.66519e-05
3.69139e-05
3.91428e-05
4.41201e-05
3.32722e-05
1.07836e-05
0.00010373
9.08789e-05
2.36408e-05
1.19672e-05
1.57449e-05
5.16632e-05
4.10188e-05
3.55339e-05
2.71592e-05
3.08801e-05
2.53784e-05
7.34086e-05
2.89288e-05
5.6901e-05
8.40096e-05
5.11113e-05
8.44662e-06
8.0566e-05
5.60609e-05
9.443e-05
5.24846e-05
0.000122885
9.70746e-05
7.39791e-05
7.7843e-05
7.77965e-05
0.000123421
5.58006e-05
6.88864e-05
5.8795e-05
0.000164862
0.00011226
4.54097e-05
6.35846e-05
0.000230059
0.000170886
4.62706e-05
6.51391e-05
0.000133825
0.00019715
7.33117e-05
0.000363399
0.000284161
0.000313625
0.000193554
0.000324859
0.000284304
8.0899e-05
0.00022084
0.000214101
0.000170118
0.000221919
0
0
9.7603e-06
0
6.83412e-05
0
0
0
0
0
0
0
0
0
0
0
0.000267611
0.000223083
0.000361321
0.000306535
0.000129139
2.99569e-05
7.93732e-05
9.55809e-05
6.81346e-05
0.000111454
8.72948e-05
0.000167397
9.18638e-05
3.02516e-05
6.17847e-05
3.89379e-05
3.43975e-05
7.18462e-05
9.15223e-05
3.95764e-05
5.74567e-05
4.0732e-05
0
8.90249e-10
2.1377e-09
0
0
0
0
0
1.21478e-10
1.14286e-09
0
0
0
0
2.48648e-09
0
0
0
0
0
0
0
5.5761e-06
0
0.000170271
3.47369e-05
0.000214456
0.000339691
0.000285036
0.000361454
0.00060107
0.00042981
0.000559517
0.000500126
0.000526341
0.000482146
0.000393357
0.000362699
2.05181e-05
6.38813e-05
5.8425e-05
1.35199e-05
4.62539e-05
2.48317e-05
1.45744e-05
4.43416e-05
4.42222e-05
3.46141e-05
1.61489e-05
4.10762e-05
4.30733e-05
4.84442e-05
3.64818e-05
3.36461e-06
5.54575e-05
8.30172e-05
5.93217e-05
5.87402e-05
2.70328e-05
4.11046e-05
7.85273e-06
7.98166e-05
5.9135e-05
3.37132e-05
3.37793e-05
5.71126e-05
5.60821e-05
2.84968e-05
3.81563e-05
5.74607e-05
6.83694e-05
9.07945e-05
0.000143074
9.9973e-05
0.000117134
0.000198372
0.000135564
6.60568e-05
8.2238e-05
0.000107954
6.73161e-05
3.96363e-05
5.32902e-05
3.57722e-05
0.000121028
0.000102437
3.3462e-05
6.73538e-05
7.77555e-05
9.12007e-05
3.89626e-05
2.24428e-05
9.59073e-05
3.83319e-05
8.84195e-05
6.27752e-05
5.9955e-05
6.62501e-05
0.000136597
3.96453e-05
5.04711e-05
5.1855e-05
8.30299e-05
5.18853e-05
6.25085e-05
0.000135194
4.15583e-05
3.29327e-05
4.52813e-05
9.97033e-05
5.53781e-05
9.91405e-05
4.04305e-05
3.57064e-05
3.32144e-05
4.73732e-05
5.17501e-05
6.87146e-05
7.62429e-05
2.29866e-05
9.35068e-05
2.99788e-05
0.000101598
0.000114069
3.01572e-05
8.17743e-05
7.14082e-05
5.82058e-05
2.76519e-05
7.47828e-05
5.59819e-05
0.000129015
4.08667e-05
3.04456e-05
7.61363e-05
6.786e-05
8.62843e-05
7.00182e-05
9.05981e-05
0.0001084
0.000192494
0.000214199
8.7135e-05
0.000193642
7.29864e-05
2.36965e-05
0.000160277
8.01342e-05
6.77241e-05
5.9959e-05
0.000184574
5.64894e-05
0.000185378
0.000218971
6.34618e-05
5.77054e-05
0.000263038
0.000233758
0.000425414
0.000285268
0.000184732
0.000108141
0.00012844
3.09875e-05
0.000119016
0
0
0
0
3.19646e-05
0.000131823
0
0
0
0
0
0
0
0
0
0
0
0
0
0
0
0
0
0
0
0
2.39159e-10
0
0
3.63388e-10
1.23871e-10
7.36189e-11
0
0
0
0
0
0
0
0
0
0
0
0
0
0
0.00015515
0.000163316
0.000173647
0.000146746
0.000112302
6.17212e-05
0.000110442
4.6591e-05
0.000128908
4.28411e-05
4.25404e-05
7.9047e-05
4.63675e-05
8.46716e-05
7.67855e-05
7.64734e-05
8.69161e-05
4.10601e-05
4.91201e-05
4.35289e-05
5.30971e-05
4.86456e-05
0
0
0
0
0
0
0
0
0
0
0
0
0
0
0
0
0
0
0
0
0
0
0
0
0
0
6.90755e-09
0
0
0
2.35544e-05
0
0.000106339
4.56814e-05
0.000139625
7.43861e-05
0.000266702
0.000225382
0.000267878
0.000143181
0.000119131
0.000337337
0.000200029
0.000283388
0.000216384
0.000200312
4.40969e-05
0.000104393
0
0
0
0
0
0
0
0
0
0
0
0
0
0
0
0
0
2.96486e-05
8.05078e-05
2.55166e-05
8.2135e-05
3.54592e-05
5.63211e-05
3.014e-05
3.89482e-05
4.29204e-05
2.37367e-05
2.87611e-05
4.73622e-05
5.24901e-05
7.49154e-05
1.25803e-05
3.23807e-05
2.25034e-05
5.76207e-05
7.34497e-05
2.73678e-05
9.93147e-06
2.09854e-05
1.21994e-05
1.47146e-05
1.90536e-05
2.15875e-05
3.91261e-05
2.78334e-05
3.15873e-06
1.69343e-06
0
0
0.000167555
0.000134538
0.000230335
0.000188962
0.00025245
0.000181955
0.000170874
0.000191621
0.000226669
0.000307518
8.80028e-05
5.51244e-05
0.00015233
0.000118428
5.72905e-05
0.000120159
7.34251e-05
9.65745e-05
5.27143e-05
6.82034e-05
3.25513e-05
0.000101232
2.53887e-05
6.49335e-05
4.57851e-05
4.71036e-05
3.28978e-05
8.98112e-05
5.58991e-05
4.5447e-05
7.21227e-05
6.24037e-05
3.65303e-05
0.000107858
8.1126e-05
7.63662e-05
0.000109456
6.36566e-05
0.000162335
8.95761e-05
3.66295e-05
6.80438e-05
4.55019e-05
0.000116887
5.28942e-05
7.61388e-05
7.92773e-05
4.04202e-05
2.70019e-05
5.46281e-05
5.81807e-05
6.55105e-05
7.50656e-05
0.000123671
8.22527e-05
0.000113111
8.25545e-05
5.2146e-05
7.8162e-05
9.49042e-05
3.88475e-05
4.73584e-05
5.47953e-05
6.9118e-05
1.4073e-05
5.0659e-05
5.35096e-05
2.00375e-05
5.09185e-05
9.70984e-05
0.000119918
8.0816e-05
0.000144195
0.00012513
0.000194051
0.00016939
0.000187367
0.00020018
0.000132705
0.000229566
0.000292641
0.000189938
0.000321861
0.000320644
0.000346748
0.000389118
0.000366274
0.000372646
0.000378216
0.000313553
0.000360473
0.000374469
0.000401676
0.000343733
0.000375329
0.000349478
0.00036317
0.000269357
0.000287055
0.000306166
0.000303233
0.000208191
0.000207759
0.000229324
0.000239358
0.000144364
0.00015094
0.00014728
0.000139921
0.000173215
0.000163329
0.000160701
0.000128784
0.000227272
0.000164472
0.000125584
0.000169103
0.000200602
0.000210196
0.000150098
0.000170337
1.24561e-05
6.17741e-05
9.24569e-05
3.81443e-05
2.4963e-05
1.86534e-05
5.00117e-05
7.11222e-05
6.05095e-05
9.83849e-07
1.19282e-05
4.50547e-05
3.74928e-05
0
0.000227109
0.000122441
0.000133544
0.000101967
7.0582e-05
4.0274e-05
3.23326e-05
2.48522e-05
1.8839e-05
0
3.33007e-09
0
0
0
0
0
0
0
0
0
4.78212e-09
0
0
0
0
0
0
0
0
4.66845e-09
0
0
0
0
0
0
0
0
0
0
0
0
0
0
0
6.86564e-09
0
0
1.81982e-09
0
0
5.0693e-09
0
4.22767e-08
0
4.48895e-08
5.19909e-08
2.45819e-09
0
5.89321e-09
6.34269e-08
0
0
2.74583e-09
0
0
0
0
0
0
0
0
0
0
0
0
0
0
4.00881e-09
0
0
0.000105202
8.02506e-05
6.92228e-05
9.05434e-05
0.000110067
8.62842e-05
2.08475e-05
6.41586e-05
0.000119193
9.84662e-05
7.62937e-05
7.05694e-05
4.28046e-05
9.56466e-05
3.44558e-05
4.9072e-05
6.61015e-05
6.85267e-05
6.35974e-05
7.11485e-05
1.03628e-05
6.55594e-05
0
0
1.26e-10
2.4367e-09
0
0
0
0
0
0
0
0
0
0
0
0
0
0
0
0
0
0
4.97796e-09
3.61454e-09
0
0
0
4.81348e-05
0.000118674
5.57227e-05
0.000201812
0.000171059
0.00025844
0.00022929
0.000257719
6.67604e-05
0.000129577
5.01255e-05
0.000130839
9.41966e-05
4.79161e-05
5.2708e-05
8.00446e-05
4.50909e-05
7.95812e-10
0
0
0
0
4.43445e-11
0
0
1.0532e-10
0
0
0
0
0
0
0
0
0
0
0
0
0
0
0
4.44386e-09
0
9.72595e-05
1.46374e-06
6.53854e-05
5.78932e-05
2.18488e-05
4.59592e-05
1.02483e-05
1.68958e-05
2.80569e-05
3.76721e-05
1.74807e-05
4.9063e-05
1.74364e-05
5.98895e-06
3.75973e-06
3.15694e-05
5.21191e-05
6.33789e-06
4.19233e-05
1.35582e-05
0
0
1.50547e-06
0
0
0
0
0
0
0
1.24364e-09
0
0.000299917
0.000247121
0.000300722
0.000197945
0.000228872
0.000182631
0.000285179
0.000185768
0.000367951
0.000364976
0.000369231
0.000343709
0.00030548
0.000238208
0.000199861
0.000231051
0.000121093
9.14414e-05
0.000170102
0.000113309
0.000150317
0.000154253
0.00014012
0.000200106
0.000104259
0.000170764
0.000158325
0.000124642
0.000154741
0.000112423
5.51069e-05
8.85113e-05
0.000173265
0.00012488
9.48073e-05
8.85498e-05
8.83407e-05
8.44522e-05
7.96072e-05
6.40412e-05
1.85713e-06
3.54812e-05
3.38044e-05
4.66082e-05
0.000102428
3.39396e-05
7.97691e-05
9.12457e-05
4.16109e-05
4.10912e-05
1.26e-05
1.50563e-05
4.41905e-06
3.56013e-05
7.33703e-06
0
0
5.23286e-05
7.86742e-05
0.000104386
1.00968e-05
8.93469e-05
8.35807e-05
6.63142e-05
0.000127831
0.000115072
8.48248e-05
5.2526e-05
2.96182e-05
6.90533e-05
8.15463e-05
6.17596e-05
8.73695e-05
0.000108073
5.14641e-05
8.42753e-05
5.16014e-05
9.53985e-05
5.56792e-05
7.42198e-05
2.24075e-05
1.12737e-05
5.58233e-05
4.95038e-05
0.000123871
0.000118429
8.37446e-05
8.64783e-05
0.000104049
0.000148699
0.000167834
0.000109479
5.96546e-05
9.47373e-05
0.000168594
0.000139014
0.000214066
0.000138637
0.000178258
0.000214774
0.000296214
0.00025349
0.000359734
0.00039965
0.000275326
0.000325169
0.000394156
0.000363026
0.000333054
0.0003323
0.000286347
0.000259888
0.000198259
0.000148772
0.000129859
9.5045e-05
0.000135441
2.77404e-05
5.33062e-05
7.25608e-05
0.000103718
5.58734e-05
7.77354e-05
3.02735e-05
5.35374e-05
6.29315e-05
3.11176e-05
0.000103103
6.98053e-05
8.3064e-05
0.00013547
0.000118436
0.000138969
1.95938e-05
4.4172e-05
4.32341e-05
7.68504e-05
5.47129e-05
5.54426e-05
0.000106218
0.000123543
0.000155408
3.77921e-05
3.37218e-05
0
0
3.4578e-05
5.45629e-05
0
0
3.44272e-05
0
5.79108e-05
6.0877e-05
1.78867e-05
3.64685e-05
3.36535e-05
0.000174294
0
0
0
0
3.53742e-09
2.34508e-09
0
0
0
6.5548e-09
0
0
0
0
0
0
0
5.80154e-09
0
0
0
0
0
0
0
0
9.87368e-11
0
0
0
1.60381e-09
0
0
0
0
0
0
0
0
0
0
0
0
0
0
0
0
4.94917e-09
0
1.58987e-09
0
0
0
0
0
0
0
0
0
0
0.000111075
7.80347e-05
4.39171e-05
8.90168e-05
6.60249e-05
6.59804e-05
8.24438e-05
7.97269e-05
6.83453e-05
8.83924e-05
0.000121631
4.70498e-05
4.75495e-05
8.76519e-05
6.48918e-05
3.44807e-05
6.29706e-05
7.81477e-05
2.36107e-05
0.000110531
9.37559e-06
4.69765e-05
1.1881e-10
0
5.47713e-10
0
0
0
0
0
0
0
0
0
0
0
0
0
0
0
0
0
0
0
0
0
0
0
1.59434e-05
3.74986e-05
9.14845e-05
3.09745e-05
0.000190656
0.0001696
0.000246571
0.000193864
0.000133837
0.000205794
9.96777e-05
0.000125582
8.02899e-05
7.64811e-05
4.17042e-05
5.6642e-05
0.000118705
4.91688e-05
0
0
0
0
0
0
0
0
0
0
0
0
1.51322e-09
0
0
0
0
0
0
2.02881e-10
0
3.45321e-10
0
0
0
0
0
0
0
0
0
3.75236e-05
4.67718e-05
6.29521e-06
1.9311e-05
1.09599e-05
2.60765e-05
4.71383e-05
3.16662e-05
3.83641e-05
1.12578e-05
1.38355e-05
0
1.83876e-06
0
0
3.4297e-06
2.99065e-06
3.07822e-07
5.3459e-05
5.6168e-05
5.95755e-05
3.64677e-06
1.79568e-05
0
0
0
0
0
0
0
0
0
0
0
0
0.000101301
0.000214563
0.000112631
0.00017399
0.000264622
0.000177352
0.000149647
0.000171437
0.000109494
0.000275107
0.000318862
0.000257199
9.69461e-05
0.000156748
0.000142551
0.00016146
0.00012038
0.00015364
0.000126919
0.000162719
0.000132743
0.0001503
0.000222225
6.79882e-05
0.000176044
0.000156944
0.000249202
0.000185391
9.77961e-05
0.000111556
4.27981e-05
4.0835e-05
9.18508e-05
0.000118625
0.00013687
0.000318836
0.000226472
0.000340295
0.000255863
0.000182406
0.000202134
0.000321703
0.000271655
0.000397076
0.000363401
0.000377395
0.000316958
0.000179684
0.000270497
8.86248e-05
0.00014273
8.42184e-05
0.000145247
0.000127027
0.000121072
0.000104321
0.000210607
0.000141374
0.000225124
4.99878e-05
8.76256e-05
0.000200756
0.000202224
0.000130915
0.00011159
8.48699e-05
0.00010476
0.000140589
0.000171357
0.000170367
6.23112e-05
0.000118443
2.33302e-05
3.50945e-05
0.000105654
0.000174429
0.000100579
0.000160263
0.000200257
0.000214315
0.000145576
0.000196206
0.000153149
0.00016641
0.00018782
0.000186767
0.000216282
0.000196324
0.000221269
0.000224597
0.000156155
0.000336924
2.51869e-05
0
1.32085e-07
1.06844e-05
5.37947e-05
7.14813e-05
3.2261e-05
5.43807e-05
2.26394e-06
3.75144e-05
2.65648e-05
2.06557e-05
0
0
0
0
0
0
3.2751e-05
2.17786e-05
0
9.29885e-05
0.000109082
0.000113224
3.67754e-05
9.03695e-05
2.23455e-05
7.7307e-05
3.45329e-05
2.54264e-05
7.20856e-05
7.03453e-05
6.17049e-05
0.000124028
6.07681e-05
7.82842e-05
0.000121011
2.68846e-05
6.51003e-05
6.7156e-05
6.51925e-05
0.000153519
7.99257e-05
0.000124496
3.30053e-05
5.96455e-05
8.4341e-05
9.80364e-05
0.00011623
1.93726e-05
0.000135502
2.47256e-05
8.97833e-05
9.34064e-05
3.28675e-05
0.000165933
0.000202687
0.000160237
0.000215268
0.000218382
0.000306177
0.000404913
0.000349587
0.000247806
0.000393611
0.00037512
0.000380856
0.000291073
0.000295695
0.000196358
0.000145192
0.000217645
0.000187813
6.96183e-05
6.6243e-05
0.000108515
4.45969e-05
6.19703e-05
2.03023e-05
2.62022e-05
7.54589e-05
9.43913e-05
8.46657e-05
9.9972e-05
0.000137763
5.87116e-06
4.3187e-05
3.05606e-05
4.13749e-06
2.10157e-05
6.1573e-05
8.95429e-08
7.02015e-05
5.09959e-06
0
5.38758e-07
0
0
0
1.38656e-07
0
0
0
0
6.26581e-05
0
0
0
0
0
0
0
0
1.86153e-09
1.88312e-09
3.6447e-09
0
3.08356e-10
0
0
0
0
0
0
0
0
0
7.24572e-09
0
0
0
0
0
0
0
0
2.72173e-07
0
0
0
0
0
0
0
0
0
0
0
0
5.09653e-09
0
0
9.04073e-09
0
0
0
0
0
0
0
0
0
0
0
0
0
0
0
0
0
0
0
0
0
6.35182e-08
0
0
0
0
2.83812e-08
0.000241482
0.000300553
0.000387574
0.000234107
0.00034539
0.000122675
8.9658e-05
0.000129565
4.43148e-05
7.97859e-05
0.000152411
0.000141155
0.000102898
4.83866e-05
1.57954e-05
8.71765e-05
3.65285e-05
5.59905e-05
1.4579e-05
0.000129131
5.20801e-05
4.57401e-05
3.54087e-05
6.79015e-05
3.29745e-05
0
0
0
0
0
0
0
0
0
0
0
0
0
8.35362e-06
1.38269e-05
2.84965e-05
0
0
0
0
0
0
0
0
0
0
0
9.38196e-05
0.00011681
0.000133508
0.000217264
0.000133999
3.35964e-05
9.87041e-06
0.00018552
0.000169471
0.000162522
0.000136302
0.000116955
8.30065e-05
5.76098e-05
8.99286e-05
5.95944e-06
0
7.21376e-10
0
0
0
0
0
0
0
0
0
0
0
0
0
0
0
4.17098e-10
0
0
0
0
0
0
4.98342e-09
0
0
0
0
0
1.28729e-09
0
0
0
0
0
0
6.435e-05
3.99723e-05
7.4594e-06
4.57247e-05
3.02575e-05
1.24697e-05
4.10749e-05
2.69387e-06
8.19369e-06
0
0
8.83915e-05
7.939e-05
0
0
0
2.32613e-09
0
0
0
0
3.91786e-05
6.05099e-07
9.5384e-06
2.75351e-05
0
0
0
0
0
0
0
0
0
0
0
0
3.52694e-05
0.000111995
0.000171424
4.18218e-05
0.000244315
0.000361167
0.000432713
0.000262142
0.000159175
0.000250223
0.000135235
0.000132738
0.000154021
0.000204009
0.00012476
0.000127207
0.000117848
2.92736e-05
0.000114599
7.65307e-05
6.72744e-05
0.000196706
0.000347785
0.00032625
0.000339356
0.00030914
0.000200506
0.00020816
0.00033158
0.000291757
0.000356775
0.000216495
0.000306864
0.000364593
0.000301784
0.000153998
0.000340681
0.000323067
0.000128585
0.000146669
8.40874e-05
7.46586e-05
0.000137784
8.43218e-05
0.000184067
0.000230837
0.000138862
0.000301423
0.000226665
0.000183596
0.000163395
0.00037265
0.000342233
5.35932e-05
0.000107328
0.000161122
0.000175098
0.000124803
0.000146191
0.000171077
0.000221715
7.70255e-05
9.26022e-05
2.61948e-05
4.4778e-05
0.000149058
0.000120692
0.000154494
8.3526e-05
0.00018325
0.00022582
0.000158096
0.000237876
0.000190129
0.000148036
0.000249589
0.00027814
0.000196691
0.00015862
0.000242037
0.000240466
0.000236201
0.000271828
0.000215642
0.000127205
0.000226554
0.000178328
0.000186571
0.000235888
0.000346821
1.04044e-07
1.6431e-07
9.77283e-08
0
3.39562e-05
6.26602e-05
0
0
0
0
0
0
0
3.29221e-09
0
1.50801e-09
0
0
0
0
8.41287e-10
0.00010961
0.000154205
0.000163109
2.48647e-05
7.24649e-05
5.86853e-05
0.000120966
4.35181e-05
4.32785e-05
7.67531e-05
4.19837e-05
9.56064e-05
3.58697e-05
8.80628e-05
2.89477e-05
6.38048e-05
9.63129e-05
9.81345e-05
0.000197148
8.82694e-05
9.42407e-05
8.75811e-05
0.000120342
0.000122268
8.08563e-05
0.000133531
0.00013609
6.06724e-05
0.00011197
8.53809e-05
0.000152975
2.19838e-05
0.000214941
0.000170477
0.000173366
0.000210776
0.000277219
0.000139013
0.000473427
0.000489179
0.000363545
0.000404122
0.000370118
0.000280681
0.000193774
0.00030001
0.000225605
0.000164257
0.000108727
0.000187026
0.000165641
0.000111893
0.000100031
6.56413e-05
7.58167e-06
0.000131273
0.000123003
4.97841e-05
0.00012951
0.00015364
0.000173326
0
0
0
0
9.2214e-06
6.48229e-08
6.59469e-07
0
6.59994e-08
0
0
0
0
0
0
0
0
0
0
0
0
0
0
0
0
0
0
0
3.48767e-09
9.87113e-10
0
0
0
0
0
0
0
0
0
0
0
0
9.25285e-08
0
0
0
0
0
0
0
0
1.15687e-07
0
0
0
2.17462e-09
1.38026e-09
0
0
0
0
0
0
0
1.30083e-08
1.92712e-08
0
0
2.49639e-08
2.85746e-08
0
0
0
0
3.47416e-09
0
5.48458e-09
0
0
0
0
0
1.76133e-10
2.84626e-10
0
0
0
0
0
0
0
0
0
0
1.65533e-09
0
0
0
0
0
0
0
0
0.000118355
0.000272157
0.000325637
0.000249552
0.000365695
0.000246716
0.000249829
0.00021482
0.000279625
0.000179588
4.65056e-05
0.000119073
0.000154139
8.55802e-05
9.65934e-05
4.34446e-05
8.24525e-05
7.83567e-05
3.01345e-05
6.9657e-05
6.92148e-05
2.55538e-05
9.69183e-05
3.2163e-05
1.90417e-05
4.52936e-05
5.63769e-05
0
0
0
0
0
0
0
4.54796e-05
4.25383e-05
1.85842e-05
0
0
0
0
0
0
0
0
0
9.68391e-11
0
0
0
0
0
2.8721e-05
6.15245e-06
0.000158346
0.000149915
6.96024e-05
0.000185801
0.000111889
1.65606e-05
0.000141532
0.000115359
0.000114783
0.000113436
8.02844e-05
0.000121063
9.42405e-05
3.26695e-05
0
0
6.7885e-10
2.81987e-09
0
0
4.13889e-09
3.18778e-09
0
0
0
6.02617e-09
0
0
0
7.33302e-09
5.75113e-09
4.83467e-09
0
0
0
9.76298e-10
0
0
0
9.50454e-10
0
0
0
0
0
0
0
0
0
0
0
0
0
0
0
0
0
0
0
3.83021e-05
2.59958e-05
6.13931e-05
2.35876e-05
3.57794e-05
3.37125e-05
1.63296e-05
0
0
0
0
1.1259e-09
1.44452e-09
3.35804e-07
0
0
0
0
0
0
0
0
0
2.96089e-06
1.38117e-06
1.80591e-05
1.05263e-05
0
0
0
2.77767e-09
0
0
0
0
0
0
0
2.48606e-09
0.000126618
0.000212993
0.000192643
0.000337811
0.000128644
4.89209e-05
0.000295937
0.000461751
0.000324124
0.000394359
0.000577904
0.000205476
0.000412902
0.000393789
0.000126447
0.000136305
0.000229281
0.000190108
0.000150336
0.000185854
0.00020853
6.63145e-05
5.87277e-05
3.02175e-05
1.20926e-05
7.74927e-05
0.000196462
8.76714e-05
0.000326824
0.00034224
0.00023651
0.000246119
0.00017446
0.000195717
0.000283824
0.000283635
0.000275838
0.00021358
0.000311887
0.000297519
0.00018854
0.000118971
0.000120702
0.000173161
0.000102161
9.10716e-05
5.57928e-05
3.72428e-05
3.91309e-05
0.00019046
0.000256681
0.000372957
0.000331527
0.000340311
0.000148994
0.000138944
0.000254525
0.000130052
7.34266e-05
0.000124765
0.000109886
0.000192187
0.000141702
6.85217e-05
0.000195594
0.000158121
7.62677e-05
0.00010665
1.91368e-05
1.02992e-05
0.000165878
0.000132756
0.00010485
0.000231012
0.000163035
0.000209764
0.000215409
0.000204875
0.000183521
0.000226836
0.000238571
0.000284263
0.000227824
0.000295797
0.0002363
0.000235182
0.00021503
0.000301723
0.000235944
0.000257784
0.000238039
0.000216984
0.000247254
0.000204523
0.000242937
0
0
0
0
0
0
0
0
0
0
0
0
0
0
0
0
4.00134e-09
0
0
0
0
0
7.54138e-05
1.56027e-05
4.71919e-05
3.69543e-05
3.52294e-05
8.56494e-05
4.45238e-05
5.31551e-05
8.76172e-05
5.17473e-05
5.7562e-05
0.000130306
7.29482e-05
2.78628e-05
0.000152477
8.95574e-05
0.000236014
9.50493e-05
0.000148454
0.000147295
0.000113667
0.00010896
8.49827e-05
0.000118356
0.000109961
0.000148311
0.000106349
0.000166236
0.000139436
0.000167393
0.000186921
0.000144268
0.000291039
0.000206672
0.000376053
0.000213697
0.000413056
0.000334274
0.000401568
0.000304688
0.000297038
0.000268867
0.000223665
0.000236182
0.000242886
0.000218402
0.000157346
0.000206731
0.000153479
0.00011306
4.75737e-05
9.80688e-05
7.71391e-05
0.000124943
0.000197444
6.93014e-05
0.000167642
0
0
1.74414e-06
8.94833e-11
0
0
0
0
0
0
0
7.83765e-10
0
3.75439e-09
4.25331e-09
2.07341e-09
2.01379e-09
0
7.21298e-10
5.59039e-07
0
0
0
2.15225e-09
0
2.70929e-09
5.27863e-09
0
0
0
0
0
0
0
5.58485e-09
1.47241e-09
0
0
0
0
0
0
7.08391e-08
0
0
0
0
0
0
0
0
0
0
0
0
0
0
0
0
0
0
0
0
0
0
0
0
0
0
0
0
0
0
0
0
0
0
0
0
0
0
0
5.50953e-09
0
0
0
0
0
0
0
0
0
0
0
0
0
0
0
0
0
0
0
0
0
0
0
0
0
0
0
0
0
3.21114e-10
0
0
0
0
0.00024697
0.000260159
0.000233974
0.00034685
0.000254274
0.000294682
0.000320041
0.000168919
0.000334937
0.000257037
0.000347379
0.00022564
0.000248005
0.000412801
6.97253e-05
4.47684e-05
0.000109805
0.0001269
4.80248e-05
0.000127639
7.08272e-05
4.13548e-05
7.16835e-05
4.47231e-05
3.48286e-05
6.40887e-06
5.59448e-05
3.70604e-05
6.12961e-05
0
0
0
2.46744e-09
9.71789e-06
1.66049e-05
5.77143e-06
0
0
4.74303e-06
0
0
0
0
0
0
0
0
8.47824e-10
0
9.19859e-10
0
0
0
0.000151306
7.40091e-05
9.68896e-05
2.02572e-05
0.00010007
0.000109473
0.000104677
9.1546e-05
0.000130392
0.000100985
1.7571e-05
6.19683e-05
8.22793e-05
0.000107604
4.62299e-05
6.53952e-05
0
1.02103e-09
0
0
0
0
0
2.14863e-09
0
0
2.15599e-09
0
0
0
0
0
0
0
0
4.18074e-11
0
0
0
0
0
0
0
0
0
0
0
0
0
0
0
0
0
0
7.97728e-10
4.88636e-09
0
0
0
0
0
0
0
0
0
0
0
0
0
0
0
0
0
3.05483e-05
2.95639e-05
3.40657e-05
4.34389e-05
3.43141e-05
0
0
1.23209e-08
0
0
1.24705e-08
0
0
0
0
0
0
0
0
0
0
1.27768e-06
4.54259e-05
0
0
0
0
0
0
0
0
0
0
1.06013e-08
1.17426e-08
0
0
0
0
0
0
0.000183876
0.000254832
9.0964e-05
0.000681463
6.42438e-05
0.000876422
0.000244254
0.000965455
0.000557668
0.000447919
0.000404478
0.000218696
8.21803e-05
0.000128105
0.000126628
0.000182548
0.000183795
0.000181143
0.000183913
0.000339611
0.000268783
8.68399e-05
7.002e-05
0.000150184
7.58363e-05
0.000123945
9.29047e-05
0.000357792
0.000316656
0.000207956
0.000292248
0.000280746
0.000203287
0.000351577
0.000304188
0.000203119
0.000225726
0.000339898
0.000325451
7.63749e-05
8.96601e-05
0.000104806
0.000158819
7.0059e-05
0.000128146
7.61738e-05
9.74824e-05
6.30199e-05
0.000160062
0.000223296
0.000310009
0.000291257
0.000225547
0.000131546
4.77156e-05
0.00022913
7.07098e-05
0.000120171
2.76201e-05
0.000128849
0.000124642
9.43916e-05
0.000131747
0.000102953
0.000217706
5.92202e-05
7.08136e-05
0.000100763
8.65123e-05
0
2.92348e-05
8.80406e-05
0.000181275
0.000131572
0.000149122
0.000180562
0.000184842
0.000173345
0.000157055
0.000163874
0.000219084
0.000192714
0.000239403
0.000259944
0.000207042
0.000276767
0.000209871
0.000301682
0.000244801
0.000226784
0.00023286
0.000236793
0.000204283
0.000243866
0.000219212
0.000211792
0.000180816
0.000267646
0
0
0
0
0
2.0963e-09
4.18359e-09
0
0
0
0
4.25301e-09
2.12766e-09
0
0
0
0
0
0
0
0
9.94533e-06
1.22823e-05
5.71155e-05
2.15288e-05
2.12319e-05
5.4459e-05
4.5347e-05
3.57809e-06
0.000131505
5.34744e-05
6.4446e-05
0.000146241
1.25714e-05
0.00010789
8.73779e-05
3.07759e-05
0.000133849
7.04593e-05
0.000137302
0.000144339
8.29237e-05
8.63318e-05
0.000204148
4.59876e-05
0.000188841
0.000135202
6.87138e-05
0.000245994
1.27159e-05
0.000140231
0.00016038
9.30588e-05
0.000199193
0.000183582
0.000250292
0.000334008
0.000295366
0.000359378
0.00031938
0.000300553
0.00030904
0.000296636
0.000293858
0.000320848
0.00026835
0.000219849
0.000263653
0.000191073
0.000117078
9.88281e-05
0.00010001
1.44992e-05
0.000132422
0.000168036
3.30094e-05
0.000246887
5.3193e-05
0
0
3.42083e-09
0
0
0
0
8.62071e-09
0
3.68734e-09
0
0
0
5.19663e-09
3.82058e-09
9.24786e-10
3.46101e-09
2.0985e-09
5.06127e-09
0
0
0
0
0
0
0
0
0
0
0
0
0
0
0
0
4.08537e-09
0
0
0
8.45959e-07
0
0
0
0
0
0
0
0
0
0
0
0
0
0
0
0
0
0
6.41325e-07
0
0
0
0
0
8.49549e-10
2.2106e-10
1.18273e-09
0
0
0
1.24988e-08
0
0
0
0
0
0
0
0
0
0
0
0
0
0
0
0
0
0
0
0
0
0
0
0
0
0
0
0
0
0
0
0
0
0
0
0
0
7.77895e-10
0
3.12143e-10
0
0
9.65755e-10
3.87252e-09
0
0.00015357
0.000205059
0.000263273
0.00024953
0.000249403
0.000197492
0.000145019
0.000222821
0.000244065
0.000328297
0.0001747
0.000208705
0.000249461
0.000175359
0.000467202
0.000260177
0.000441944
0.0005491
0.000188521
6.13792e-05
9.95311e-06
6.22076e-05
4.87511e-05
0.00012129
2.64975e-05
0.000103598
3.34482e-05
7.93973e-05
2.60355e-05
3.15563e-05
3.33165e-05
5.87872e-05
6.79792e-05
0
0
6.04225e-05
7.34032e-05
1.17588e-05
0
0
0
0
0
0
0
0
0
0
0
0
4.87771e-09
0
0
0
0
0
0
1.35842e-05
9.87336e-05
2.71307e-05
0.000100235
0.000128585
8.87672e-05
1.17118e-05
9.23436e-05
5.32101e-05
6.13186e-05
5.79884e-05
7.61999e-05
9.08472e-05
0
0
0
0
0
0
3.12878e-09
1.6112e-09
0
0
1.29993e-09
0
0
0
0
0
0
4.28221e-07
0
0
0
0
0
0
0
0
0
0
8.07593e-09
0
0
0
0
0
0
0
0
0
0
0
0
0
0
0
0
2.55438e-09
0
0
0
0
0
7.42316e-09
0
0
0
0
0
0
0
0
0
0
0
3.62046e-05
1.55041e-05
1.06994e-05
0
0
0
0
0
2.15245e-08
0
0
0
0
0
0
0
0
0
0
0
0
0
0
0
0
0
0
0
0
2.7037e-05
0
0
0
0
1.98183e-09
0
0
0
0
0
0
0
0
0.000440751
0.000658593
0.00127909
0.000602509
0.000201353
0.00010284
0.000613575
0.0001262
0.000274219
7.14481e-05
0.000204371
0.000167551
5.00236e-05
0.000167527
0.000141344
9.08697e-05
0.000190486
0.000204346
0.000266227
0.000155429
0.000151309
0.000191503
0.000167552
0.000109488
0.000102727
0.000130915
5.66771e-05
0.000216981
0.000367805
0.000408647
0.000272772
0.000325952
0.000196688
0.000294494
0.000336354
0.000346009
0.000242031
0.00027582
0.000307355
0.000422075
6.98578e-05
0.000156426
0.000146946
0.000185285
5.27454e-05
5.17536e-05
8.70358e-05
0.000141458
0.000532728
0.00033949
0.000176648
0.000413057
0.000213984
0.000351816
0.000124352
0.000145075
0.000324348
8.19458e-05
1.50996e-05
4.58796e-05
0.000212104
0.00014063
0.000130174
0.000188724
0.00018877
0.000208961
6.78813e-05
3.00012e-05
8.10537e-05
7.20113e-05
2.06958e-05
9.73644e-05
0.000108204
0.000187969
0.000230431
0.000175269
0.000153537
0.000223734
0.000226687
0.000208147
0.00025562
0.000216706
0.000197675
0.000233325
0.000318505
0.000201637
0.000249959
0.000242384
0.000192826
0.000223137
0.000184753
0.000258807
0.000187027
0.000197397
0.000276108
0.000191716
0.000217824
0
0
0
0
0
0
0
0
0
4.84755e-09
0
0
0
0
0
0
4.14602e-09
0
0
0
0
9.15457e-06
7.3916e-05
8.0682e-05
6.73397e-06
0.000103844
9.89192e-05
6.0951e-05
0.000137079
8.36313e-05
0.000100613
0.000204415
6.75518e-05
0.0001146
0.000219342
4.17871e-05
0.000195101
0.000179807
0.000197728
4.04487e-05
0.000225507
0.000167707
4.28098e-05
0.000168034
4.79271e-05
0.000194934
0.000147336
0.00014698
0.000208356
2.26756e-05
0.000214757
0.000156561
0.000199177
0.000148321
0.00027474
0.000205828
0.00029123
0.000293177
0.000287345
0.000333272
0.000345211
0.000289322
0.000287065
0.000355746
0.000298499
0.000249731
0.000201554
0.000155645
0.000115526
0.000146632
0.000118757
4.63828e-05
7.7097e-05
0.00017516
0.000170272
0.00011111
7.41429e-05
0.000181608
0
0
0
0
0
0
0
0
0
0
0
0
0
0
0
0
0
3.08627e-09
0
0
1.75006e-08
0
0
0
2.56925e-09
0
0
0
0
0
9.96523e-11
0
0
0
0
0
0
0
0
0
0
0
0
0
0
0
2.02389e-09
3.01379e-09
2.76924e-09
0
0
0
0
1.0513e-09
0
0
1.32409e-09
0
0
0
0
1.79719e-09
0
1.28159e-09
0
0
0
0
0
0
0
0
0
0
0
0
0
0
0
0
0
0
0
0
0
0
0
0
0
0
0
0
0
0
0
0
0
0
0
0
0
0
0
0
0
0
0
0
0
0
0
0
0
0
0
0
0
1.01195e-09
0
0
0
5.20069e-09
0
0
0.000269612
0.000170413
0.000213403
0.000306583
0.000262003
0.000185866
0.000229126
0.000232138
0.000133492
0.000220839
0.000200613
0.000285864
0.000255836
0.000374484
0.000405888
0.00027436