/*--------------------------------*- C++ -*----------------------------------*\
  =========                 |
  \\      /  F ield         | OpenFOAM: The Open Source CFD Toolbox
   \\    /   O peration     | Website:  https://openfoam.org
    \\  /    A nd           | Version:  8
     \\/     M anipulation  |
\*---------------------------------------------------------------------------*/
FoamFile
{
    version     2.0;
    format      ascii;
    class       volScalarField;
    location    "16620";
    object      nut;
}
// * * * * * * * * * * * * * * * * * * * * * * * * * * * * * * * * * * * * * //

dimensions      [0 2 -1 0 0 0 0];

internalField   nonuniform List<scalar> 
526318
(
0.000348578
0.000511498
0.000310563
0.000238067
0.000387692
0.000225725
0.00053414
0.00011752
0.000427449
0.000485367
0.000318919
0.000269118
0.000314973
0.00031549
0.000336533
0.00034514
0.00037195
0.000346233
0.000305046
0.000197205
0.000144824
0.00037731
0.000345619
0.000547025
0.000378119
0.000356945
0.000512963
0.000523153
0.000383202
0.000449729
0.000532357
0.000467149
0.00030813
0.000329459
0.000300229
0.000788097
0.000781766
0.00051814
0.000135981
0.000222787
0.000500163
0.000497968
0.000224111
0.000361858
0.00032535
0.000522332
0.000247288
0.000277182
0.000392323
0.000143338
0.000238364
0.000429245
0.000321976
0.000183759
0.000458152
0.000242555
0.000272149
0.00015954
0.000414043
0.000290621
0.000717892
0.000419503
0.000518361
0.00046746
0.000228088
0.000282344
0.00037562
0.000458995
0.000551743
0.000375501
0.0003197
0.000219371
0.00043197
0.000382098
0.000384586
0.000466177
0.000277369
0.000482631
0.000175956
0.000454318
0.000222118
0.000531213
0.000170029
0.000443617
0.000357746
0.000245018
0.000508272
0.000400478
0.000271004
0.000346051
0.000249629
0.000256492
0.000471323
0.000467331
0.000317136
0.000428522
0.000318088
0.000151015
0.000164997
0.000255282
0.00161628
0.000295784
0.000381166
0.000155982
0.00082092
0.000354424
0.000705249
0.000291566
0.000638774
0.000317534
0.000288382
0.000483254
0.00042449
0.000347631
0.000399799
0.000589062
0.000493924
0.000434035
0.000544219
0.000314205
0.000283648
0.000333416
0.000357294
0.000255617
0.000237243
0.000262242
0.000234888
0.00026213
0.00026869
0.000269745
0.000298502
0.000253996
0.000251561
0.000246546
0.000257389
0.000249215
0.000261268
0.000259549
0.000267321
0.000255508
0.000275263
0.000283459
0.000269328
0.000280005
0.000268362
0.00027696
0.000266774
0.000264073
0.000256994
0.000251945
0.00025941
0.000258879
0.000251462
0.00025787
0.000231533
0.000252734
0.000229485
0.000255404
0.000268122
0.000267142
0.000260563
0.000246634
0.000219143
9.6002e-05
0.000432463
0.000444625
0.000597875
0.000270609
0.000204651
0.000374144
0.000186468
0.000334213
0.000383181
0.000332352
0.000182061
0.000371042
0.000217717
0.000354427
0.000283711
0.000230631
0.000310614
0.000295131
0.000346432
0.000247703
0.000255491
0.000296674
0.000289802
0.000273743
0.000256946
0.00027496
0.000267815
0.000279054
0.000291243
0.000296575
0.000280061
0.000246164
0.000266487
0.000216553
0.000247641
0.00028054
0.000212082
0.000241623
0.000243556
0.000249358
0.000220029
0.000295639
0.000267155
0.000294649
0.000262693
0.000278563
0.00010346
0.000347184
0.0001105
0.000706756
0.000961412
5.12419e-05
0.000140859
0.000361635
0.000745889
0.000247872
8.34789e-05
8.19253e-05
0.000127625
6.03152e-05
0.000389122
0.00032827
0.000294866
7.39466e-05
0.000593239
0.000208414
0.000208263
0.00028015
0.000173785
8.51194e-05
0
0.00125083
0.00057432
0.000136617
0.000466264
0.000509833
0.000631412
0.000582528
0.000513121
0.000191457
0.000507235
0.000478384
0.000585026
0.000357646
0.000478516
0.000470283
0.000425837
0.000357997
0.000303395
0.000315568
0.000432757
0.000239372
0.000306648
0.000303907
0.000320491
0.000239834
0.00023701
0
0
0.00100514
0
0.0010465
0.00168515
0.000416984
0.000662331
0.000580173
0.000330771
0.00053696
0.000190247
0.000228511
0.000488036
0.000362422
0.000547426
0.000459825
0.000457276
0.000636128
0.000713449
0.000238462
0.000266986
0.000231119
0.000248275
0.000234273
0.000253168
0.000236117
0.000258132
0.000259861
0.000253585
0.000276589
0.000240634
0.000273011
0.000280801
0.000296956
0.000311031
0.00030252
0.000320657
0.000317893
0.000300538
0.000303159
0.000300659
0.000303034
0.000308436
0.000296403
0.000236149
0.000288315
0.000271096
0.000249489
0.000250604
0.000258177
0.000187021
0.000302791
0.000308693
0.000304801
0.000340547
0.000345712
0.000328733
0.000339527
0.000353612
0.000366412
0.000290374
0.000121974
0.000317731
0.000461387
0.000321945
0.000136112
0.000123905
0.000249056
0.000283311
0.000165
0.000240237
0.000217657
0.000292945
0.0001752
0.000277223
0.00027712
0.000201908
0.00026412
0.000272798
0.000289052
0.000284569
0.000259643
0.000288769
0.000276027
0.000293512
0.000283267
0.000292235
0.000313899
0.000263954
0.0002826
0.000234642
0.000204981
0.000184081
0.000250183
0.000222199
0.000267491
0.000256488
0.000273639
0.000267778
0.000246447
0.000317374
0.000293215
0.000270489
0.000298083
0.000292223
0.000320118
0.00036109
0.000337102
0.000316619
0.000277139
0.000338846
0.000347296
0.000322681
0.000377538
0.000359692
0.000349193
0.000340311
0.000282593
0.000308263
0.000410175
0.00068879
0.000256415
0.000468117
0.000170313
0.000497258
0.000122088
0.000325617
0.000293024
0.000227429
0.000350427
0.000304816
7.86509e-06
0.000473861
0.000241623
0.000514956
0.000344894
0.000565599
0.000237921
1.06933e-05
0.000336827
7.02119e-05
0.000424577
0.000441771
0
0
0
0
0
0
1.81522e-05
0.000370863
0.000134311
0.000259113
0.000463833
0.000685474
0.000477664
0.000541197
0.000535528
0.000398528
0.000170069
0.000490715
0.000344237
0.000590764
0.000309127
0.000453433
0.00037697
0.000413648
0.000215995
0.000295936
0.000215023
0.000307099
0.000270285
0.000236259
0.000213398
0.000235748
0
5.79288e-11
1.02057e-10
0
0
0
0
6.52788e-11
1.14176e-10
9.66987e-11
0
0
0
0
0
0
0
0
0
0
0.00136716
7.51698e-05
0.00138479
9.95672e-05
0.000240971
0.000551098
0.000345425
0.000402499
0.00013493
0.000376205
0.000580136
0.00016338
0.0004067
0.00043412
0.00051628
0.00045055
0.000324808
0.000662106
0.000231146
0.000225261
0.000221313
0.000225401
0.000252184
0.000222633
0.000236085
0.000253163
0.000279275
0.000217167
0.000192653
0.000293191
0.0002842
0.000313399
0.000329659
0.000272007
0.000300012
0.0002924
0.000327242
0.00036648
0.000178749
0.00033882
0.000313406
0.000207644
0.000268082
0.000223849
0.000235801
0.000255715
0.000212537
0.000221744
0.000242738
0.000332871
0.000350948
0.000351353
0.000291896
0.000342451
0.000346364
0.00026375
0.00026755
0.00034366
0.000346727
0.000342565
0.000319401
0.000344652
0.000338735
0.000373858
0.000464309
0.000124376
0.000214516
0.000170002
0.000256645
0.00017891
0.000100334
0.00018399
0.000121401
0.000111088
0.000167881
0.000216518
0.000131765
0.000176024
0.000229372
0.000231215
0.000181427
0.000244609
0.000242236
0.000205012
0.0002688
0.000273385
0.000305914
0.000310202
0.000279429
0.00028283
0.000285846
0.000291427
0.000305268
0.000292095
0.000294684
0.000245812
0.000226731
0.000175222
0.000229011
0.000242537
0.000186044
0.00025324
0.000223105
0.000263849
0.000275687
0.000253457
0.000252222
0.000284653
0.00032476
0.000306656
0.00027637
0.000316371
0.000277562
0.000328251
0.000371348
0.000286989
0.000337778
0.000350689
0.000368244
0.000347155
0.000306792
0.000270407
0.00035303
0.000274269
0.000109143
0.000145766
0.000331305
0.000294494
0.000591614
0.000335231
9.1192e-05
0.000360041
7.81446e-05
0.000515853
0.00023921
0.000118826
0.000146743
0.000358012
0.000173395
0.0005276
0.000239976
0.000490585
0.000479497
0.000412061
0.000506815
6.70541e-05
0.00012498
0.000289859
0.000158539
0.00024858
0.000349612
0
0
0
0
0
0
0.000219082
0
0
7.6961e-07
0
0
0
0
0
0
0
0
0
0
1.38985e-09
0
0
1.27251e-09
4.02434e-10
2.62146e-09
0
0
0
0
0
0
0
0
0
0
0
0
0
0
0.000559677
0.000488937
0.00054319
0.000456089
0.000450242
0.000505928
0.000392239
0.000331846
0.000315815
0.000469295
0.000476093
0.000211561
0.000284546
0.000320438
0.000255086
0.000250907
0.000123175
0.000204551
0.000186913
0.000241244
0.00021733
0.000195879
0
0
0
0
0
0
0
0
0
0
0
0
0
0
0
0
0
0
0
0
0
0
0
0
0
0
0
0
0
0.000127242
0.00138339
0.000357101
0.00101072
0.00044833
0.000199875
0.000373205
0.000322705
0.000273029
0.000122138
0.000419003
0.000162066
0.000473512
0.000482086
0.000290293
0.00034493
0.000377945
0.00053148
0.000343453
7.23358e-10
0
0
0
0
0
0
0
0
0
0
0
0
0
0
0
0
0.000204574
0.000208128
0.000218291
0.000211099
0.000222303
0.000231823
0.000232616
0.000200885
0.000256964
0.000155483
0.000178755
0.00023349
0.00029438
0.000280385
0.000266711
0.000284249
0.000312785
0.000353116
0.000352002
0.000353495
0.000296312
0.000206622
0.000225035
0.000286471
0.00022296
0.000188808
0.000215858
0.000217173
0.000200075
0.00020504
0.000211791
0.000273339
0.000264243
0.000338038
0.000263649
0.00033402
0.000281547
0.000330939
0.000305397
0.000262745
0.000282775
0.000298832
0.000351271
0.000290941
0.000336515
0.000282957
0.000348778
0.000333081
0.000328935
0.000352261
0.000333435
0.00032955
0.000109166
0.000273357
5.31685e-05
9.33307e-05
0.000256708
0.000282338
0.000119555
0.000125734
0.000204538
1.59641e-05
0.000206798
5.41674e-05
0.000172183
0.000129178
0.000169534
0.000120435
0.000163823
0.000202643
0.000253708
0.000260691
0.000283714
0.000324141
0.000338108
0.000246416
0.000258124
0.000298362
0.000281591
0.000289069
0.000294831
0.000278928
0.000250252
0.000246935
0.000179332
0.000219237
0.000231086
0.000166447
0.000190832
0.000253732
0.000214292
0.000250849
0.000273352
0.000276089
0.000250585
0.000241007
0.000296296
0.000312027
0.00030788
0.000305695
0.000283116
0.000309415
0.000339389
0.000371106
0.000305163
0.000339838
0.000335528
0.000347903
0.000300213
0.000332299
0.000274946
0.000330317
0.000322756
0.00024959
0.000278986
0.000262907
0.000300354
0.000264151
0.000247041
0.000259487
0.000243288
0.000280295
0.000204303
0.000247294
0.000220037
0.000277381
0.000239529
0.000206751
0.000209466
0.000223388
0.000313334
0.000271532
0.00022917
0.00029697
0.000365771
0.000259209
0.000280397
0.00031874
0.000341875
0.000320666
0.000334553
0.00030113
0.000319588
0.000381088
0.000373046
0.000386403
0.000396497
0.000386905
0.000275657
0.000397803
0.000309505
0.000421344
0.000407569
0.000208765
0.000227724
0.000293564
0.000189226
0.000274183
0.000162108
7.94654e-05
0.000156819
0.000127497
0.000177579
0.000118518
0.000289185
0.00032655
0.000243295
0.000244642
0.00039294
0.000238103
0.000152782
0.000609483
0.000435082
0.000525993
0.000170454
0.000412322
0.000101959
0
0.000422507
0.000224741
0.000497504
0.000532032
0
0
0
0
0
3.48454e-09
0
0
0
0
0
0
0
0
3.65099e-09
0
0
0
0
0
0
0
0
0
0
0
0
0
0
0
0
3.841e-10
0
0
0
0
0
0
4.31974e-10
0
7.44981e-10
3.86352e-10
0
0
2.50832e-09
7.81408e-10
0
0
0
0
0
0
0
0
0
0
0
0
0
0
0
0
0
0
0
0
0.000482226
0.000518942
0.000640201
0.000388697
0.000465247
0.000478153
0.000537412
0.000272197
0.00035012
0.000438008
0.000312261
0.000252367
0.000252652
0.000214859
0.000186746
0.000191946
0.000183162
0.000170823
0.000226583
0.000162022
0.000106492
0.000184636
0
0
9.70476e-10
8.03132e-10
0
0
0
0
1.87714e-09
0
0
0
0
0
0
0
0
0
0
0
0
0
2.03119e-08
8.22765e-07
0.000220985
6.74717e-07
0.000506333
0.00101235
0.000374949
0.000816121
0.000243583
0.000197721
0.000162023
0.000175584
0.000167832
0.000417561
0.000434728
0.000190252
0.000588055
0.000164189
0.000427793
0.000519664
0.000413902
0.000553288
6.64762e-10
0
0
0
0
2.3696e-11
0
0
1.02782e-11
0
0
0
0
0
0
0
0
0
0
0
0
0
0
0
4.99046e-07
6.61677e-07
0.000166778
0.000186192
0.000194424
0.000178797
0.000188185
0.000155395
0.000128625
0.000161841
0.000180105
0.00014497
0.000200648
0.000147422
0.000283156
0.000247242
0.000311447
0.000319656
0.000342985
0.00034164
0.000353297
0.000334273
0.000191763
0.000259604
0.000260654
0.000213252
0.000214954
0.000167705
0.000179119
0.000153393
0.000180887
0.000218789
0.000249605
0.000165682
0.000284918
0.000264645
0.000273798
0.000304106
0.000275582
0.000294234
0.000293782
0.000262424
0.000211331
0.000292083
0.000296447
0.00022182
0.000332218
0.000210241
0.000262265
0.000323998
0.000327358
0.000269606
0.000427256
0.000342114
0.000361887
0.000360035
0.000377014
0.000434375
0.000295152
0.000334103
0.000347149
0.000379981
0.000346691
0.000328972
0.000295126
0.000352323
0.000298523
0.000294348
0.000352965
0.000343531
0.000328549
0.000392707
0.000344769
0.000358394
0.000206243
0.000156659
0.000189784
0.000111377
0.000154875
1.25726e-05
8.21464e-05
0.000233537
0.000209649
9.74662e-05
7.33169e-05
0.000101499
9.38752e-05
9.45647e-05
0.000106843
7.44261e-05
0.000160327
0.000222169
0.000207867
0.000304849
0.000156609
0.000327049
0.000293566
0.000178052
0.000268721
0.00022087
0.000255359
0.000256982
0.000236954
0.000245374
0.000193293
0.000196811
0.000196072
0.0001615
0.000175389
0.000250591
0.000286582
0.000196048
0.000199115
0.000277465
0.000275616
0.000271582
0.000252159
0.000224793
0.000293129
0.00030981
0.000303788
0.000276574
0.000299327
0.000291791
0.000331914
0.000347244
0.000324338
0.000314254
0.000327895
0.00031514
0.000314957
0.000292503
0.000248565
0.000286106
0.000217841
0.000311142
0.000214977
0.000243042
0.00030724
0.000156862
0.000166272
0.000200729
0.000214402
0.000218004
0.000293942
0.000275921
0.000308501
0.000287974
0.000279762
0.000277634
0.000384906
0.000340233
0.000526986
0.000264716
0.000590295
0.000197856
0.000392638
0.00040733
0.000374179
0.000267969
0.000307559
0.000265418
0.000335059
0.000316974
0.000259414
0.000212581
0.000311279
0.000157539
0.000223213
0.000195062
0.000169987
0.000348588
0.000300244
0.000197188
0.000253566
0.000122555
0.000176558
0.000240366
0.00019872
0.000250562
0.000279784
0.000330899
0.000154451
0.000218615
0.000228194
0.000532457
0.000786017
0.000360033
0.000476471
0.000356088
0.000182498
0.000247264
0
0
4.22019e-06
0.000150384
0.000420702
0.000138549
0
0
0
4.09819e-09
0
0
0
0
0
0
0
5.1611e-09
0
0
0
0
0
0
0
0
1.96708e-11
0
0
0
0
0
0
0
0
0
0
0
0
0
0
3.94601e-10
0
0
0
0
0
0
0
0
0
0
0
0
0
0
0
0
0
0
0.000395423
0.000372198
0.000368026
0.000338191
0.000421835
0.000444799
0.000321978
0.000341137
0.000251017
0.000376317
0.000249842
0.000266615
7.75382e-05
0.000168204
0.00015755
0.00015925
0.00011207
0.00014729
0.000143993
0.00014734
0.0001474
0.000111385
4.91929e-10
0
2.41224e-10
0
0
0
0
0
0
0
0
0
0
0
0
0
0
0
0
0
0
0
9.77291e-06
0
0.000132987
0.000387999
0.000561474
0.00082322
0.000347289
0.000694111
0.000233303
0.000448072
0.000235346
0.000318871
0.000310237
0.000193091
6.73784e-05
0.000466719
0.000213397
0.000325085
0.000365123
0.000126359
0.000556687
0.000266698
0
0
0
0
0
0
0
0
0
0
0
0
0
0
0
0
0
0
0
0
0
0
4.03666e-07
0
0
0
0
0
0
0
0
0.000123184
0.000142445
8.53853e-05
0.000165845
0.000125757
6.05216e-05
8.02096e-05
0.00011184
7.67479e-05
0.000120304
6.47371e-05
0.000134628
7.70226e-05
0.000113024
0.000160178
0.000289963
0.000282441
0.000342975
0.000319581
0.000334616
0.000341853
0.000354454
0.000353847
0.000248412
0.000192896
0.000258584
0.000273429
0.000124995
9.13382e-05
0.000153048
0.000147466
0.000186881
0.000119881
0.000154488
0.000218503
0.00033593
0.000189389
0.000149729
0.000277594
0.000153058
0.000176062
0.000191824
0.000123316
6.72402e-05
0.000103914
8.73229e-05
0.000117551
3.40208e-05
2.95142e-05
0.000273598
0.000285691
0.000331296
0.000293867
0.00023622
0.0002324
0.000305866
0.000285226
0.000226592
0.000340212
0.00028701
0.000304226
0.000226527
0.000249795
0.000279393
0.000264645
0.000313349
0.000378516
0.000305942
0.000248028
0.000351238
0.000284399
0.000233693
0.000273556
0.000255633
0.0002555
0.000267173
0.000285937
0.000232469
0.000200299
0.00036789
0.000217414
0.00035977
0.000192649
0.000317908
0.000311287
0.00037348
0.000380222
0.000381649
0.00035512
0.000419311
0.00040748
0.000460556
0.000412538
0.000449424
0.000354522
0.000405469
0.000355319
0.00031169
0.000288222
0.000348552
0.000382944
0.000398027
0.00033065
0.000286885
0.000277143
0.000346195
0.000361509
0.000351087
0.000367404
0.000278373
0.00025162
0.000205562
0.000198225
0.000270008
0.00024468
0.000212429
0.000232327
0.000186163
0.000200927
0.000144378
0.000117614
8.57253e-05
3.8279e-05
7.91704e-05
0.000100898
0.000131058
0.000158511
0.000120204
0.000160712
0.000137534
0.000179891
0.000211509
9.13824e-05
0.00022785
0.000118828
7.58848e-05
6.33278e-05
8.17394e-05
1.15394e-05
5.81937e-05
5.38339e-05
9.14906e-05
0.000127896
0.000220075
9.0559e-05
0.000130644
0.000268116
7.69105e-05
0.000282938
0.000155733
0.000240635
0.000209173
0.000173408
0.00024123
0.000204036
0.000171313
0.000192841
0.000172426
0.000141853
0.000168579
0.000186587
0.000256959
0.000184599
0.000292205
0.000200633
0.00029879
0.000194737
0.000261541
0.000251321
0.000193385
0.0002693
0.000257392
0.000296344
0.000278198
0.000249468
0.000285826
0.000282215
0.000315647
0.000307899
0.000292838
0.000283787
0.000257072
0.000319034
0.000278909
0.000262969
0.000193416
0.000249118
0.000181186
0.00025973
0.000381063
0.000130313
0.000101344
0.00018463
0.000152402
0.000191687
0.000219294
0.000245425
0.000302151
0.000294669
0.000337446
0.000316718
0.000333112
0.000296131
0.000468795
0.000214482
0.00049574
0.000621616
0.000587575
0.000577684
0.000125852
0.000493079
0.000309898
0.00038209
0.000214455
0.000250488
0.000138618
0.00042198
0.000201801
0.000408011
0.000345589
7.93395e-05
0.0003508
0.000274293
0.000321341
0.000210163
0.000193286
6.68014e-05
0.000819975
0.000730252
0.000272093
0.000120709
0.000711502
0.00074125
0.000607827
0.000500875
0.000515761
0.000220451
0
0
0
3.81313e-08
3.4327e-08
0.000173322
5.48179e-06
0.000763541
0.000764805
0
0
0
0
0
0
0
0
3.25436e-08
0
0
0
0
0
0
0
0
2.67208e-07
0
0
0
0
0
0
0
0
0
0
0
0
2.95796e-10
0
0
0
0
2.87103e-09
0
0
0
0
0
0
0
0
0
0
0
0
0
0
0
0
0
0
0
2.22662e-09
0
0
0
0
2.47244e-09
0.000237866
0.00011372
0.000219255
0.000181161
0.000269942
0.00022037
0.000246878
0.000253435
0.000384845
0.000387974
0.000335271
0.000157265
0.000348052
0.000255009
0.000156697
0.000159632
0.000177811
0.000183323
5.79931e-05
0.00013207
0.000103959
0.000101819
8.00635e-05
0.000106548
8.68864e-05
0
0
0
0
0
0
0
0
0
0
0
0
0
0.000514308
0.000539938
0.000725563
0
0
0
0
0
0
0
0
0.000159334
2.97004e-05
0.000213671
0.000700499
0.000352338
0.000317577
0.000214263
0.000226443
0.000417969
0.000475463
0.00027434
0.000378743
0.000279824
0.000280985
0.000163977
0.000374668
0.00019992
0.000415564
3.63685e-05
0
2.78044e-10
0
0
0
0
0
0
0
0
0
0
0
0
0
0
0
0
0
0
0
0
0
0
0
0
0
0
0
0
0
0
0
0
0
0
0
3.28996e-05
3.56249e-05
6.01896e-05
0.000133771
6.13702e-05
0.000131553
5.0325e-05
6.29855e-05
2.18528e-05
3.51939e-05
5.63235e-05
7.04612e-05
8.81774e-05
6.19622e-05
0.000104197
9.90329e-05
8.61099e-05
0.000286334
0.000295219
0.000304181
0.000310712
0.000321536
0.000321238
0.000367141
0.000328843
0.000240738
0.000208238
0.000221412
0.000234748
0.000110254
0.000106702
7.55008e-05
0.000137081
0.000151179
9.25281e-05
0.000155187
0.000134136
0.000285021
0.000240928
0.000251466
0.000152307
7.4518e-05
0.000209228
0.000306696
0.000236879
0.000342312
0.000276297
0.000315961
0.000330596
0.000243391
0.000263772
0.000324732
0.000318055
0.00033916
0.000299049
0.000302101
0.000328755
0.000363763
0.000360876
0.000277207
0.000218978
0.000230678
0.000284601
0.000268002
0.000248392
0.000227273
0.000270389
0.000195241
0.000325339
0.000425402
0.000220707
0.000241334
0.000369186
0.00042459
0.000400513
0.000283398
0.000362145
0.00033692
0.000406973
0.00049142
0.000425154
0.000451358
0.000426605
0.000406426
0.000503933
0.000428946
0.000337738
0.000271514
0.000511429
0.000476712
0.000433174
0.000387266
0.000357548
0.000310011
0.000412335
0.000349312
0.000293367
0.000303053
0.00040857
0.000398622
0.000379199
0.000375858
0.000178359
0.000383235
0.000259431
0.000231522
0.000229936
0.000187308
0.00014803
0.000177197
0.000122916
0.000101867
0.000160691
0.000103564
3.94354e-05
0.00013079
4.16858e-05
0.00015854
0.000210005
0.000291515
0.000289133
0.000160544
0.000167254
0.000126889
0.000310817
0.000301941
0.000388075
5.7306e-05
1.83358e-05
1.63326e-05
6.46083e-05
0.00015371
5.50058e-05
4.78774e-05
7.01229e-05
0.000123144
7.77872e-05
2.48392e-05
8.77458e-05
7.06477e-05
6.69096e-05
0.000182295
6.77389e-05
8.97127e-05
0.000190614
0.000116218
0.000191704
8.3522e-05
0.000265991
0.000256262
9.36523e-05
0.000223213
0.000175527
0.000122822
0.00020474
0.000121031
0.000183409
0.000108197
0.000166454
0.000173934
0.000175162
0.000238942
0.000187112
0.000209327
0.000262579
0.000211699
0.000248469
0.000279104
0.000240639
0.000314489
0.000191281
0.000262899
0.000243206
0.000251699
0.00022657
0.000249693
0.000263497
0.000292336
0.000250584
0.000253712
0.000248118
0.000289487
0.000209841
0.000307106
0.000107924
0.00030145
0.000295522
0.000301519
4.01336e-05
0.000166755
5.26049e-05
0.000158499
0.000239423
0.000175871
0.000297693
0.000314848
0.000302908
0.000308408
0.000365379
0.000327784
0.000303043
0.000330427
0.000491228
0.000558486
0.000750081
0.000285082
0.000616937
0.000684207
0.000517359
0
0.000321135
0
0.000318401
0.00047351
0.000205958
0.000314226
0.000421357
0.000318948
0.000280967
0.000131942
0.000145277
0.000181358
0.000127708
0.000273862
0.00015977
0.000183946
0
0
1.33451e-06
0.000235497
0.000224155
0
3.26643e-06
0
1.06496e-09
0
0
3.15873e-08
3.9211e-08
0
0
0
0
0
0
0
0
0
0
0
0
3.18107e-07
0
0
0
0
0
0
0
0
4.16941e-07
0
0
0
0
1.2601e-09
0
0
0
0
0
0
0
3.73574e-10
1.04586e-09
0
0
2.26996e-09
1.2799e-09
0
0
0
0
2.98523e-09
0
3.93508e-09
0
0
0
0
0
0
0
0
0
0
0
0
0
0
0
0
0
1.38766e-09
0
0
0
0
0
0
0
0
0.000263095
0.000208795
0.000412626
0.000203858
0.000215319
0.000312397
0.000317999
0.000418578
0.000342512
0.000139346
0.000390901
0.000254571
0.000132747
0.00018733
0.000134303
0.000234635
0.000162439
0.000124074
0.000227085
5.27435e-05
0.000109745
2.78481e-05
8.97771e-05
0.000112274
3.37612e-05
4.83556e-05
5.09294e-05
0
0
0
0
0
0
0
0.000540306
0.000690909
0.000507163
0
0
0
0
0.000419903
0.000214412
0
0
0
1.42632e-11
0
0
6.56766e-05
3.70132e-05
5.32924e-05
0.000182904
0.000416227
0.000430199
0.000692084
0.000388307
0.000282745
0.000314578
0.000230339
0.000231027
0.000332672
0.000364917
0.000298759
0.000391609
0.000358079
0.000168132
0.000268635
0
0
2.62742e-10
0
0
0
0
7.1203e-11
0
0
0
0
0
0
0
1.88979e-09
0
8.71809e-10
1.44416e-09
0
0
0
0
0
0
0
0
0
0
0
1.95101e-09
0
0
0
0
0
0
0
0
0
0
0
0
0
7.26471e-10
2.08632e-05
3.19591e-05
5.03426e-05
4.72949e-05
6.49946e-05
0.000104685
7.74554e-05
5.19237e-05
5.9193e-05
4.0405e-05
3.51107e-05
1.43893e-05
5.52472e-05
6.0504e-05
5.76675e-05
4.66229e-05
5.17525e-05
2.69759e-05
8.98406e-05
0.000252687
0.000241656
0.000268199
0.00024963
0.000286876
0.000295533
0.000312503
0.000344774
0.000161963
0.000143981
0.000163602
0.000183843
6.45248e-05
9.43658e-05
8.27087e-05
0.000114878
0.000146462
6.58671e-05
0.000131242
0.000152909
0.000215942
0.000264061
0.000234174
0.000188789
0.000165565
0.000252828
0.000604134
0.000398084
0.000748296
0.000172408
0.000496972
0.000286521
0.000287186
0.000212638
0.000329811
0.000374956
0.000307065
0.000335824
0.000254671
0.000312218
0.000224589
0.000168003
0.000403457
0.0003044
0.000422261
0.000335838
0.000296401
0.000339745
0.00024164
0.0002146
0.000235464
0.000282206
0.000282068
0.000297169
0.000238098
0.000274626
0.000243644
0.000279385
0.000269057
0.000194268
0.000361654
0.000412673
0.000344803
0.000305034
0.000414891
0.000403113
0.000431564
0.000368407
0.000448377
0.000591509
0.000468165
0.00055393
0.000158603
0.000378683
0.000387228
0.000408822
0.000439652
0.000234211
0.000416271
0.000465912
0.000371552
0.000357047
0.000413273
0.000453884
0.000361253
0.000352049
0.000443874
0.000484538
0.000433476
0.000363551
0.000627335
0.00036811
0.000347005
0.000207531
0.000320467
0.000140107
0.000210447
0.000176023
0.000115713
4.89144e-05
0.000107695
8.43475e-05
2.46665e-05
4.73344e-05
6.19194e-05
0.000159379
0.000201225
0.000322516
0.00026782
0.000345437
0.000376835
4.75096e-05
6.19863e-05
0.000448004
0.000482276
0.000157785
3.18439e-05
0.000229176
0.000106166
0.000136182
5.85968e-05
4.76389e-05
4.84599e-05
8.19856e-05
7.56946e-05
2.11261e-05
8.61733e-05
0.000189231
7.79857e-05
2.50026e-05
0.000126936
0.000230468
0.000100602
0.000181749
4.81896e-05
0.000123104
0.000189896
0.000183669
0.000135388
0.000163528
0.000169917
0.000231855
0.000246229
0.000195266
0.000139068
0.000126347
0.000164793
0.000177906
0.000158734
0.0001925
0.000197891
0.000248589
0.000186867
0.00024974
0.000170385
0.000297841
0.000188293
0.000304416
0.000331377
0.000235014
0.000205838
0.000152137
0.000253229
0.000199938
0.000233582
0.000283353
0.000187574
0.000217667
0.000197791
0.000125361
0.000209352
0.000197966
2.315e-05
0.000199377
4.25391e-05
6.58582e-05
7.13976e-05
0.000121269
0.000178606
0.000217187
0.000274966
0.000336358
0.000340923
0.000349462
0.000341564
0.000406487
0.000290494
0.000359851
0.000408867
0.000249482
0.000526237
0.000939055
0.000558307
0.000331641
0
0
5.30151e-06
0
0
0.000311212
0
0.000145645
2.18853e-05
0.000494344
0.00013484
0.000139192
0.000112618
2.56953e-06
0.000110365
3.84324e-05
0.000118467
0.000102494
1.45201e-05
3.95936e-06
4.1082e-07
0
0
0
0
3.60444e-09
1.59689e-09
0
0
0
0
0
0
0
0
1.72933e-07
0
0
0
0
0
0
7.69284e-07
0
0
0
0
0
0
0
0
0
0
0
0
0
0
0
0
0
0
0
0
0
0
0
0
0
0
0
0
0
0
0
0
0
0
0
0
0
0
0
0
0
0
0
0
0
0
0
0
0
0
0
0
0
0
0
0
0
0
0
0
0
0
0
0
0
0
0
0
0
1.92325e-11
0
0
0
0
0.00042565
0.000490317
0.000527456
0.000574473
0.000359724
0.000454695
0.000205589
0.000279216
0.000247728
0.000242521
0.000287364
0.000487568
0.000134204
0.000172579
0.00044319
0.000182544
0.000173245
0.000234905
3.95464e-05
0.000334612
9.04715e-05
0.000317959
3.53006e-05
0.000276314
4.6353e-05
7.52905e-05
0.000100693
5.47229e-05
6.89388e-05
0
0
0
0
0.000516316
0.000630333
0.000539381
0
0
0.000367782
0.000297826
0
0
0
0
6.73177e-05
0.000165064
2.34671e-09
7.29197e-10
0
1.36096e-09
7.41069e-05
0
4.13147e-05
0.000341148
0.000356834
0.000472767
0.000410157
0.000296202
0.000724707
0.000320637
0.000366003
0.000324954
6.39802e-05
0.000475962
0.000372408
0.00016825
0.000395809
0.00026327
0.000212366
0
7.94469e-10
0
0
0
0
0
1.82898e-11
0
0
4.79691e-11
0
0
0
1.86288e-10
0
0
0
0
0
0
0
0
0
0
0
0
0
0
0
0
0
0
0
0
0
1.46703e-09
0
2.0804e-09
0
0
0
0
0
0
0
0
0
0
0
0
0
0
0
0
0
0
2.59472e-05
5.23501e-05
6.32616e-05
4.71867e-05
4.52814e-05
2.94949e-05
1.47091e-05
3.28705e-05
7.28691e-05
3.53373e-05
9.45048e-06
5.81401e-05
1.88803e-05
2.89234e-05
4.76986e-05
4.19606e-05
8.78211e-05
2.97928e-05
2.77113e-05
4.07868e-05
6.01252e-05
0.000248004
0.000266854
0.000276534
0.000221567
0.00017938
0.000192992
0.000222587
0.000262919
8.32463e-05
0.000138479
0.000132756
0.000103965
0.000112366
3.90957e-05
3.82828e-05
0.000107439
5.21761e-05
6.01861e-06
0.000113186
8.37709e-05
0.000689453
0.000358099
0.00024756
0.00042967
0.00115066
0.00059241
0.000123416
0.000494808
0.000587917
0.000566287
0.000367898
0.000134194
0.00017265
0.000330537
0.000406139
0.000276431
0.000334395
0.000253408
0.000311568
0.000492464
0.000234522
0.000331419
0.000349619
0.000402368
0.000441396
0.000333438
0.000485883
0.000246198
0.000212513
0.000282125
0.000313481
0.000386304
0.000359906
0.000300042
0.000284267
0.00022468
0.000287468
0.000144492
0.000212308
0.000305667
0.000328703
0.00021712
0.000306876
0.000332117
0.000491999
0.000485818
0.000398012
0.000386492
0.000422097
0.000627621
0.000744588
0.000699921
0.000792319
0.00048127
0.000284836
0.000652808
0.000357165
0.000514269
0.00048934
0.000442504
0.000433954
0.000521195
0.000538755
0.000447411
0.000467468
0.000546854
0.000478978
0.000361781
0.000292175
0.000223833
0.000220835
0.000224252
0.000341683
0.000544382
0.000229843
0.000340425
0.000130783
0.000165183
0.000309238
0.00024969
7.90143e-05
6.85711e-05
7.32036e-05
5.56397e-05
0.000127881
5.03434e-05
0.000189007
9.80552e-05
0.00027181
0.000286305
0.000403585
0.000446262
0.000450465
0.000483365
0.000118275
4.78935e-05
0.000545758
0.000562599
0
2.41213e-05
0
9.32201e-05
3.69235e-05
8.85614e-05
9.82016e-05
0.000113931
3.61323e-05
3.06649e-05
0
0
0
6.75311e-05
7.94882e-05
4.6272e-05
3.98121e-05
0.000194114
0.000129077
0.000224824
0.000114873
0.000218066
0.000136867
9.44592e-05
0.000215324
0.000178277
0.000137584
0.000182697
0.000157222
0.00016984
0.000137286
0.000156995
0.000216751
0.000160381
0.000261649
0.000146181
9.58766e-05
0.000290618
8.7731e-05
0.000228082
0.000304855
0.000144223
0.000158311
0.000250849
0.000219915
0.000132687
9.98615e-05
0.000219171
0.00013414
0.000190516
9.3049e-05
0.000181731
9.99529e-05
0.000139006
0.000138181
0.000153238
0.000115213
6.69185e-05
0.000107534
3.68485e-05
9.09942e-05
0.000133645
0.000192341
0.000249749
0.000318981
0.000276657
0.000313578
0.00037599
0.000378372
0.000362366
0.000405085
0.000308851
0.00036618
0.00016363
0.000237356
0.000117927
0.000172102
0.000379058
0
0
0
0
0
0
0
0
0
6.72928e-05
9.38385e-05
0
0
0.000179968
0.000109955
6.91791e-05
0.000224965
0.000106331
8.52218e-05
4.36992e-06
0
0
0
0
0
0
0
0
0
0
0
0
0
0
0
1.06533e-07
0
0
0
5.71868e-07
0
0
0
0
0
0
0
0
0
0
0
0
0
0
0
0
0
0
4.68134e-07
0
0
0
0
0
7.10345e-10
7.70803e-10
1.42686e-09
0
0
0
0
0
0
0
0
0
0
0
0
0
0
0
0
0
0
0
0
0
0
0
0
0
0
0
0
0
0
0
0
0
0
0
0
0
0
0
0
0
2.90735e-09
0
6.75586e-10
0
2.46338e-09
0
0
0
0.000596234
0.000661303
0.000650355
0.000561247
0.000614122
0.000470248
0.000505684
0.000174727
0.000192527
0.000321259
0.000177538
0.000230833
0.000434144
0.000418068
0.000442079
0.000361013
0.000402016
0.000314587
0.000363039
0.000190276
3.80677e-05
0.00015868
0.000380102
0.000264283
0.000119827
0.000384761
6.86003e-05
0.000224141
0.000128375
3.22267e-05
1.99426e-05
9.61823e-05
7.42342e-05
0
0
0.000629909
0.000651716
0.000538814
0
0
0.000308132
0.000304816
0
0
0.000117061
0.000147295
0
0
0
0
5.84349e-05
3.03592e-05
0
2.23113e-09
0
0
4.43357e-07
0.000310541
0.000459873
0.000390556
0.000261721
0.000393104
0.000740998
0.000510669
0.000377582
0.000261755
0.000340706
0.000489677
0.00022074
0.000421232
0
0
0
0
0
0
4.1962e-09
1.83396e-09
0
0
0
0
0
0
0
0
0
9.35578e-09
0
0
0
0
0
0
0
6.04562e-10
0
0
3.22637e-09
0
0
0
0
0
0
0
0
0
0
0
0
0
0
0
0
0
0
0
0
0
0
2.1439e-09
0
0
0
0
0
0
0
0
0
0
0
5.75444e-05
5.9198e-05
1.29821e-05
5.62031e-05
3.49145e-05
2.98071e-05
2.06059e-05
4.92671e-05
2.98468e-05
9.86476e-05
4.00775e-05
6.04977e-05
2.64818e-05