/*--------------------------------*- C++ -*----------------------------------*\
  =========                 |
  \\      /  F ield         | OpenFOAM: The Open Source CFD Toolbox
   \\    /   O peration     | Website:  https://openfoam.org
    \\  /    A nd           | Version:  8
     \\/     M anipulation  |
\*---------------------------------------------------------------------------*/
FoamFile
{
    version     2.0;
    format      ascii;
    class       volScalarField;
    location    "16500";
    object      H;
}
// * * * * * * * * * * * * * * * * * * * * * * * * * * * * * * * * * * * * * //

dimensions      [0 1 0 0 0 0 0];

internalField   nonuniform List<scalar> 
526318
(
1.26624
1.24507
1.31964
1.22621
1.29934
1.24527
1.27751
1.17334
1.23959
1.12114
1.09785
1.24736
1.17478
1.22579
1.1666
1.19005
1.16941
1.37276
1.29177
1.32517
1.32807
1.26746
1.03692
1.26693
1.16296
1.04227
1.29622
1.30773
1.2932
1.31467
1.32559
1.39049
1.36976
1.25934
1.25993
1.18952
1.226
1.31723
1.25204
1.17002
1.26448
1.20234
0.876244
0.929489
0.841011
0.89537
0.8662
0.996486
1.16063
1.094
1.16974
1.13821
1.11599
1.06429
0.568904
0.809341
0.811997
0.604021
1.33227
1.33158
1.34874
1.31639
1.26713
1.37803
1.38358
1.33115
1.33564
1.31712
1.23982
1.20915
1.33431
1.11928
1.16212
1.06313
1.01237
1.01042
1.10121
1.11119
1.00388
1.07396
1.12093
1.12953
1.08915
1.0387
1.08728
1.1663
1.14649
1.11932
1.069
1.1277
1.04057
0.996789
1.003
0.910202
0.914982
0.914925
0.926291
0.920445
0.914901
0.90803
0.362078
0.289487
0.376128
0.412885
0.479686
0.258617
0.827712
0.633036
0.951526
0.912008
0.955511
1.07382
1.29246
1.1909
1.30436
1.31044
1.38435
1.34141
1.396
0.908625
0.91242
0.912821
0.921792
0.871964
0.913168
0.827481
0.86255
0.77402
0.82697
0.778401
0.773299
0.763172
0.741276
0.730121
0.760288
0.699107
0.753731
0.70372
0.723103
0.667811
0.674409
0.696417
0.72481
0.711926
0.670031
0.667241
0.68674
0.66995
0.669418
0.676557
0.688147
0.674163
0.677509
0.679023
0.678511
0.645017
0.679531
0.680239
0.643913
0.601979
0.680871
0.629358
0.687237
1.17213
1.2619
1.21596
1.21337
1.01424
1.07833
1.00364
1.006
1.02046
0.996257
1.02891
1.00573
0.942464
0.912819
0.876233
0.822209
0.876832
0.919665
0.92291
0.917658
0.811327
0.85777
0.747038
0.760169
0.769194
0.75423
0.759108
0.75953
0.749026
0.751203
0.748345
0.738258
0.721497
0.742333
0.735019
0.708527
0.686782
0.714191
0.699955
0.691778
0.710858
0.69988
0.70334
0.665065
0.683523
0.715316
0.713525
1.15935
1.15863
1.20718
1.20023
1.15741
1.14431
1.17031
1.05373
1.06568
0.825464
0.805192
0.805917
0.920707
1.07523
0.931239
0.980858
0.96098
0.925224
0.890477
0.411481
0.213959
0.551546
0.757618
0.00772089
0.000278083
0.111904
0.242548
0.21024
0.2075
1.38265
1.34947
1.41022
1.39325
1.37861
1.37048
1.2669
1.34807
1.19836
1.14312
1.14282
1.14418
1.13513
1.14605
1.12802
1.13128
1.04783
1.11229
0.925855
0.979441
0.912488
0.926058
0.00100536
4.55059e-11
0.126178
3.41834e-32
0.402453
0.32027
0.390879
0.545319
0.926854
0.735419
0.97677
0.972084
1.07765
1.19145
1.30754
1.31548
1.36363
1.32534
1.38919
1.42573
0.88982
0.890084
0.855272
0.823059
0.721198
0.760567
0.683271
0.693807
0.683021
0.67703
0.666499
0.673968
0.600285
0.623358
0.657933
0.6954
0.747663
0.716014
0.677887
0.676798
0.612151
0.60162
0.652347
0.706068
0.631563
0.668928
0.666749
0.636371
0.631877
0.602592
0.596184
0.560312
0.559726
0.563296
0.552842
0.675381
0.710765
0.675543
0.71499
1.07562
1.04964
0.932061
1.02319
0.961669
0.982189
1.00884
0.993805
1.01486
0.999219
0.922469
0.831562
0.758722
0.744905
0.816169
0.759874
0.744776
0.860293
0.748838
0.799228
0.738513
0.740256
0.75021
0.73665
0.753807
0.745102
0.743571
0.749082
0.748159
0.745078
0.75822
0.750401
0.765745
0.760986
0.763249
0.744283
0.755737
0.740782
0.715148
0.713844
0.740212
0.7692
0.762123
0.737096
0.721176
0.746301
0.784245
0.786683
0.797432
0.759696
0.79153
0.80817
0.848162
0.798825
0.808229
0.831562
0.864636
0.979366
1.08078
0.997797
0.993847
1.1228
1.15131
1.07646
0.93405
1.01632
0.924728
0.975244
0.692127
0.646099
0.665562
0.655537
0.782121
0.894446
0.827567
0.901297
0.897226
0.918932
0.899275
0.179794
0.315357
0.48211
0.308629
0.543407
0.445288
0.000599399
0.00100998
0.000476803
0.00100962
0.000664765
0.000174439
0.000535871
0.200796
0.0849095
0.116312
1.40784
1.38787
1.41951
1.41682
1.39566
1.35307
1.29445
1.20538
1.12299
1.1647
1.14638
1.13281
1.10793
1.11392
1.08728
1.09714
1.04174
1.07753
1.00143
0.947924
0.893155
0.85147
0.000941736
0.00107164
0.00107165
0.000663073
0.000625359
0.000731205
0.000586084
0.00107165
0.00107164
0.00107165
0.00100999
0.00100984
0.000550093
0.00100942
0.000924102
0.000172183
0.000288255
0.000487392
0.000287725
0.000931086
0.362206
0.131716
0.45404
0.436047
0.628969
0.475562
0.836918
1.00231
1.00487
1.10916
1.32813
1.2151
1.32279
1.33846
1.3543
1.36897
1.40667
1.43097
0.812244
0.810112
0.765575
0.79392
0.731688
0.694723
0.684784
0.683201
0.678523
0.682709
0.636954
0.631488
0.578308
0.590637
0.65108
0.62097
0.592637
0.641256
0.635108
0.65284
0.561616
0.55057
0.572843
0.585869
0.589499
0.542658
0.550777
0.543459
0.550672
0.533004
0.530212
0.83409
0.806666
0.807165
0.809155
0.827783
0.932728
0.894071
0.873508
0.752138
0.796441
0.782731
0.78656
0.684258
0.621768
0.804308
0.915703
0.796113
0.794838
0.789827
0.8817
0.837616
0.930384
0.949349
0.881986
0.861393
0.895498
0.772884
0.74426
0.739512
0.742102
0.658291
0.708888
0.639085
0.589671
0.57403
0.691868
0.688383
0.739392
0.738174
0.736019
0.740258
0.735658
0.744876
0.737855
0.753202
0.74257
0.764911
0.756058
0.76404
0.765437
0.789027
0.774144
0.799702
0.800653
0.750555
0.734507
0.797329
0.782456
0.767871
0.787093
0.770514
0.756689
0.810227
0.785348
0.88967
0.898222
0.849649
0.891599
0.899808
0.866956
0.958091
0.92974
0.998984
1.01757
1.04274
0.953695
0.959194
0.961558
0.929593
0.878178
0.866473
0.952772
0.806141
0.806921
0.836774
0.871823
0.53724
0.594704
0.674483
0.792954
0.832824
0.854107
0.764122
0.735917
0.698324
0.637648
0.00122586
0.0760281
0.351875
0.167005
0.465688
0.542718
0.000993891
0.000234006
0.00100979
0.000545241
3.86389e-05
0.000470015
0.0227371
0.00100519
0.000437853
0.000996365
0.000766556
0.000551352
0.000138864
0.000388285
0.00097475
0.00101
0.000139761
0.000999779
0.000900134
0.000397176
0.0011642
0.000797049
0.000952195
0.00109408
0.00114448
0.00115273
0.000910194
0.000999494
0.0009727
0.000201819
9.59135e-05
0.000989075
0.000892979
0.0009482
0.00100959
0.000881287
0.00100965
0.000996543
2.65749e-05
0.000931251
1.39539
1.39821
1.41857
1.42245
1.3907
1.31456
1.14838
1.23853
1.11715
1.10423
1.09466
1.09303
1.08611
1.07602
1.07592
1.07756
1.01716
0.995009
0.891043
0.932193
0.790208
0.83189
0.000902499
0.000636742
0.000948563
0.000967574
0.000969466
0.000982262
0.000981886
0.000870723
0.00101
0.000913442
0.000677989
0.000965569
0.000971308
0.000759356
0.000380116
0.000991326
0.000690401
0.00100737
0.000803925
0.000839513
0.000369052
0.000975289
0.000889611
0.000439439
0.000917861
0.00068906
0.00101
0.000641909
5.56247e-08
0.0452137
0.497805
0.29408
0.516321
0.514484
0.812834
0.644445
1.02285
0.981088
1.05053
1.15137
1.25411
1.33461
1.33906
1.33423
1.37539
1.40286
1.39602
1.39562
0.00114607
0.000876679
0.000886173
0.000229628
0.000672815
0.000987943
0.00081396
0.000938473
0.000890554
0.000725685
0.000975785
0.00092383
0.000794854
2.99799e-07
0.000880516
0.00101
0.000170373
0.791937
0.791656
0.791731
0.757407
0.678315
0.711251
0.637727
0.625984
0.595143
0.586734
0.544089
0.543208
0.574152
0.569289
0.531246
0.56848
0.561081
0.610755
0.592102
0.591802
0.509866
0.481424
0.481485
0.525827
0.534097
0.532384
0.509185
0.512387
0.471762
0.46448
0.42741
0.431639
1.02916
0.995726
1.0379
1.04712
0.997755
0.952947
1.12039
1.14179
1.2069
1.21736
0.764958
0.806414
0.85735
0.941328
0.761637
0.707302
0.742458
0.743166
0.582763
0.637115
0.688142
0.569007
0.777353
0.791459
0.794401
0.780726
0.806404
0.785615
0.795237
0.82391
0.694367
0.69422
0.586066
0.673954
0.666333
0.617399
0.578814
0.592784
0.537586
0.554962
0.541281
0.62658
0.686868
0.615196
0.683792
0.738264
0.739129
0.737535
0.740392
0.745337
0.764918
0.756432
0.773975
0.770326
0.788622
0.784334
0.805256
0.80263
0.804875
0.803286
0.81225
0.808694
0.84802
0.818373
0.785568
0.787584
0.851758
0.820628
0.827583
0.869196
0.908597
0.909122
0.908737
0.909857
0.938957
0.992841
1.0538
1.07477
1.08251
1.06206
1.20585
1.1401
1.26882
1.30779
1.30218
1.33892
1.39705
1.26063
1.34497
1.37118
1.44321
1.49223
1.5214
1.53855
1.56812
1.51488
1.57204
1.52759
1.60429
1.60525
1.65834
1.62506
1.68346
1.71741
1.70453
1.65693
1.71792
1.74573
1.70953
1.70767
1.77123
1.74924
1.78188
1.71989
1.72119
1.7828
1.75511
1.70464
1.70811
1.73837
1.77169
0.767459
0.724474
0.896216
0.902201
0.862518
0.850405
0.874182
0.624393
0.753348
0.46154
0.485189
0.594084
0.574096
0.44183
0.533563
0.52272
0.688134
0.590181
0.606577
0.499083
0.5149
0.516128
0.526912
0.0592117
0.000539751
0.329744
0.124216
0.32536
0.266451
0.00101
0.000966006
0.000995857
0.000543179
1.03629e-05
0.0017257
0.000842141
0.000863562
0.000844807
0.000618999
0.000287331
0.00069126
0.000943677
0.000831092
0.0013809
0.000439582
0.00012748
0.000146108
0.000949
0.000431299
6.93167e-06
1.61879e-05
0.000990101
0.00093513
0.00100829
0.000695395
0.000911134
0.000410555
0.00100928
0.00097686
0.000997968
0.00104303
0.00075839
0.00100665
0.000974989
0.000926586
0.00101
0.00057983
0.00101772
0.000952377
0.00101803
0.00101831
0.00100234
0.000950588
0.00101706
0.00101708
0.000467339
0.000568975
0.000993933
0.000773625
0.000877713
0.00099375
0.000922247
0.000776475
0.0010078
0.000994205
0.000136415
0.000956593
0.000950381
0.000921886
0.000915695
0.000919934
0.000616196
0.00101
0.000623175
0.000968314
1.3825
1.38144
1.34374
1.35266
1.26742
1.33727
1.15738
1.08756
1.09316
1.08186
1.08694
1.08374
1.02387
1.02941
0.870756
0.832433
0.791871
0.959777
0.958016
0.911875
0.917948
0.913164
0.00081225
0.00039054
0.00116478
0.00116477
0.000962471
0.000414864
0.00093308
0.000410365
0.0011648
0.000927535
0.000161511
0.00100893
0.000972717
0.000941946
0.000297472
0.000985833
0.000726155
0.00091818
0.00021426
0.00071546
0.000396366
0.000951565
0.00135565
0.0013573
0.166337
1.58169e-07
0.361254
0.516681
0.642692
0.514844
0.808428
0.983904
1.00326
1.04231
1.11285
1.23634
1.30011
1.28698
1.33158
1.25134
1.29921
1.35024
1.30478
1.29257
0.00101374
0.000865954
0.00100993
0.000849207
0.000913268
0.00119255
0.000759772
0.000801619
0.00119255
0.000964874
0.000981161
0.000996251
3.50366e-09
1.14836e-05
0.000994615
0.000373012
3.54549e-34
0.00072123
0.00101
0.000253336
0.000277025
0.000765241
0.00096459
0.000879022
0.00205752
0.00100937
0.76559
0.763625
0.684414
0.700862
0.579811
0.59936
0.538342
0.540212
0.537972
0.540374
0.511082
0.513429
0.489439
0.485977
0.462321
0.505985
0.584067
0.542847
0.583213
0.585001
0.401914
0.420932
0.462864
0.440726
0.449562
0.456499
0.395456
0.398597
0.382056
0.391876
0.404804
0.401568
1.25204
1.25142
1.08019
0.992279
0.981327
0.969101
1.24943
1.15985
1.40826
1.48295
1.37981
1.3037
1.49597
1.47874
1.5451
1.59318
1.62399
1.62377
1.64983
1.62375
1.68344
1.70687
1.70112
1.70265
1.72029
1.70723
1.70706
1.74935
1.6956
1.69281
0.813984
0.742329
0.88644
0.95603
0.743356
0.689972
0.741505
0.741362
0.572584
0.627351
0.451158
0.621403
0.517581
0.780125
0.728909
0.789895
0.785888
0.782037
0.679123
0.592787
0.507796
0.491741
0.498197
0.541471
0.472986
0.452907
0.386833
0.473119
0.546379
0.544338
0.461411
0.566834
0.63383
0.57592
0.687128
0.632055
0.675882
0.732072
0.769001
0.744017
0.777587
0.779532
0.788751
0.779855
0.81294
0.819421
0.819026
0.835658
0.840101
0.840984
0.873918
0.885975
0.876024
0.870365
0.875915
0.867274
0.885202
0.900757
0.947472
0.942303
0.908062
0.940585
0.93723
0.966946
1.00138
1.06461
1.0957
1.09428
1.10456
1.17609
1.25594
1.33221
1.34299
1.47182
1.34585
1.39521
1.54528
1.57124
1.56886
1.60941
1.65348
1.70919
1.71449
1.72259
1.74725
1.77579
1.79926
1.8075
1.79508
1.80413
1.79577
1.79145
1.71744
1.7848
1.75052
1.70764
1.70488
1.73882
1.76636
1.77875
1.70578
1.76826
1.72376
0.553233
0.54201
0.620236
0.691565
0.576683
0.646438
0.781244
0.721644
0.747279
0.583909
0.492215
0.444762
0.458018
0.555826
0.548827
0.201127
0.315889
0.4974
0.397296
0.499123
0.489435
0.496253
0.497625
0.530815
0.530402
0.000751537
1.25841e-07
0.00094767
0.144114
0.182347
0.178574
0.00086849
0.000172666
0.000383825
0.00172559
0.000981197
0.00067501
0.000478021
0.000315336
0.000447435
0.00101
0.000578551
0.00138063
0.000928609
0.00101
0.000788952
0.000660221
0.000998234
0.000701989
0.000938544
0.000874495
0.0010519
0.00094376
0.000791252
0.000751098
0.000990039
7.57449e-05
0.00099613
0.000976554
0.000151024
0.000636326
0.000544652
0.000936558
0.000843756
0.000970566
0.000965085
0.00101789
0.000978339
0.000944855
0.000974885
0.00092222
0.000207016
0.000979907
0.000919067
0.00101
0.000732523
0.00100962
0.000641972
0.000367709
0.000916152
0.000960434
0.000964729
0.000892128
0.000585934
0.000479733
1.30241
1.29605
1.26893
1.28037
1.20388
1.27815
1.09055
1.15884
1.04468
1.04352
0.984552
0.965593
0.91916
0.915585
0.830599
0.723771
0.703714
0.871911
0.913071
0.909121
0.914851
0.916682
0.00116482
0.00097893
0.00116482
0.000679673
0.000973634
0.000973647
0.00094649
0.000972052
0.00100548
0.000830393
0.000135327
0.000443538
0.00093376
0.000997208
0.00060297
0.00100999
0.00098232
3.53596e-05
0.000985985
0.000873381
0.000276721
0.000409715
0.000876783
0.000556173
0.146199
0.329366
0.474841
0.513997
0.707481
0.538772
0.847959
0.980095
0.959096
1.07396
1.23352
1.12969
1.21358
1.21884
1.20357
1.23441
1.27776
1.29045
1.28753
1.25998
0.000769413
0.000922585
0.000563688
0.000958878
0.000712787
0.000933944
0.000627141
0.000452485
0.000820426
0.000879841
0.000957505
0.000856862
0.000968979
3.39744e-18
0.000922039
0.000873917
0.00096514
0.000987798
0.000743529
0.00100999
0.000468733
1.75077e-08
0.00193478
0.000901385
0.00101
0.000860782
0.000668131
0.000489708
0.000136748
7.70083e-16
0.00098545
0.638044
0.638281
0.602827
0.579535
0.53998
0.55892
0.526119
0.528595
0.686878
0.62402
0.603897
0.456981
0.463269
0.395219
0.399645
0.463391
0.461539
0.452692
0.496505
0.557385
0.509599
0.546235
0.530025
0.423866
0.403266
0.415087
0.434297
0.357557
0.363423
0.365177
0.371833
0.394927
0.376069
0.342299
0.353811
1.82822
1.83756
1.86446
1.84236
1.88426
1.87043
1.89304
1.88809
1.94239
1.93022
1.89276
1.94709
1.91506
1.96436
1.79429
1.74396
1.7679
1.81424
1.79661
1.76522
1.76989
1.82236
1.82769
1.80689
1.7828
1.8382
1.81973
1.8268
1.85369
1.70663
1.70376
1.70646
1.70192
1.72376
1.74561
1.29846
1.24181
1.13842
1.04172
0.956874
1.02984
1.23304
1.21415
1.45456
1.47871
1.36454
1.44666
1.48468
1.53374
1.58045
1.6216
1.6216
1.62351
1.62105
1.64883
1.66248
1.68862
1.67672
1.67974
1.68107
1.69344
1.67187
1.67373
0.86334
0.792352
0.737006
0.723832
0.783267
0.955335
0.937575
0.666384
0.722464
0.595524
0.528964
1.81246
1.83118
1.84969
1.85564
1.86123
1.87164
1.87553
1.90331
1.88676
1.90664
1.90438
1.95422
1.97722
2.00102
2.00108
2.00244
2.01894
2.04366
0.502373
0.456932
0.450281
0.709111
0.60579
0.776077
0.668761
0.599796
0.498559
0.494728
0.492936
0.486413
0.347331
0.416988
0.275431
0.293883
0.371886
0.292648
0.553945
0.483627
0.383804
0.578087
0.578231
0.580196
0.637072
0.593206
0.720663
0.667076
0.75482
0.719207
0.753379
0.779384
0.801719
0.822758
0.844883
0.846968
0.854709
0.849737
0.90514
0.894125
0.887222
0.884054
0.937218
0.91014
0.98332
0.943133
0.92398
0.966485
1.01079
1.00391
1.02513
1.06262
1.06336
1.00692
1.1177
1.14562
1.11672
1.1068
1.18825
1.27301
1.34393
1.41228
1.36044
1.37667
1.5064
1.56492
1.60779
1.58989
1.65315
1.6861
1.72828
1.73989
1.73244
1.75833
1.81351
1.79113
1.79941
1.81278
1.7985
1.81458
1.79345
1.80478
1.80791
1.79694
1.79998
0.53858
0.533524
0.549876
0.475275
0.48631
0.507969
0.440133
0.587946
0.49964
0.434131
0.449657
0.431333
0.323935
0.427313
0.456085
0.234798
0.233226
0.190277
0.277458
0.508086
0.381468
0.403874
0.40586
0.179012
0.0708197
0.00122125
2.86377e-07
0.000226159
0.00113071
0.0011307
0.16329
0.00370013
0.132581
0.187872
0.000776109
0.00096702
0.000896738
0.000998449
0.00026155
0.000888291
0.00100984
0.000894905
0.00113065
0.000209509
0.000398457
0.000668916
0.00101
0.000330569
0.000740386
2.69079e-18
5.18057e-12
0.00241243
0.000379096
0.000850418
0.000694792
0.000545923
0.000997667
0.0003892
0.00100993
0.000972649
0.000977525
0.000963111
0.000999516
0.000741898
0.00101265
0.000932486
0.000717776
0.000968735
0.000689304
0.00101311
0.00089779
0.000955844
0.000631827
0.000258775
0.00073186
0.000964465
0.000941166
0.000838222
0.00101
0.000334973
0.000769708
0.000685233
0.000978177
0.000925692
0.000935309
0.000884103
0.00091709
0.000695524
0.000567275
0.00212426
0.000172707
0.000674617
0.000835469
0.000909264
0.00212422
1.99265
1.96017
1.94287
2.03485
2.07109
2.0636
1.27374
1.27759
1.26116
1.27077
1.19351
1.24606
1.07503
0.998406
0.935319
0.950441
0.907553
0.914966
0.915191
0.915339
0.792088
0.710235
0.801187
0.8762
0.880431
0.00093523
0.000751501
0.000875173
0.000890082
0.000922295
0.0009764
0.000965395
0.000493094
0.000931051
0.000554111
0.00100943
0.000959595
0.000969088
0.479875
0.508941
0.539235
0.00100998
0.000498781
0.000128694
0.000927014
4.59314e-06
0.000276997
0.000921556
0.000785239
0.135124
1.36887e-06
0.309705
0.677286
0.822925
0.93553
0.930378
1.25682
1.1927
1.19421
0.975473
1.05649
1.15204
1.20259
1.18665
1.19901
1.24269
1.24645
1.23667
0.000694669
0.00116628
0.000626704
0.000982796
0.000704864
0.000720222
0.00100904
0.000845157
0.000718853
0.000865554
0.000823186
0.000932446
0.000763197
0.000831138
0.000896425
0.000498305
0.000627663
0.00100504
0.000978863
0.000935387
0.000938185
0.000682923
0.000770427
0.000937995
0.000997599
0.000978674
0.000347723
0.000953032
0.000978459
0.000973622
0.00101
0.000984843
0.000871643
0.000978065
0.000827832
0.000964085
0.000811322
0.63975
0.678033
0.662409
0.601331
0.603375
0.575018
0.596049
0.466752
0.492196
0.402916
0.404139
0.608444
0.596214
0.362304
0.3565
0.356816
0.362146
0.412884
0.39284
0.433293
0.378273
0.503825
0.456813
0.505525
0.514119
0.344186
0.301646
0.324778
0.352598
0.332388
0.329492
0.27476
0.311828
0.288444
0.268736
0.24802
0.248872
1.83069
1.84187
1.86394
1.88783
1.89182
1.89629
1.92226
1.91007
1.75951
1.75534
1.74061
1.76447
1.79572
1.75704
1.80707
1.77855
1.69436
1.68326
1.6761
1.70983
1.73932
1.7099
1.30291
1.22525
1.11857
1.20733
1.05461
0.969896
1.22104
1.22075
1.46169
1.46405
1.47915
1.37749
1.45367
1.56662
1.51227
1.45688
1.49832
1.60075
1.61228
1.60062
1.60809
1.61977
1.64164
1.66944
1.65778
1.66903
1.66232
1.67137
1.66331
1.6702
1.66658
0.708515
0.713341
0.850609
0.933434
0.708663
0.794306
0.95221
0.965007
0.702279
0.646052
0.558393
0.62349
1.84643
1.79749
1.8191
1.86731
1.86295
1.86729
1.87627
1.89839
1.91953
1.93059
1.9319
1.93627
1.9592
1.99995
1.98201
1.99998
2.01846
2.06544
2.04209
1.87492
1.88326
1.89853
2.06728
2.07125
2.06916
0.447213
0.45377
0.453467
0.428897
0.51397
0.541525
0.341428
0.380195
0.418667
0.293202
0.331407
0.34441
0.272133
0.266534
0.268738
0.275173
0.303634
0.331831
0.439373
0.358016
0.370104
0.505763
0.585554
0.502059
0.657826
0.683974
0.617991
0.655818
0.716907
0.685392
0.807738
0.751647
0.822574
0.834398
0.844313
0.835717
0.885474
0.92263
0.96122
0.958922
0.965204
0.952995
0.977324
0.961016
1.01002
1.01458
1.03659
1.03772
1.01438
1.01646
1.13505
1.18301
1.07988
1.14403
1.19161
1.15553
1.25538
1.30191
1.39893
1.43963
1.41488
1.5086
1.55999
1.66272
1.64525
1.70686
1.68075
1.77339
1.78347
1.77509
1.80206
1.82897
1.8326
1.88274
1.84991
1.87395
1.85121
1.82215
1.87669
1.82369
1.83688
1.80709
0.000702339
0.214383
0.00121901
0.19126
0.469297
0.437468
0.451248
0.414158
0.443809
0.3117
0.190411
0.194262
0.0855786
0.301267
0.178356
0.200763
0.318928
8.76329e-05
0.000447314
0.00665843
0.0924274
0.0763289
0.000971468
0.00120182
2.56694e-06
0.00101583
0.000306067
2.67925e-05
0.00113069
0.0011307
0.000977019
0.000458796
0.000989691
3.23779e-22
3.52561e-05
0.000907349
0.0010004
0.000112849
0.00044385
0.000919656
5.38326e-14
0.000297927
0.00221967
8.62753e-13
0.000984734
5.23131e-05
0.0009581
0.000364482
0.00101
0.000172236
0.000988521
0.00220293
0.000977615
0.000134455
0.00096781
0.00100982
0.00132899
0.000366753
0.00100983
0.000979813
0.000465046
0.000983408
0.00101
0.000808151
0.00101271
0.00101268
0.000896998
0.000918049
0.00101268
0.00101298
0.000955402
0.000865395
0.000711032
0.000919589
0.00163448
6.92701e-05
0.00163437
0.000771012
0.00098702
0.000966821
0.00099923
0.00100984
0.00101
0.00100994
0.000799141
0.000805878
0.000827454
1.20946e-05
9.12481e-06
0
0.00090453
0.000799517
0.000430028
0.000839932
0.00132894
0.000898711
0.00100958
0.00100997
0.000762175
0.000998553
0.000946811
0.000914726
0.00101
1.93926
1.97444
1.96933
1.96576
2.00372
2.10296
2.0874
2.0879
2.11239
2.04882
1.18563
1.17768
1.09577
1.0996
1.06693
1.09626
1.0085
0.958246
0.942618
0.921659
0.884718
0.894701
0.800331
0.808359
0.680889
0.721192
0.72032
0.000529692
0.000965684
0.000913493
0.00101
0.000949844
0.000924031
0.000585991
0.514977
0.650948
0.508513
0.000919443
0.000220381
0.000959565
0.000979614
0.379034
0.213212
0.00101
0.000973661
0.000703088
0.00102132
0.000992432
0.000995488
0.014031
0.0133764
0.0472754
1.05499
1.03567
1.07857
0.79125
0.931259
0.931114
0.969195
1.10124
1.17154
1.12836
1.02909
1.12531
1.15412
1.15533
1.05521
1.09467
0.000957717
0.00098095
0.00116631
0.00101
0.000645721
0.000823908
0.00101
0.00117392
0.000947525
0.000998305
0.000160682
0.000986054
0.000875008
0.000936631
0.000510229
0.0010299
0.000985433
0.00103
0.00102993
0.00101
0.000771965
0.000895476
0.000833864
0.000976221
0.00092185
0.00100577
0
0
0
0.000702071
0.00109924
0.000987899
0.00100563
0.000944429
0.000473953
0.000911195
0.000978965
0.000968087
0.00097325
0.000338297
0.000895901
0.000914242
0.000926795
0.0008907
0.00102995
0.659665
0.669872
0.680766
0.542771
0.562187
0.526792
0.523738
0.452874
0.444597
0.352861
0.370674
0.358331
0.359704
0.455941
0.454756
0.304983
0.301838
0.268395
0.24717
0.344553
0.339707
0.362148
0.418326
0.498973
0.46333
0.530041
0.482947
0.283392
0.253598
0.31529
0.339767
0.213766
0.221751
0.192137
0.205012
0.247125
0.22657
0.246292
0.25516
1.83091
1.78588
1.86083
1.83122
1.82968
1.88608
1.87464
1.92102
1.92276
1.9524
1.91327
1.86983
1.94629
1.89713
1.7214
1.72685
1.71437
1.72916
1.74329
1.75597
1.75533
1.75872
1.66955
1.6665
1.69458
1.6757
1.7062
1.71032
1.30435
1.22835
1.14576
1.21993
1.01973
1.10919
1.22305
1.2278
1.45526
1.45345
1.45612
1.38547
1.5421
1.58852
1.50084
1.45558
1.59699
1.5979
1.61026
1.59762
1.6293
1.65608
1.66777
1.66599
1.67298
1.66289
1.67063
1.67006
1.67245
1.65202
0.70751
0.700749
0.869148
0.948533
0.850232
0.763787
1.00409
0.948614
0.681276
0.70257
0.674532
0.592926
1.826
1.87388
1.87337
1.88496
1.90743
1.89311
1.93272
1.94277
1.91815
1.93052
1.921
1.93029
1.93495
1.96033
1.982
2.00053
2.00073
2.05239
2.0283
2.07982
2.08525
1.95408
1.9664
2.08462
2.09558
0.184784
0.34879
0.21832
0.325753
0.246797
0.218015
0.18649
0.134205
0.171988
0.215262
0.103058
0.150053
0.156174
0.0533183
0.110848
0.246519
0.360268
0.279629
0.373221
0.372448
0.362259
0.440439
0.585813
0.487627
0.670831
0.675557
0.639229
0.590385
0.709407
0.749163
0.806973
0.797384
0.819783
0.810225
0.929346
0.878491
0.978937
0.969648
0.994847
1.00189
0.974247
1.03293
1.07597
1.04976
1.03375
1.06276
1.11388
1.09707
1.07926
1.12095
1.20568
1.20669
1.20013
1.21921
1.35138
1.26571
1.43695
1.46191
1.46488
1.5284
1.60914
1.68076
1.69286
1.70037
1.75095
1.79489
1.83248
1.83424
1.87129
1.84281
1.89621
1.91447
1.91038
1.91388
1.91124
1.90608
1.90348
1.91026
1.8756
0.00061822
0.000123974
0.00752756
0.000883166
0.000455867
0.143801
0.000360404
0.327886
0.181023
0.18612
0.0422698
0.0664846
0.0652799
0.0619802
0.0628325
0.0634787
0.0616113
0.062848
0.0595493
0.0071161
0.000988967
0.000638589
1.95476e-05
0.000447826
0.000459142
0.00101774
0.00101615
0.000448491
5.23927e-05
0.00100217
0.000993637
0.000687571
0.000856518
0.000185909
0.00101
0.00189351
0.000477838
0.000959982
0.00100986
0.000887496
0.000962023
0.000981261
0.0018866
0.000992579
0.000146754
1.36216e-05
0.000607696
0.00096357
0.000988249
0.000479144
0.000826696
0.000961729
0.00100941
0.00031059
2.99251e-05
0.000987756
0.00100992
0.000817418
0.000560979
0.000668652
0.00101
0.000799183
0.000969024
0.000279366
0.000905419
0.000941315
0.000897354
0.0010008
0.000939674
0.000880492
0.000886752
0.00100949
0.00097168
0.000773375
0.000984106
0.000952799
0.000499752
0.00098992
0.000934564
0.000964099
0.000974876
0.000974485
0.00101
0.00099424
0.000905098
0.000464111
0
0
0
0
0
0
0
0
0
0
0
0
0
0
0
0
0
0
0
0.00099334
0.000883807
0.000937661
0.000812305
0.000918715
0.000434354
0.000930589
0.00106338
0.000325168
0.000811332
0.000714456
0.000885277
2.13803
2.12484
2.14457
2.13533
2.14309
2.14485
1.98382
1.98976
2.04684
2.01333
2.12083
2.13419
2.11517
1.99026
1.92452
1.053
1.05158
1.05331
1.05135
1.03305
0.960054
1.03518
0.815888
0.863068
0.73095
0.731418
0.675174
0.680337
0.680112
4.53839e-05
0.000741965
0.000495047
0.000982711
0.488479
0.677296
0.506737
0.000948865
0.000967043
0.465695
0.360933
0.000977274
0.000695949
0.000970402
0.000977458
0.0537086
0.195925
0.00102058
0.00101937
0.000384084
0.00102093
0.0185
0.000969202
0.0254044
1.05739
1.05431
1.04375
1.06479
1.0554
0.760257
0.874324
0.821099
0.93605
0.993008
1.01131
0.953267
1.02955
0.991513
0.98527
0.984181
0.000954778
0.00108746
0.000899473
0.000970576
0.000973219
0.000935143
0.000659492
0.00101452
0.000148638
0.00090006
0.00101245
0.000664091
6.92933e-05
0.000748105
0.00101977
0.000508825
0.000763669
0.000850744
0.000941477
0.000943161
0.00094707
0.00098934
0.000740767
0.000908685
0.000621516
0.00100955
0.000627569
0.000973579
0.000348921
2.15212e-05
0
0
0
0
0
0.00084325
0.00109903
0.000978274
0.00109895
0.000988902
0.000872265
0.00078846
0.000950347
0.00098805
0.00100037
0.00093197
0.000953825
0.000956596
0.000997349
0.000778615
0.00101
0
0
0
0
0
0
0.657328
0.587885
0.573999
0.498826
0.495371
0.408809
0.396347
0.392486
0.386788
0.374742
0.390106
0.320214
0.333729
0.24954
0.236242
0.391223
0.395308
0.185234
0.169466
0.17351
0.183592
0.459776
0.524286
0.443622
0.338866
0.320056
0.395228
0.325292
0.408815
0.250731
0.220397
0.281856
0.234357
0.18773
0.183055
0.182345
0.206009
0.195264
0.175007
0.159998
0.148902
1.81049
1.78545
1.79961
1.7976
1.81278
1.81565
1.80834
1.87504
1.86199
1.89228
1.96542
1.91751
1.85992
1.71522
1.71268
1.73957
1.72596
1.75576
1.75425
1.77846
1.76504
1.6665
1.67446
1.69912
1.6802
1.69596
1.70451
1.34488
1.26668
1.1885
1.22343
1.17223
1.08016
1.26138
1.2252
1.46097
1.46029
1.42096
1.46405
1.55249
1.59976
1.46355
1.50714
1.59879
1.59714
1.62263
1.60334
1.64234
1.66241
1.64812
1.65849
1.67125
1.6535
1.66603
1.66436
1.66758
1.65863
0.698358
0.76086
0.949085
0.923867
0.843798
0.930679
0.950311
1.02572
0.695171
0.692756
0.685259
0.605137
0.438845
0.484337
0.563321
1.89798
1.92139
1.94102
1.94129
1.95455
1.97051
1.97307
1.97277
2.00789
1.98363
1.99827
1.9636
1.99486
2.00565
2.02981
2.04871
2.06388
2.06035
2.11263
2.11426
2.13634
2.11438
2.02652
2.0309
2.151
2.14754
0.000143849
0.0333157
0.000918622
0.144728
0.0709753
0.156801
0.137085
0.13434
0.0628536
0.00101917
0.000724485
0.000922736
0.000761584
0.0192807
0.188198
0.0904115
0.0720299
0.273021
0.423644
0.388362
0.227758
0.481189
0.51831
0.536259
0.520251
0.620114
0.68758
0.569783
0.790167
0.729335
0.801299
0.803747
0.896092
0.835472
0.956528
0.990447
0.98675
0.987599
1.11684
1.07641
1.04416
1.10337
1.12879
1.12134
1.11277
1.10839
1.12352
1.11986
1.20324
1.24191
1.28283
1.23798
1.28125
1.30899
1.4499
1.38152
1.47599
1.46214
1.54537
1.61684
1.70816
1.6982
1.73913
1.77208
1.8477
1.83987
1.86157
1.86721
1.89333
1.90547
1.92193
1.91744
1.92624
1.92842
1.91383
1.92283
1.91268
1.91516
0.000994839
0.000862961
0.00101
0.00067133
0.000942057
0.000288442
0.000566723
0.000577439
0.000639999
0.0696748
0.0768118
0.000868307
0.000740337
0.0628044
0.0576912
0.0682508
0.0651625
0.0638505
0.0624357
0.000122296
0.000368512
0.00100982
0.000631856
0.000938422
0.000788581
0.00100179
0.000628528
0.000997704
0.000180038
0.000954666
0.000624923
0.00101
0.000209386
0.000613088
0.00100863
0.0017416
0.000986786
0.000917136
0.000982492
0.00366868
2.19813e-05
0.000210438
0.00024578
0.00100938
0.00081657
6.4021e-09
0.000987435
0.00100983
0.000221208
0.000848872
0.00100647
0.000131712
0.00100976
0.000959372
0.000158676
0.000986414
0.000975827
0.000988515
0.00360226
0.000980885
0.000668079
0.00098777
0.000776699
0.000648771
0.00127726
0.00127717
0.0012772
0.000900202
0.000946957
0.000832782
0.000987787
0.000948013
0.000941776
0.000961192
0.000871734
0.000897996
0.000947049
0.000951887
0.000925848
1.67713e-05
0.000881191
0.00092376
0.0003855
0.000414352
0.00098456
0
0
0
0
0
0
0
0
0
0
0
0
0
0
0
0
0
0
0
0.0008855
0.000943785
0.00101
0.000948967
0.00150934
0.000666733
0.00109247
0.000906319
0.00108264
0.000925278
0.000769381
0.000991424
2.15717
2.18115
2.18931
2.14547
2.1516
2.13286
2.14581
2.03129
2.05103
2.06945
2.08079
2.08583
2.11896
2.1449
2.00185
2.0272
1.9439
1.97212
1.96557
1.04423
1.02661
0.960344
0.904387
1.00066
0.955369
0.937725
0.806229
0.844802
0.706431
0.677603
0.681065
0.676143
0.654846
0.000943015
0.000660908
0.595139
0.708167
0.486782
0.000952845
0.000974084
0.440751
0.434312
0.000671453
0.000632291
0.176773
0.310808
0.000832379
0.00092481
0.000943875
0.000844805
0.0341809
0.040895
0.000998863
0.00102991
5.68294e-05
1.6054e-05
0.000924778
1.00646
1.04507
1.01907
1.00261
0.765724
0.766887
0.789261
0.859794
0.985185
0.97766
0.930888
0.979912
0.972522
0.00100999
0.00060532
0.000473483
0.000951636
0.000983083
0.000992226
0.00113865
0.00113871
0.000334539
0.000835793
0.00101
0.00100946
0.00099849
0.00097296
0.00100846
0.0009091
0.0010099
0.00379274
0.000986709
0.000971022
0.000967953
0.000998604
0.000511234
0.000995064
0.000870437
0.00109959
0.000570634
0.000410269
0.00101771
0.00098644
3.7271e-05
0.000733696
0
0
0
0
0
0.000500823
0.000891535
0.000776104
0.000522504
0.000652316
0.000979778
0.000994683
2.89067e-09
0.000984084
0.000986882
4.54328e-05
0.000182975
0.000879709
0.000395009