/*--------------------------------*- C++ -*----------------------------------*\
  =========                 |
  \\      /  F ield         | OpenFOAM: The Open Source CFD Toolbox
   \\    /   O peration     | Website:  https://openfoam.org
    \\  /    A nd           | Version:  8
     \\/     M anipulation  |
\*---------------------------------------------------------------------------*/
FoamFile
{
    version     2.0;
    format      ascii;
    class       volScalarField;
    location    "16500";
    object      nut;
}
// * * * * * * * * * * * * * * * * * * * * * * * * * * * * * * * * * * * * * //

dimensions      [0 2 -1 0 0 0 0];

internalField   nonuniform List<scalar> 
526318
(
0.00034884
0.000492495
0.000491068
0.000614956
0.000288351
0.000529137
0.000405312
0.000267003
0.000436068
0.000657838
0.000557702
0.000624047
0.000575643
0.000577558
0.000261385
0.000414592
0.000558766
7.82459e-06
0.000237785
0.000268078
0.000758025
0.000729305
0.000459544
0.000663272
0.000485391
0.000374731
0.000571038
0.000588521
0.000394482
0.000728689
0.000367202
0.000425042
0.000159107
0.000460934
0.000833422
0.000596768
0.000897402
0.000511448
0.00105379
0.000300385
0.000239403
0.00013024
0.000491578
0.000347154
0.000330533
0.000522485
0.000192107
0.000317568
0.000743668
0.000258341
0.000406871
0.000661329
2.18514e-05
0.000418385
0.000334492
0.000404081
0.000468745
0.000149349
0.000583493
0.000584204
0.000343753
0.000227485
2.61044e-05
0.000331549
0.000672894
0.000491146
0.000370689
0.000321146
0.0003546
0.000123749
0.000299832
0.000166356
0.000235907
0.000569345
0.000176707
0.000260809
0.000366475
0.000211617
0.000352512
0.000320838
0.000296609
0.00033443
0.000387827
0.000362183
0.000206406
0.000291073
0.000266802
0.000237335
5.63071e-05
0.000330986
0.000317627
0.00026191
0.000303688
0.000450135
0.000270857
0.000293158
0.000317215
0.000287787
0.000365942
0.000319094
0.00148906
0.000338867
0.000309603
0.000282617
0.000818346
0.000345078
0.000588962
0.000396314
0.000558725
0.000505936
0.000369704
0.000439689
0.000562677
0.00029609
0.000416404
0.000642604
0.000399556
0.000351795
0.000252706
0.000169095
0.000282515
0.000290239
0.00030865
0.00023656
0.000313798
0.000270743
0.000290723
0.000157275
0.000249168
0.000237752
0.000185557
0.000232409
0.000217332
0.000224818
0.000219576
0.000269581
0.000265176
0.000204044
0.000212976
0.000248512
0.000191551
0.000196602
0.000275309
0.000240528
0.000172878
0.00021118
0.000202308
0.000192186
0.000193224
0.000215438
0.000195029
0.000238712
0.000187835
0.000246506
0.000172492
0.000210208
0.000174594
0.000267743
0.00027304
0.000259173
0.00023742
0.000233831
0.000212251
0.00035864
0.000395877
0.000157117
0.000156633
0.000222199
0.000264441
0.000343664
0.000347744
0.000227954
0.000285991
0.000242825
0.00010756
0.000191822
0.000247981
0.000224503
0.000241957
0.000330998
0.000270718
0.000388207
0.000275536
0.000279052
0.000332285
0.00023794
0.000229737
0.000235579
0.000228321
0.000236418
0.000237481
0.000236618
0.000271343
0.000266129
0.000219768
0.000206054
0.000215584
0.000168967
0.00021199
0.000254216
0.00018352
0.00027182
0.000255442
0.00025101
0.000213299
0.000284991
0.00027968
0.000291895
0.00028026
0.000289579
0.000374038
0.000344581
0.000533408
0.000529676
0.000509868
0.000370713
0.000288361
0.000773298
0.000454136
0.000503106
0.000437951
0.000469965
0.000337528
7.52014e-05
0.000643768
0.000436733
0.000320954
0.00038103
0.000605177
0.000129344
0.000181291
0.000181131
0.000230683
9.53893e-06
0
0.00111295
0.00047937
0.000121575
0.000243652
0.000391705
0.000172131
0.000645291
0.000686458
0.000451811
0.000530985
0.000420666
0.000268756
0.000595296
0.000325255
0.000309244
0.000440271
0.000369962
4.19801e-05
0.000476672
0.000257122
0.000368485
0.0003336
0.000261793
0.000277606
0.00036335
0.000322576
0
0
0.000937328
0
0.00103221
0.0015622
0.00032872
0.000623969
0.000564985
0.000222877
0.000455975
0.000227396
0.000209042
0.000436202
0.000310874
0.000432304
0.000621223
0.000304678
0.0006484
0.000449611
0.000155524
0.0002543
0.000256408
0.00015993
0.000168527
0.000217931
0.000242359
0.000200989
0.000204244
0.000255927
0.000214392
0.000190002
0.000271331
0.000264273
0.000288769
0.000309257
0.000302838
0.000307846
0.000325283
0.000288984
0.00028057
0.000310288
0.000318839
0.000278726
0.000301998
0.00017129
0.00020516
0.000200032
0.000212682
0.000192553
0.000250451
0.000196136
0.000244971
0.000273726
0.000263865
0.000348688
0.000345701
0.000314593
0.000308362
0.000310778
0.00014751
0.000214925
0.000181128
0.000364497
0.000189122
0.000154508
0.000157972
0.000277551
0.00026469
0.000193808
0.000125562
0.000148328
0.000212915
0.000229906
0.000275745
0.000270054
0.00037978
0.000353171
0.00026982
0.000311784
0.000228116
0.000235346
0.000223383
0.000248161
0.00021116
0.000249333
0.000259827
0.000247234
0.000283343
0.000217192
0.000251432
0.000210753
0.000191487
0.000178354
0.000224335
0.000211276
0.000259205
0.000267253
0.00026981
0.000279197
0.000230472
0.000322972
0.000278371
0.000264586
0.000294031
0.000275212
0.000329305
0.000317529
0.00034897
0.000330355
0.000276437
0.000331161
0.000319918
0.000364298
0.000347697
0.000386048
0.000715065
0.000525857
0.000407159
0.000818926
0.00105906
0.000795825
0.000812164
0.000292589
1.27853e-05
0.000368988
0.000154875
9.42136e-05
0.000490157
0.000508878
0.000536429
0.000126524
0.000428225
0.000577007
0.000349178
0.000552584
0.000339225
0.000540077
0.000196749
0.000106619
0.000327462
0.000392032
0.000333645
0.000241183
0
0
0
0
0
0
0
0.000282465
8.05463e-05
0.000158455
0.000568718
0.000342203
0.000588654
0.000700829
0.000433459
0.000654978
0.000603355
0.000317754
0.00050328
0.000144616
0.00044056
0.000430504
0.00036596
0.000272815
0.000320147
0.00027641
0.000389384
0.000251452
0.0002679
0.000243323
0.000268062
0.000273809
0
3.66736e-11
1.03574e-10
0
0
0
0
6.78358e-11
1.10168e-10
1.19727e-10
0
0
0
0
0
0
0
0
0
0
0.00130175
0.000379616
0.00145839
0.000119869
0.000319699
0.000525254
0.00031568
0.000440693
0.000127608
0.000455468
0.00046661
0.000204572
0.000274229
0.000424221
0.000543604
0.000661634
0.000405531
0.000653682
0.00021977
0.000178414
0.000149357
0.000205957
0.000193128
0.000194895
0.000253253
0.000194148
0.000218521
0.000208933
0.00018948
0.000196595
0.00027487
0.000274901
0.000306391
0.000282084
0.000275693
0.000288779
0.000337482
0.000363953
0.00021608
0.000250097
0.000253498
0.000191599
0.000209601
0.00023201
0.000190502
0.000221098
0.000176905
0.000210545
0.000191762
0.000394662
0.000342566
0.000340254
0.000349139
0.000338571
0.000322516
0.000303006
0.000325406
0.000344012
0.000364827
0.00036233
0.000333938
0.000341044
0.000341329
0.000345481
0.000508495
0.000150239
0.000322734
0.000452191
0.000123953
0.000426364
0.000331277
0.000267416
0.000121832
0.000120401
7.74022e-05
0.000137123
6.16478e-05
0.000230606
0.000162068
0.000233778
0.000287925
0.000346233
0.000317363
0.000199079
0.000226187
0.000218334
0.000243609
0.000254018
0.000202622
0.000269253
0.000234546
0.00026975
0.000277903
0.000250742
0.000278486
0.000236927
0.000224183
0.000198637
0.000207916
0.000221951
0.000196492
0.000266045
0.000210627
0.000245767
0.000275148
0.000226553
0.000277208
0.00026346
0.000330492
0.000299457
0.00025196
0.000332046
0.000259097
0.000340082
0.000343863
0.000279752
0.000329612
0.000400203
0.000360511
0.000349743
0.000357776
0.000295261
0.000340638
0.000304365
0.000289247
0.000344349
0.000321861
0.000388113
0.00041568
0.000300557
0.000158467
0.000324276
0.000404307
0.00044217
0.000520989
0.000389659
0.000256692
0.000548193
0.000199261
0.000643248
0.000350685
0.00043301
0.000555297
0.000296707
0.000318881
8.34703e-07
0.000158455
0.000320129
0.000186962
0.000384076
0.000338029
0
0
0
0
0
0
5.38275e-05
0
0
0
0
0
0
0
0
0
0
0
0
0
2.20725e-08
0
0
4.46659e-08
5.04683e-08
2.80315e-08
0
0
0
0
0
0
0
0
0
0
0
0
0
0
0.000672123
0.000475687
0.000465848
0.000574389
0.000375116
0.000242433
0.000657232
0.000298452
7.76146e-05
0.000401415
0.000212164
0.000481337
0.000114903
0.000262848
0.000346882
0.000298969
0.000280136
0.000265448
0.000231102
0.000200132
0.000218257
0.000217375
0
0
0
0
0
0
0
0
0
0
0
0
0
0
0
0
0
0
0
0
0
0
0
0
0
0
0
0
0
7.88701e-05
0.00130525
0.000360337
0.000987698
0.000428131
0.000180356
0.000344045
0.000288533
0.00028658
0.000214582
0.000411555
0.000184876
0.00053193
0.000535879
0.000297368
0.000334756
0.000504432
0.000331387
0.000270649
7.26913e-10
0
0
0
0
0
0
0
0
0
0
0
0
0
0
0
0
0.000177799
0.000172351
0.000170917
0.000153886
0.000207013
0.000166036
0.000213796
0.000171253
0.000172289
0.00016276
0.000160416
0.000180927
0.000269996
0.000242946
0.000231958
0.00029739
0.000278184
0.000361226
0.000351011
0.000338926
0.000228612
0.000173463
0.000209578
0.000248432
0.000189827
0.000204556
0.000200578
0.000173245
0.000203732
0.000170062
0.000178501
0.00022842
0.000259989
0.000301498
0.000254213
0.000290149
0.000289057
0.000314698
0.000253606
0.000238087
0.000263713
0.000244614
0.00035618
0.000305149
0.000341578
0.000300197
0.000334571
0.000358242
0.000306802
0.000359904
0.000346653
0.000310618
0.000179023
0.000196417
0.000397353
6.94156e-05
0.000254603
0.000170625
8.98294e-05
2.42246e-05
0.000169982
0.000113424
0.000126638
0.00010496
0.000142009
6.69008e-05
0.000176165
0.000206567
0.000195011
0.000194232
0.000188419
0.000205008
0.000183967
0.000229887
0.000274716
0.000173143
0.000234096
0.000285555
0.00028663
0.000277152
0.000281596
0.000276131
0.00026719
0.000238821
0.000206091
0.000223394
0.000181913
0.000195486
0.000211596
0.00021927
0.000219916
0.00026077
0.000245354
0.000277448
0.000271251
0.000226932
0.000261413
0.000318823
0.000264426
0.000301298
0.000258512
0.000316386
0.000355292
0.000345203
0.000298041
0.000315799
0.000345214
0.000352852
0.00030745
0.000347406
0.000267334
0.000320477
0.000277659
0.000231059
0.000263884
0.000245595
0.000248844
0.000248924
0.000220451
0.00022479
0.000232522
0.000232421
0.000190894
0.00021913
0.000206894
0.000223892
0.000171724
0.000206761
0.000201884
0.000200403
0.000227488
0.000171221
0.000212778
0.000188893
0.000266974
0.000221309
0.000218767
0.000207386
0.000244113
0.000207891
0.000373628
0.000200011
0.000301808
0.000321934
0.000286318
0.000408282
0.000313951
0.000392541
0.000194798
0.00031209
0.000262106
0.000415982
0.000374644
0.000362308
0.000169848
0.000213869
0.000627893
0.000186802
0.000241587
0.000640999
0.00016568
0.000356165
8.83469e-05
0.000175316
0.00046709
0.000291524
0.000252055
0.0005218
0.000372529
0.000378617
0.000348906
0.000743646
0.000353385
0.00064838
0.000428179
0.00057731
9.70509e-05
0
0.000350987
0.000166565
0.000328785
0.000293206
0
0
0
0
0
3.47679e-09
0
0
0
0
0
0
0
0
3.68912e-09
0
0
0
0
0
0
0
0
0
0
0
0
0
0
0
0
4.8839e-10
0
0
0
0
0
0
9.55687e-10
0
1.25408e-09
1.21553e-09
0
0
2.34263e-09
2.78566e-10
0
0
0
0
0
0
0
0
0
0
0
0
0
0
0
0
0
0
0
0
0.000535712
0.000323905
0.000334142
0.000540992
0.000521074
6.84099e-05
0.000457503
0.000334157
0.000284203
0.000328418
0.000343079
0.000316783
0.000346392
0.000260673
0.000179261
0.000156266
0.000189426
0.000128199
0.000250732
0.000233768
0.00026987
0.000180879
0
0
9.54133e-10
8.17539e-10
0
0
0
0
1.88409e-09
0
0
0
0
0
0
0
0
0
0
0
0
0
2.41727e-09
5.55647e-10
0.000131351
0
0.000361351
0.000951412
0.000343841
0.000733801
0.000227039
0.000408979
0.00019131
0.000366137
0.000311098
0.000257965
0.000615855
0.000240811
0.000189207
0.000256073
0.000344994
0.00042894
0.000414645
0.000332268
6.58512e-10
0
0
0
0
2.39681e-11
0
0
1.02809e-11
0
0
0
0
0
0
0
0
0
0
0
0
0
0
0
4.98996e-07
9.9654e-07
0.000155629
0.000119372
0.00014041
0.00013305
0.000163552
0.000129922
0.000107345
0.000151466
0.000142772
0.000105822
0.000166906
0.000164562
0.000256478
0.000211732
0.000251422
0.000309812
0.000346008
0.000298188
0.000354441
0.000341939
0.000167656
0.000231025
0.000225953
0.00018164
0.000165254
0.000171335
0.000153635
0.000156996
0.000136382
0.000141563
0.000206063
0.00013768
0.000272347
0.000228575
0.0002657
0.00027079
0.000271636
0.000302762
0.000287226
0.000226226
0.000194201
0.000247998
0.000269891
0.000201271
0.000251596
0.000179144
0.00020053
0.000295374
0.000328447
0.000207112
0.00030894
0.000229597
0.000268702
0.00037662
0.000345047
0.000306256
0.000266035
0.000357188
0.000346157
0.000367579
0.000345604
0.000386981
0.000281052
0.000342377
0.000321607
0.000302178
0.000321168
0.000341303
0.000300795
0.000369288
0.000364052
0.000345583
0.000193235
0.000151732
9.07079e-05
0.000254591
4.50976e-05
8.73942e-05
0.000129079
0.000172472
0.000129531
0.000141298
6.93992e-05
7.40045e-05
0.000169957
8.86742e-05
0.000106741
6.11311e-05
0.000126931
0.000164672
0.00014405
0.000220857
0.000129672
0.000244397
0.000283451
0.000209345
0.000293808
0.000251263
0.000255916
0.000279887
0.000275786
0.000236527
0.000198632
0.000250652
0.000184406
0.000175585
0.000180448
0.000170195
0.000216176
0.000212482
0.000220492
0.000253915
0.000248551
0.000281073
0.000260854
0.000226007
0.000307329
0.000268348
0.00026636
0.000290988
0.000275473
0.000294945
0.000314647
0.000326966
0.000303351
0.00029344
0.000295562
0.000306404
0.000303243
0.000256525
0.000219291
0.000259117
0.000200678
0.000254627
0.000207137
0.000193086
0.000237614
0.000158712
0.000156992
0.000175171
0.00013459
0.000191351
0.00012489
0.000217337
0.000218212
0.00025999
0.000258958
0.000241035
0.000310022
0.000313874
0.000498655
0.000308578
0.000429759
0.000202247
0.000304634
0.000409237
0.000383177
0.000331734
0.000324138
0.000286368
0.000277838
0.000290306
0.000280924
0.000289995
0.000303985
0.000162973
0.000337901
0.000129081
0.000241093
0.000150701
9.99016e-05
0.000106493
9.22956e-05
0.000275708
0.000217435
0.000143537
0.000168735
0.000124764
0.000321917
0.000386814
6.43832e-05
0.000392212
0.000376751
0.000607175
0.000966859
0.000493934
0.000430543
0.000723395
0.000268759
0.000611977
0
0
0
0.000180895
0.000269904
0.000327725
0
0
0
4.08703e-09
0
0
0
0
0
0
0
5.22572e-09
0
0
0
0
0
0
0
0
1.97832e-11
0
0
0
0
0
0
0
0
0
0
0
0
0
0
5.13285e-10
0
0
0
0
0
0
0
0
0
0
0
0
0
0
0
0
0
0
0.000372048
0.000559543
0.000461219
0.000201805
0.000131305
0.000450648
0.000542131
0.000169632
0.00037561
0.000197532
0.000258246
7.68986e-05
0.000283392
0.000278872
0.000152119
5.92286e-05
0.000151199
0.000120924
0.000166943
0.00012578
0.000226862
0.000194292
4.62781e-10
0
2.67458e-10
0
0
0
0
0
0
0
0
0
0
0
0
0
0
0
0
0
0
0
0
0
0.000111701
0.000400996
0.000515927
0.00077586
0.000256142
0.000640271
0.000257078
0.000324538
0.000277596
0.000477337
0.000330173
2.25141e-05
5.798e-05
0.000272044
0.000365413
0.000506832
0.000149055
0.000557832
0.000269683
0.000266923
0
0
0
0
0
0
0
0
0
0
0
0
0
0
0
0
0
0
0
0
0
0
4.03603e-07
0
0
0
0
0
0
0
0
0.000124205
8.14094e-05
0.000123717
0.000109746
0.000115972
7.94544e-05
4.53184e-05
0.000111801
0.000111695
4.73208e-05
0.00011313
0.000114417
9.345e-05
8.05716e-05
0.000143062
0.000260518
0.000213083
0.000259201
0.000303999
0.000339769
0.000299552
0.000371214
0.000362826
0.000221054
0.000158328
0.000180373
0.000237798
0.000129364
0.000131384
0.000127776
7.77501e-05
9.13248e-05
8.8558e-05
0.000110595
0.000199663
0.000298136
0.000272115
0.000235442
0.000227897
0.000139006
0.000152704
0.000179892
0.000204327
0.0001549
8.65445e-05
0.000187989
4.05658e-05
0.000224405
0.000101355
0.000238679
0.000279694
0.000299269
0.000292497
0.000253127
0.000277082
0.000298927
0.000292157
0.000227503
0.000312254
0.000251124
0.000276108
0.000253995
0.000271581
0.000272525
0.00035241
0.000323954
0.000314966
0.000303652
0.000312053
0.000315632
0.000289046
0.000214846
0.000267456
0.000253317
0.000290812
0.000267531
0.000280986
0.000217432
0.000174842
0.000322249
0.000196017
0.000352625
0.00015855
0.000304353
0.000188325
0.00028735
0.000236901
0.000360846
0.000334098
0.000295913
0.000357692
0.000345142
0.000388758
0.00032685
0.000326081
0.000278858
0.000413907
0.000365369
0.000276244
0.000329816
0.000356845
0.000350622
0.000309577
0.000301054
0.000306239
0.000329509
0.000337195
0.000345745
0.000370018
0.000271415
0.000262077
0.000267988
0.000239811
0.000249583
0.00024987
0.000223358
0.000203822
0.000158211
0.000227256
0.000202585
0.000152905
0.00010484
6.04502e-05
1.54176e-05
3.90363e-05
2.92775e-05
0.000117601
0.000193743
0.000154884
0.000205301
0.000149192
0.000206182
9.19221e-05
0.000151519
0.000155024
0.000154093
7.21805e-05
9.37554e-05
0.000161007
3.32235e-05
0.000167864
5.19915e-05
0.000116995
0.000205757
7.96232e-05
0.000172589
0.000199052
0.000100312
0.000229473
0.000194964
0.000266229
0.000270687
0.000170411
0.000241615
0.000148455
0.000240907
0.000171092
0.000163784
0.000207953
0.000148908
0.000167862
0.000192014
0.00017382
0.000212627
0.00022356
0.000233963
0.000232952
0.000247041
0.000273259
0.000195972
0.000248228
0.000282551
0.000276525
0.000280129
0.000284636
0.000283704
0.000278728
0.000270818
0.000287137
0.00027089
0.000257748
0.000225323
0.000252262
0.000216565
0.000205604
0.000160273
0.000194048
0.000162582
0.000187198
0.00029581
0.000146514
0.00013696
0.000140712
0.000130434
0.000146334
0.000124094
0.000205907
0.000271357
0.000151034
0.000189033
0.000257406
0.000323896
0.000282843
0.000453688
0.000174789
0.000466053
0.000718651
0.000592765
0.000434336
0.000104852
0.000412508
0.000289834
0.000211296
0.000258998
0.000584503
0.000255211
0.000319325
0.000150353
0.000269756
0.000194548
0.000205044
0.000204652
0.00023193
0.000136132
0.000158837
0.00017459
0.000126204
0.0005189
0.00031471
0.000316124
8.01515e-05
0.000616212
0.000601045
0.000478593
0.000659308
0.00035638
0.000206283
0
0
0
5.91171e-10
7.00853e-10
0.000261679
5.8932e-06
0.000894306
0.000630336
0
0
0
0
0
0
0
0
2.29868e-09
0
0
0
0
0
0
0
0
2.75379e-07
0
0
0
0
0
0
0
0
0
0
0
0
9.99803e-10
0
0
0
0
3.25787e-09
0
0
0
0
0
0
0
0
0
0
0
0
0
0
0
0
0
0
0
2.23057e-09
0
0
0
0
2.47822e-09
0.000118079
0.000129402
0.00017127
6.71489e-05
0.000181346
0.00012915
0.000524816
0.000256269
0.000189396
0.000325784
0.00057962
9.41107e-05
0.000338066
3.77588e-05
0.000349644
0.000161338
0.000116174
0.00021803
0.000191865
0.000147443
0.000100936
3.52637e-05
9.00985e-05
0.000136739
0.000158987
0
0
0
0
0
0
0
0
0
0
0
0
0
0.000445682
0.000534958
0.000659001
0
0
0
0
0
0
0
0
0.000180863
0
0.000223124
0.000726282
0.000353341
0.00037895
0.000252046
0.000174129
0.000348396
0.000256026
0.000379199
0.00037453
0.000430464
0.000346786
0.000394628
0.000175086
0.00018643
0.000380943
0.0003876
0
2.78156e-10
0
0
0
0
0
0
0
0
0
0
0
0
0
0
0
0
0
0
0
0
0
0
0
0
0
0
0
0
0
0
0
0
0
0
0
9.72686e-05
5.88203e-05
6.48867e-05
9.42316e-05
6.56709e-05
8.99318e-05
0.000107077
6.91182e-05
5.73596e-05
3.88165e-05
6.73054e-05
2.96424e-05
8.4663e-05
7.88521e-05
1.35131e-05
6.16305e-05
0.00014009
0.000255906
0.000206924
0.000272627
0.000231985
0.000316786
0.000287887
0.000358632
0.000337707
0.000174769
0.000119227
0.00013253
0.000209274
5.46253e-05
5.95439e-05
3.09979e-05
2.95265e-05
0.000147942
9.95191e-05
9.83231e-05
4.53869e-05
0.000329774
0.00026283
0.000282789
0.0002654
0.000180994
0.000252982
0.000108304
0.000140837
0.000326794
0.000262477
0.000273527
0.000296752
0.000308786
0.000306776
0.000342808
0.000306434
0.000355225
0.000331806
0.000285841
0.000357626
0.000351819
0.000248472
0.000263541
0.000202476
0.000252343
0.000275013
0.000263476
0.000276959
0.00023207
0.000243142
0.000144093
0.000309224
0.000298584
0.00021039
0.000250243
0.000296445
0.000269198
0.000335704
0.000324409
0.000306063
0.000343293
0.0002994
0.000271396
0.000391732
0.00036971
0.000364479
0.000430918
0.000311636
0.000421082
0.000385428
0.000376219
0.000280739
0.000271827
0.000398414
0.000357842
0.00032734
0.000309645
0.000364085
0.000324215
0.00031162
0.000305819
0.000372504
0.000374257
0.000363327
0.000363713
0.000156907
0.000405502
0.000217573
0.000227075
0.000234528
0.000204688
0.000198823
0.000201035
0.000179364
0.000123796
0.000163109
0.000122726
7.62703e-05
5.46052e-05
8.29295e-05
0.000122068
0.000141921
0.00022989
0.000187912
0.000144928
0.000171686
0.000151661
0.000184121
0.000189205
0.000237067
7.97074e-05
7.86333e-05
4.49114e-05
0.000110128
0.000116587
0.000120191
5.52668e-05
0.000137671
0.000112372
3.1193e-05
0.000133719
9.58993e-05
0.000143558
7.21578e-05
0.000128577
4.47873e-05
3.47653e-05
0.000197376
0.000151422
0.000215337
9.88046e-05
0.000252883
0.000257208
9.3999e-05
0.000264485
0.000193631
0.000103385
0.000226436
0.00020677
0.00018324
0.000189802
0.000152509
0.000143805
0.000197532
0.000221601
0.000184223
0.000230124
0.000198026
0.00028646
0.000141584
0.000293407
0.000245287
0.000301941
0.00019512
0.000293827
0.000266205
0.000267727
0.000288831
0.000276232
0.000254743
0.000216195
0.000211445
0.000222649
0.000214313
0.000189386
0.000135689
0.000257679
2.15326e-05
0.000283746
0.000300953
0.000216996
8.28757e-05
0.000120074
0.00011265
8.11205e-05
0.000145934
0.000130467
0.000161478
0.000250752
0.000314992
0.000209801
0.000201832
0.000325206
0.000277835
0.000254423
0.0003206
0.000603234
0.000772121
0.000132228
0.00067363
0.000434016
0.000296721
0
0.000724437
2.29173e-06
0.000278996
8.12039e-05
0.000182667
0.000287885
0.000250494
0.000125615
4.81622e-05
0.000176801
0.0002464
4.52496e-05
0.000104185
0.000119383
5.30855e-05
0.000182456
0
0
2.53931e-05
0.000490187
0.000657667
1.89965e-06
3.3901e-06
0
1.63913e-09
0
0
1.75126e-09
4.74202e-10
0
0
0
0
0
0
0
0
0
0
0
0
3.11158e-07
0
0
0
0
0
0
0
0
2.27905e-07
0
0
0
0
1.26136e-09
0
0
0
0
0
0
0
1.35224e-09
1.94619e-09
0
0
1.88159e-09
1.72598e-09
0
0
0
0
2.99115e-09
0
3.94578e-09
0
0
0
0
0
0
0
0
0
0
0
0
0
0
0
0
0
1.3897e-09
0
0
0
0
0
0
0
0
0.000133442
0.00030511
0.000177791
7.61131e-05
0.000129652
0.000161992
0.000267045
0.000333053
0.000299528
0.000116358
0.000143101
0.000212325
0.000175453
0.000394497
0.000236239
0.000254567
6.86402e-05
0.000131471
8.58584e-05
0.000100609
0.000172357
7.27029e-05
6.32453e-05
5.44512e-05
6.28699e-05
6.18214e-05
2.41725e-05
0
0
0
0
0
0
0
0.000462956
0.000643436
0.000534569
0
0
0
0
0.000393266
0.000177475
0
0
0
1.43794e-11
0
0
3.39384e-06
6.25376e-06
3.41451e-05
0.000381828
0.000210108
0.000465584
0.000785894
0.00030358
0.000409872
0.00032062
0.000354866
2.48302e-05
0.000316079
0.000349883
0.000157819
0.000112928
9.44599e-05
0.000376384
0.000335053
0
0
2.62828e-10
0
0
0
0
7.3405e-11
0
0
0
0
0
0
0
1.90003e-09
0
8.74284e-10
1.45101e-09
0
0
0
0
0
0
0
0
0
0
0
1.6157e-09
0
0
0
0
0
0
0
0
0
0
0
0
0
7.29474e-10
5.81919e-05
8.01277e-05
2.86287e-05
8.33006e-05
5.20961e-05
7.86947e-05
5.06156e-05
7.68496e-05
7.6195e-05
7.44065e-05
7.66735e-05
7.2848e-05
6.50706e-05
2.60854e-05
3.10583e-05
7.67232e-05
3.15722e-05
6.46825e-05
4.5878e-05
0.000234198
0.000197017
0.000212091
0.000208776
0.000268877
0.000265498
0.000303546
0.000320627
0.000118962
7.97057e-05
0.000141022
0.000209313
2.09322e-05
7.20046e-05
7.6948e-05
0.000107106
2.75261e-05
3.12466e-05
7.52639e-05
9.18662e-05
0.000295742
0.000293044
0.000237283
0.000387308
0.000405633
0.000404848
0.000599681
0.000326326
0.000655891
9.62146e-05
0.000138879
7.61245e-05
0.000209423
8.14242e-05
0.000309958
0.000306966
0.000302771
0.000308873
0.000362828
0.000297932
0.000349522
0.000253718
0.000361375
0.00027527
0.000323761
0.000306763
0.000317716
0.000369409
0.000214032
0.000208934
0.000237868
0.000245107
0.000258345
0.000258803
0.000213082
0.000210261
0.000221782
0.000242836
0.000224442
0.000195773
0.000287636
0.000246835
0.000255474
0.000261684
0.00035782
0.000326947
0.000325443
0.00039582
0.00038014
0.00032163
0.000416667
0.000489372
0.000579563
0.00061488
0.000252491
0.00040816
0.000533185
0.000536362
0.000372192
0.000417982
0.000339465
0.000350312
0.000381763
0.000396079
0.000330832
0.000340029
0.00041853
0.000430321
0.000408882
0.000363822
0.000624813
0.000198996
0.000354551
0.000260828
0.000253545
0.000170464
0.000218589
0.000178015
0.000168675
0.000110775
0.000128462
0.000115171
8.73998e-05
0.000107071
2.16453e-05
0.000131283
0.000187528
0.000249536
0.000188568
0.000293649
0.000277048
0.000110985
0.000120227
0.000287778
0.000385569
0.000160152
5.37715e-05
0.000135232
3.90748e-05
1.18424e-05
4.22748e-05
2.22327e-05
2.03768e-05
1.76501e-05
0.000138598
0.000113981
0.000155551
0.000101549
0.000108383
2.9292e-05
0.000130482
0.000191588
4.62043e-05
0.000139571
1.58174e-05
5.44245e-05
0.000228796
0.00019871
0.000149009
0.000194897
0.000169135
0.000210434
0.000194943
0.00016267
0.000193628
0.000193177
0.000135374
0.00022483
0.000139742
0.00022762
0.000195247
0.000224568
0.000188766
0.000272853
0.000166472
0.000238499
0.000249894
0.000252975
0.000252708
0.000236052
0.000288899
0.000266403
0.00020878
0.000245513
0.000205128
0.000183414
0.000138919
0.000190909
0.000153354
9.38053e-05
0.000121152
0.000174656
9.0154e-05
0.000160733
0.0001159
7.39286e-05
9.78774e-05
0.000144437
8.2566e-05
0.000181947
0.000174038
0.000203086
0.000282134
0.000287949
0.000242895
0.000240903
0.000323454
0.000303114
0.000360991
0.000273278
0.000551972
0.000919321
0.000339174
0.000111604
0
0
1.71684e-06
0
0
0.000134241
0
0.000182345
0.000218608
0.000214181
9.50534e-05
9.14387e-05
5.46178e-05
3.81305e-05
5.56818e-05
2.55626e-05
5.39353e-05
7.5068e-05
2.27302e-05
5.32001e-06
0
0
0
0
0
4.12078e-09
2.52359e-09
0
0
0
0
0
0
0
0
1.60028e-07
0
0
0
0
0
0
2.1195e-06
0
0
0
0
0
0
0
0
0
0
0
0
0
0
0
0
0
0
0
0
0
0
0
0
0
0
0
0
0
0
0
0
0
0
0
0
0
0
0
0
0
0
0
0
0
0
0
0
0
0
0
0
0
0
0
0
0
0
0
0
0
0
0
0
0
0
0
0
0
1.94291e-11
0
0
0
0
0.000293106
0.00037844
0.000351167
0.000276386
0.000331261
0.000408474
0.000254507
0.000103651
0.000156756
5.558e-05
0.000234759
0.000287038
0.000202512
0.000284689
0.00021181
8.94065e-05
0.000304138
0.000432793
0.0003775
0.000193633
0.000329046
0.000188812
0.000237853
5.30711e-05
2.02228e-05
7.42351e-05
5.65502e-05
1.1132e-05
9.71582e-05
0
0
0
0
0.0004974
0.000653176
0.000599464
0
0
0.000339218
0.000249401
0
0
0
0
2.20895e-05
9.58473e-05
2.65814e-09
3.9568e-09
0
2.92015e-09
1.41122e-05
0
1.31663e-05
7.06464e-05
0.000236115
0.000261279
0.000477325
0.000466932
0.000805521
0.000372593
0.000476091
0.000329182
0.000502549
0.000247238
0.000476456
0.000131813
0.000388099
0.000254189
0.000453623
0
7.9629e-10
0
0
0
0
0
1.8489e-11
0
0
4.90382e-11
0
0
0
1.86061e-10
0
0
0
0
0
0
0
0
0
0
0
0
0
0
0
0
0
0
0
0
0
1.1697e-09
0
1.68296e-09
0
0
0
0
0
0
0
0
0
0
0
0
0
0
0
0
0
0
3.62746e-05
4.33305e-05
8.37662e-05
4.6603e-05
8.77967e-05
2.29043e-05
1.3425e-05
4.28653e-05
1.1804e-05
2.45662e-05
1.70614e-05
6.32646e-05
4.59167e-05
3.18178e-05
6.08379e-06
3.91957e-05
1.46751e-05
1.9942e-05
2.985e-05
7.88938e-05
4.04546e-05
0.000232574
0.000237448
0.000255098
0.000195323
0.000157808
0.000128966
0.000183887
0.000202751
0.00012762
8.76693e-05
0.000154685
5.60636e-05
2.60522e-05
4.57317e-05
2.5618e-05
0.000103794
5.30087e-05
3.10066e-05
7.75645e-05
5.55384e-05
0.000607376
0.000467467
0.000211858
0.000524733
0.00103802
0.00037576
0.000195321
0.000581354
8.4558e-05
0.00081394
0.000381606
0.000280202
0.000373685
0.000343739
0.000289901
0.000330971
0.00033469
0.000328546
0.000338589
0.000479696
0.000356718
0.00030684
0.000432978
0.00037682
0.000260708
0.000405258
0.000292756
0.000189507
0.000179438
0.000212403
0.00023324
0.000298066
0.000287463
0.000200179
0.00019617
0.000237026
0.000255999
0.000169813
0.00019865
0.000313851
0.000299483
0.000258171
0.000229791
0.000310185
0.000253739
0.000450479
0.000377116
0.000470065
0.000538024
0.000472523
0.000172148
0.000365204
0.000604832
0.000374903
0.000294508
0.000285365
0.000568666
0.000448893
0.000441436
0.000409534
0.000401052
0.000466952
0.000500035
0.000403518
0.000402575
0.000505572
0.000457143
0.000348495
0.000319879
0.000200595
0.00023071
0.000190305
0.000315568
0.000474351
0.000195023
0.000296966
0.000131092
0.000153639
0.000291297
0.000247999
0.000123054
0.000110344
0.000130489
6.08395e-05
0.000117733
0.000126381
0.000121533
0.000126498
0.000239184
0.000238843
0.000300327
0.000362687
0.00035641
0.000349325
0.000145231
7.68542e-05
0.00045437
0.000414526
0
2.12257e-05
0
6.05157e-05
4.70313e-05
4.78986e-05
8.79793e-06
4.33312e-05
8.97493e-05
3.38712e-07
0
0
0
5.19964e-06
7.50333e-05
2.24723e-05
2.97478e-05
2.4657e-05
0.000138612
0.00019287
0.000150552
0.000216625
0.000184532
0.000138808
0.000146966
0.00013549
0.000151907
0.000146893
0.000202643
0.000157965
0.000141704
0.000189214
0.000243715
0.000156005
0.000191233
0.00021059
0.000164231
0.000199691
0.000190275
0.000188719
0.000182417
0.000202461
0.000165261
0.000173843
0.000174265
0.000254936
0.000220456
0.000138552
0.000219407
0.000124766
6.07625e-05
0.000110187
7.34669e-05
0.000158845
0.000149005
8.51354e-05
2.97886e-05
8.96035e-05
7.64524e-05
0.000111111
0.000136577
8.10644e-05
0.00020451
0.000114605
0.000183627
0.000265199
0.00028283
0.000235897
0.000261627
0.000288951
0.000203305
0.000313755
0.000222454
0.000168144
0.000194755
8.99735e-05
0.000203835
0.000328784
0
0
0
0
0
0
0
0
0
0.000147642
0.000124533
0
0
7.13695e-05
2.65473e-05
8.677e-05
3.77253e-05
0.00010318
5.88088e-05
0
0
0
0
0
0
0
0
0
0
0
0
0
0
0
0
2.46262e-07
0
0
0
2.9041e-07
0
0
0
0
0
0
0
0
0
0
0
0
0
0
0
0
0
0
1.90674e-06
0
0
0
0
0
7.12903e-10
7.66399e-10
1.42744e-09
0
0
0
0
0
0
0
0
0
0
0
0
0
0
0
0
0
0
0
0
0
0
0
0
0
0
0
0
0
0
0
0
0
0
0
0
0
0
0
0
0
2.90188e-09
0
6.76892e-10
0
2.47427e-09
0
0
0
0.000453924
0.000496827
0.000500096
0.000432745
0.000486795
0.000358165
0.000417073
0.0001517
4.07339e-05
0.000186968
0.000241625
0.000317474
0.000246459
0.000298428
0.000284458
0.000202484
0.000243598
0.000274432
0.000330661
0.000215952
0.00021842
0.00013655
4.1802e-05
0.000212258
0.000440831
0.000154935
0.00014008
0.000147469
9.81341e-05
6.21693e-05
2.25724e-05
9.60418e-05
0.000111959
0
0
0.000659599
0.000632998
0.000539626
0
0
0.000189177
0.000243168
0
0
6.51096e-05
0.000148808
0
0
0
0
3.10705e-05
2.17785e-05
0
3.31861e-09
0
0
0
0.000241017
0.00041289
0.00023175
0.000183759
0.000469062
0.000786539
0.000597981
0.000438387
0.000506104
0.000374985
0.000534736
0.000374184
0.000392255
0
0
0
0
0
0
4.09234e-09
2.00573e-09
0
0
0
0
0
0
0
0
0
1.35695e-08
0
0
0
0
0
0
0
5.0764e-10
0
0
3.62477e-09
0
0
0
0
0
0
0
0
0
0
0
0
0
0
0
0
0
0
0
0
0
0
2.14551e-09
0
0
0
0
0
0
0
0
0
0
0
2.85755e-05
9.35032e-05
4.7771e-05
9.28248e-05
5.34904e-05
2.74733e-05
2.83043e-05
7.4174e-05
8.28017e-05
3.482e-05
1.66043e-05
7.96983e-06
6.05922e-05
3.97071e-05
3.26029e-05
4.78082e-05
6.43747e-05
2.42824e-05
3.57804e-05
3.58959e-05
1.50835e-05