/*--------------------------------*- C++ -*----------------------------------*\
  =========                 |
  \\      /  F ield         | OpenFOAM: The Open Source CFD Toolbox
   \\    /   O peration     | Website:  https://openfoam.org
    \\  /    A nd           | Version:  8
     \\/     M anipulation  |
\*---------------------------------------------------------------------------*/
FoamFile
{
    version     2.0;
    format      ascii;
    class       volScalarField;
    location    "13440";
    object      Hclip;
}
// * * * * * * * * * * * * * * * * * * * * * * * * * * * * * * * * * * * * * //

dimensions      [0 1 0 0 0 0 0];

internalField   nonuniform List<scalar> 
526318
(
0.741908
0.698392
0.772418
0.685384
0.7571
0.709839
0.727009
0.645261
0.705346
0.582389
0.563424
0.6817
0.627725
0.670472
0.630599
0.654205
0.629341
0.828765
0.738104
0.780917
0.776798
0.729527
0.489267
0.733083
0.617281
0.483465
0.754545
0.75319
0.756002
0.768543
0.798387
0.84355
0.82706
0.706443
0.709634
0.681349
0.680155
0.775452
0.700562
0.642779
0.701253
0.684179
0.341158
0.399411
0.305381
0.350185
0.325104
0.448554
0.632062
0.526392
0.615801
0.615123
0.56649
0.529003
0.0256628
0.274683
0.266964
0.0658176
0.786341
0.799108
0.816381
0.769638
0.716281
0.843231
0.838534
0.798674
0.786554
0.785248
0.687578
0.679812
0.793856
0.570784
0.625895
0.520407
0.474052
0.46704
0.565277
0.55907
0.47701
0.513558
0.596576
0.594717
0.549502
0.506527
0.533671
0.602236
0.599008
0.579311
0.525915
0.603669
0.505263
0.455246
0.452213
0.380253
0.375577
0.379451
0.379838
0.376674
0.373876
0.374583
0.001
0.001
0.001
0.001
0.001
0.001
0.285091
0.095443
0.408936
0.375137
0.415888
0.53026
0.755781
0.646288
0.756476
0.769985
0.835846
0.806244
0.852257
0.371261
0.370529
0.373271
0.376425
0.331714
0.371196
0.28368
0.324795
0.234585
0.284835
0.234891
0.233543
0.224299
0.198524
0.192471
0.217059
0.159842
0.212958
0.161861
0.182277
0.125168
0.137239
0.154507
0.181526
0.171481
0.127496
0.12759
0.142983
0.13156
0.127838
0.135096
0.147882
0.135232
0.136569
0.140968
0.136265
0.0997592
0.14184
0.137183
0.102388
0.063598
0.143431
0.0881743
0.146552
0.638212
0.733122
0.676148
0.661717
0.464179
0.5356
0.466183
0.465114
0.467839
0.465091
0.487666
0.468022
0.403131
0.3731
0.339365
0.278815
0.337887
0.379994
0.380428
0.378945
0.266047
0.319796
0.205373
0.215152
0.223782
0.214994
0.214748
0.220553
0.209778
0.210831
0.207993
0.196379
0.176833
0.201315
0.194033
0.165871
0.14508
0.174974
0.154873
0.149151
0.169201
0.158904
0.159777
0.124732
0.138522
0.171355
0.175567
0.616854
0.640209
0.672923
0.639954
0.626746
0.621034
0.622937
0.501688
0.538953
0.283138
0.269794
0.262227
0.386016
0.525725
0.396378
0.435599
0.436902
0.379074
0.364919
0.001
0.001
0.001
0.207551
0.001
0.001
0.001
0.001
0.001
0.001
0.83723
0.818
0.866347
0.857737
0.827593
0.819458
0.727882
0.810397
0.655563
0.599819
0.600713
0.601773
0.602439
0.599673
0.587356
0.58899
0.505187
0.569628
0.386579
0.4418
0.371938
0.384646
0.00100536
0.001
0.001
0.00100202
0.001
0.001
0.001
0.001
0.380386
0.196507
0.431225
0.435031
0.543648
0.645864
0.765963
0.770568
0.807239
0.781884
0.849893
0.881022
0.351347
0.351828
0.311718
0.283062
0.180115
0.216322
0.14715
0.152529
0.143774
0.138782
0.126151
0.133212
0.061256
0.0828786
0.114848
0.154552
0.206512
0.173132
0.135298
0.138628
0.0743012
0.0600563
0.114242
0.167051
0.0940913
0.124651
0.128652
0.0957117
0.0882809
0.0629251
0.0561065
0.017256
0.0171843
0.0224014
0.00979532
0.138388
0.172951
0.134789
0.1679
0.535459
0.494799
0.393156
0.48117
0.403212
0.455576
0.467518
0.455046
0.464899
0.466013
0.379177
0.289803
0.221923
0.203653
0.281352
0.21773
0.20711
0.319588
0.206234
0.258194
0.196386
0.196105
0.207252
0.194804
0.210272
0.204458
0.204768
0.20826
0.208456
0.206821
0.216194
0.211279
0.222555
0.219039
0.218321
0.200592
0.21466
0.200644
0.174622
0.171951
0.201578
0.227167
0.217003
0.200847
0.183337
0.204436
0.246436
0.247339
0.267937
0.221559
0.251568
0.26823
0.30987
0.271613
0.266067
0.291715
0.317887
0.445974
0.523661
0.440654
0.469761
0.547935
0.614162
0.519741
0.385253
0.503106
0.402091
0.418366
0.154613
0.103776
0.130492
0.117054
0.23315
0.354372
0.291282
0.354899
0.360585
0.37557
0.359504
0.001
0.001
0.001
0.001
0.0123195
0.001
0.001
0.00100998
0.001
0.00100962
0.001
0.00100889
0.001
0.001
0.001
0.001
0.861481
0.851956
0.887522
0.875423
0.85459
0.827743
0.751141
0.667223
0.5995
0.612308
0.591183
0.587695
0.568909
0.571508
0.548466
0.549512
0.500048
0.541083
0.46409
0.41034
0.352102
0.313923
0.001
0.00107323
0.00107323
0.001
0.001
0.001
0.001
0.00107324
0.00107321
0.00107321
0.00100999
0.00100984
0.001
0.00100942
0.001
0.001
0.001
0.001
0.001
0.001
0.001
0.001
0.001
0.001
0.0860522
0.001
0.295929
0.453614
0.472399
0.561196
0.781538
0.675252
0.792787
0.793528
0.807003
0.837381
0.869406
0.886154
0.269815
0.271455
0.224867
0.24982
0.188613
0.151815
0.144818
0.14701
0.138274
0.143723
0.0957668
0.0893968
0.0403594
0.0501081
0.109963
0.0769157
0.0534267
0.10081
0.0962973
0.119599
0.0185715
0.0100588
0.0309459
0.0440227
0.0464128
0.00269746
0.00741519
0.00303516
0.00877678
0.001
0.001
0.288799
0.265594
0.265833
0.268725
0.283242
0.388165
0.352111
0.327769
0.206489
0.255596
0.243552
0.243327
0.147021
0.087289
0.260429
0.376793
0.259084
0.269674
0.24207
0.328358
0.306616
0.382911
0.414949
0.338371
0.317316
0.354285
0.234465
0.202263
0.198742
0.204342
0.121199
0.173304
0.0965864
0.0491968
0.0320062
0.148787
0.150167
0.197154
0.197701
0.196979
0.200292
0.195924
0.204514
0.199679
0.210473
0.202071
0.221493
0.213805
0.222465
0.222136
0.248779
0.235597
0.258157
0.260432
0.208474
0.192598
0.255734
0.239352
0.231336
0.244436
0.22724
0.216212
0.269619
0.244227
0.349521
0.368319
0.313246
0.354577
0.361263
0.326366
0.415848
0.392613
0.455115
0.477987
0.498922
0.415878
0.421431
0.420039
0.382831
0.366128
0.32724
0.421525
0.269573
0.251948
0.297524
0.323733
0.001
0.0476463
0.13045
0.246912
0.286337
0.317441
0.218869
0.189727
0.151134
0.0932967
0.001
0.001
0.001
0.001
0.001
0.001
0.001
0.001
0.00100979
0.001
0.001
0.001
0.001
0.001
0.001
0.001
0.001
0.001
0.001
0.001
0.001
0.00101
0.001
0.001
0.001
0.001
0.00118307
0.001
0.00107384
0.001
0.00118286
0.00118287
0.001
0.001
0.001
0.001
0.001
0.001
0.001
0.001
0.00100959
0.001
0.00100965
0.001
0.001
0.001
0.855626
0.866345
0.887687
0.875106
0.855081
0.7805
0.599971
0.687454
0.567681
0.572098
0.551023
0.549468
0.541564
0.542128
0.536717
0.536254
0.479922
0.452471
0.354437
0.393718
0.252161
0.288897
0.001
0.001
0.001
0.001
0.001
0.001
0.001
0.001
0.00101
0.001
0.001
0.001
0.001
0.001
0.001
0.001
0.001
0.00100737
0.001
0.001
0.001
0.001
0.001
0.001
0.001
0.001
0.00101
0.001
0.001
0.001
0.001
0.001
0.001
0.001
0.269476
0.102412
0.47788
0.437559
0.504323
0.609751
0.71465
0.794945
0.806149
0.793482
0.836375
0.86604
0.851244
0.850837
0.00116048
0.001
0.001
0.001
0.001
0.001
0.001
0.001
0.001
0.001
0.001
0.001
0.001
0.001
0.001
0.00101
0.001
0.248651
0.249736
0.250087
0.212277
0.13542
0.173979
0.093264
0.0887938
0.0525778
0.0479919
0.00509263
0.001
0.0305394
0.0264763
0.001
0.0214116
0.0220462
0.0693099
0.0506902
0.0539654
0.001
0.001
0.001
0.001
0.001
0.001
0.001
0.001
0.001
0.001
0.001
0.001
0.486131
0.457351
0.492499
0.50916
0.453049
0.410264
0.582641
0.60357
0.668255
0.681891
0.221544
0.268556
0.312167
0.403539
0.221132
0.16925
0.201161
0.202308
0.0398167
0.0877225
0.142835
0.0290545
0.245842
0.24608
0.2469
0.244673
0.269593
0.244577
0.259326
0.273804
0.1551
0.14085
0.0482516
0.143984
0.113325
0.0783622
0.0395113
0.0570603
0.001
0.0172228
0.001
0.0832067
0.145091
0.0770659
0.145978
0.195456
0.197067
0.196763
0.199701
0.200485
0.222421
0.215642
0.235272
0.22958
0.245916
0.245103
0.265729
0.258671
0.266959
0.264522
0.271702
0.271248
0.313178
0.279615
0.247972
0.248117
0.316226
0.283464
0.289571
0.32935
0.370815
0.364033
0.367764
0.363686
0.401928
0.452153
0.513923
0.533687
0.541325
0.522973
0.668762
0.603835
0.734372
0.772177
0.762314
0.801665
0.854185
0.71945
0.807942
0.829348
0.902294
0.953286
0.975661
0.998683
1.02795
0.970288
1.02533
0.983721
1.06281
1.06493
1.11568
1.08447
1.14268
1.17964
1.16299
1.11823
1.17563
1.20531
1.16668
1.17002
1.22766
1.20778
1.23955
1.17963
1.18201
1.24064
1.21153
1.16345
1.16535
1.19458
1.22983
0.221372
0.182999
0.355146
0.349741
0.32312
0.315722
0.318443
0.0860595
0.20945
0.001
0.001
0.0488825
0.0335846
0.001
0.001
0.001
0.14832
0.0520275
0.0557726
0.001
0.001
0.001
0.00100741
0.001
0.00101
0.001
0.001
0.001
0.001
0.00101
0.001
0.001
0.001
0.001
0.00166972
0.001
0.001
0.001
0.001
0.001
0.001
0.001
0.001
0.00134445
0.001
0.001
0.001
0.001
0.001
0.001
0.001
0.001
0.001
0.00100829
0.001
0.001
0.001
0.00100928
0.00100997
0.001
0.001
0.001
0.001
0.001
0.001
0.00101
0.001
0.001
0.00102759
0.00107683
0.001
0.00105674
0.001
0.00101
0.00101
0.001
0.001
0.001
0.001
0.001
0.001
0.001
0.001
0.0010078
0.001
0.001
0.001
0.001
0.001
0.001
0.001
0.001
0.00101
0.001
0.001
0.844615
0.832098
0.804733
0.804493
0.718588
0.792991
0.615795
0.551169
0.543043
0.541875
0.542781
0.542308
0.48013
0.485406
0.331065
0.290426
0.248955
0.423086
0.423928
0.371282
0.37488
0.374262
0.001
0.001
0.00108725
0.00108839
0.001
0.001
0.001
0.001
0.00108783
0.001
0.001
0.00100893
0.001
0.001
0.001
0.001
0.001
0.001
0.001
0.001
0.001
0.001
0.00138351
0.00138364
0.001
0.001
0.001
0.001
0.100547
0.001
0.266802
0.434523
0.467994
0.495319
0.577321
0.693295
0.759157
0.734424
0.778948
0.71305
0.763049
0.803189
0.75895
0.755808
0.00105664
0.001
0.00100999
0.001
0.001
0.00119402
0.001
0.001
0.00119402
0.001
0.001
0.001
0.001
0.001
0.001
0.001
0.001
0.001
0.00101
0.001
0.001
0.001
0.001
0.001
0.0020548
0.00100847
0.223596
0.224409
0.143197
0.162073
0.0400915
0.0626147
0.001
0.001
0.001
0.00120919
0.001
0.001
0.001
0.001
0.001
0.001
0.0412639
0.00201283
0.0431766
0.0459866
0.001
0.001
0.001
0.001
0.001
0.001
0.001
0.001
0.001
0.001
0.00121282
0.001
0.716661
0.711081
0.534456
0.456457
0.436927
0.430726
0.708793
0.61688
0.865238
0.945004
0.841479
0.75997
0.95478
0.936697
1.00257
1.04819
1.07936
1.08334
1.10985
1.08665
1.14067
1.16369
1.16304
1.15942
1.17689
1.16314
1.16152
1.21023
1.15279
1.15081
0.278108
0.20135
0.348781
0.41778
0.204867
0.154824
0.204075
0.199117
0.0330423
0.084822
0.001
0.0830217
0.001
0.244943
0.186849
0.247951
0.239388
0.244417
0.138608
0.0433995
0.001
0.001
0.001
0.00400922
0.001
0.001
0.001
0.001
0.00903953
0.0026654
0.001
0.0248181
0.0928488
0.0388756
0.144333
0.0974883
0.135269
0.186026
0.225481
0.20166
0.237141
0.237902
0.248131
0.236578
0.273468
0.285284
0.281571
0.297001
0.301222
0.302876
0.333513
0.344704
0.34346
0.329381
0.332952
0.325482
0.34958
0.361852
0.40756
0.402377
0.369871
0.396483
0.392549
0.427685
0.460546
0.523792
0.558369
0.553928
0.567162
0.638173
0.719929
0.792117
0.805077
0.927564
0.803804
0.853019
1.00393
1.02544
1.02895
1.0658
1.11488
1.16658
1.173
1.18003
1.20173
1.2331
1.2591
1.25842
1.25914
1.26127
1.26371
1.24224
1.18066
1.24808
1.21178
1.16469
1.16772
1.19935
1.23491
1.24305
1.16763
1.22863
1.18827
0.0105947
0.00127219
0.0744754
0.147841
0.0397022
0.107203
0.240443
0.179401
0.205716
0.0411475
0.001
0.001
0.001
0.0100133
0.001
0.001
0.001
0.001
0.001
0.00117776
0.00117788
0.001
0.001
0.001
0.00100999
0.001
0.001
0.001
0.001
0.00146661
0.00146558
0.001
0.001
0.001
0.00166957
0.001
0.001
0.001
0.001
0.001
0.00101
0.001
0.00134395
0.001
0.00101
0.001
0.001
0.001
0.001
0.001
0.001
0.00105204
0.001
0.001
0.001
0.001
0.001
0.001
0.001
0.001
0.001
0.001
0.001
0.001
0.001
0.001
0.001
0.001
0.001
0.001
0.001
0.001
0.001
0.001
0.00101
0.001
0.00100962
0.001
0.001
0.001
0.001
0.001
0.001
0.001
0.001
0.754321
0.751802
0.735154
0.740014
0.670102
0.733149
0.541628
0.607994
0.504886
0.503912
0.446505
0.429769
0.373518
0.373358
0.289007
0.183853
0.15806
0.331736
0.371721
0.371069
0.37544
0.377219
0.00109267
0.001
0.00109464
0.001
0.001
0.001
0.001
0.001
0.00100548
0.001
0.001
0.001
0.001
0.001
0.001
0.00100999
0.001
0.001
0.001
0.001
0.001
0.001
0.001
0.00101
0.001
0.001
0.001
0.001
0.164634
0.001
0.308291
0.43715
0.413795
0.524499
0.691091
0.592844
0.668798
0.671387
0.661951
0.689816
0.746827
0.741947
0.745718
0.718472
0.001
0.001
0.001
0.001
0.001
0.001
0.001
0.001
0.001
0.001
0.001
0.001
0.001
0.001
0.001
0.001
0.001
0.001
0.001
0.00100999
0.001
0.001
0.00192965
0.001
0.00101
0.001
0.001
0.001
0.001
0.001
0.001
0.103581
0.101298
0.0630541
0.0446627
0.001
0.0213652
0.001
0.001
0.146027
0.0833749
0.0626977
0.001
0.001
0.001
0.00100989
0.00125488
0.00125487
0.001
0.001
0.0138466
0.001
0.001
0.00100011
0.001
0.001
0.001
0.001
0.001
0.00100971
0.001
0.001
0.001
0.001
0.001
0.001
1.28138
1.29387
1.32011
1.30123
1.34542
1.32645
1.35429
1.34761
1.3966
1.38843
1.35268
1.40323
1.36805
1.42141
1.25402
1.20857
1.22545
1.27564
1.25646
1.22749
1.2274
1.27874
1.28671
1.25849
1.24219
1.29129
1.27673
1.28682
1.30863
1.16225
1.16127
1.16309
1.16209
1.18251
1.2047
0.762981
0.696893
0.591708
0.505255
0.418943
0.486914
0.693007
0.669676
0.91287
0.93916
0.821319
0.909042
0.945946
0.989553
1.03978
1.07698
1.07864
1.07711
1.07655
1.10477
1.12008
1.1464
1.13355
1.13796
1.14095
1.14994
1.12909
1.12869
0.327663
0.260997
0.192113
0.180818
0.252203
0.413217
0.402879
0.118052
0.180915
0.0571289
0.001
1.27245
1.29119
1.30774
1.31366
1.31757
1.32861
1.33409
1.36006
1.3473
1.36207
1.36506
1.41184
1.43431
1.45723
1.45669
1.4621
1.47345
1.49424
0.001
0.001
0.00145834
0.170511
0.0606986
0.230415
0.132563
0.0481753
0.0013251
0.001
0.00132515
0.00132509
0.001
0.001
0.001
0.001
0.001
0.001
0.0142648
0.001
0.001
0.0417219
0.0397771
0.0400903
0.0962898
0.0539267
0.17989
0.123908
0.213925
0.175394
0.209688
0.242448
0.263382
0.287701
0.297817
0.30315
0.315804
0.3116
0.36887
0.354258
0.349449
0.351038
0.400859
0.373803
0.441615
0.405528
0.383365
0.425689
0.471644
0.462754
0.485099
0.521437
0.52251
0.465995
0.579793
0.606802
0.576631
0.568727
0.648984
0.732976
0.804913
0.86868
0.818852
0.833101
0.963848
1.02137
1.06723
1.04678
1.11184
1.14379
1.18398
1.19795
1.19126
1.21137
1.26856
1.25155
1.26136
1.27513
1.26813
1.26074
1.26271
1.26595
1.26378
1.26587
1.26434
0.00100696
0.001
0.00683654
0.001
0.001
0.001
0.001
0.0487523
0.001
0.001
0.001
0.001
0.001
0.001
0.00145829
0.001
0.001
0.001
0.001
0.00118162
0.001
0.001
0.001
0.001
0.001
0.001
0.00100999
0.001
0.00112226
0.00112224
0.00146438
0.001
0.00101162
0.001
0.001
0.001
0.001
0.001
0.001
0.001
0.00100984
0.001
0.00112217
0.001
0.001
0.001
0.00101
0.001
0.001
0.001
0.001
0.00238285
0.001
0.001
0.001
0.001
0.001
0.001
0.00100993
0.001
0.001
0.001
0.001
0.001
0.00102594
0.001
0.001
0.001
0.001
0.00102381
0.001
0.001
0.001
0.001
0.001
0.001
0.001
0.001
0.00101
0.001
0.001
0.001
0.001
0.001
0.001
0.001
0.001
0.001
0.001
0.00207296
0.001
0.001
0.001
0.001
0.00207292
1.45862
1.42002
1.38586
1.49246
1.52376
1.52407
0.734527
0.732269
0.719584
0.71768
0.643453
0.708327
0.539015
0.461524
0.388966
0.407221
0.373033
0.373421
0.373541
0.371184
0.249481
0.169058
0.260959
0.335353
0.337816
0.001
0.001
0.001
0.001
0.001
0.001
0.001
0.001
0.001
0.001
0.00100943
0.001
0.001
0.001
0.001
0.001
0.00100998
0.001
0.001
0.001
0.001
0.001
0.001
0.001
0.001
0.001
0.001
0.140461
0.27719
0.392377
0.394576
0.712187
0.631738
0.647809
0.430726
0.520206
0.609424
0.662186
0.66246
0.661705
0.681676
0.707444
0.700291
0.001
0.00115633
0.001
0.001
0.001
0.001
0.00100904
0.001
0.001
0.001
0.001
0.001
0.001
0.001
0.001
0.001
0.001
0.00100504
0.001
0.001
0.001
0.001
0.001
0.001
0.001
0.001
0.001
0.001
0.001
0.001
0.00101
0.001
0.001
0.001
0.001
0.001
0.001
0.0988197
0.132606
0.123719
0.0630355
0.063754
0.0343355
0.0562973
0.001
0.001
0.001
0.001
0.0674291
0.0569761
0.001
0.001
0.001
0.001
0.001
0.001
0.001
0.001
0.001
0.001
0.001
0.001
0.001
0.001
0.001
0.001
0.001
0.001
0.001
0.001
0.001
0.001
0.001
0.001
1.28418
1.29944
1.32421
1.34147
1.34566
1.35113
1.39492
1.37568
1.21941
1.21758
1.2014
1.22263
1.25535
1.21646
1.2576
1.23628
1.14746
1.13685
1.13554
1.1661
1.19739
1.17009
0.769137
0.682096
0.581939
0.66342
0.514184
0.431369
0.678649
0.681283
0.92154
0.926286
0.93886
0.834871
0.917748
1.02257
0.973114
0.917115
0.956406
1.05642
1.06662
1.05983
1.06604
1.07253
1.09782
1.12508
1.11315
1.13006
1.12575
1.1274
1.12894
1.12429
1.13242
0.166859
0.172567
0.316693
0.394937
0.164165
0.260515
0.41289
0.424779
0.159207
0.10719
0.0137485
0.084588
1.30253
1.26329
1.2778
1.32584
1.32179
1.32489
1.33565
1.35685
1.38063
1.38985
1.39015
1.39501
1.42046
1.45635
1.44168
1.45907
1.47218
1.52532
1.49997
1.33349
1.3433
1.35962
1.52716
1.5261
1.52372
0.00145818
0.00145815
0.0014582
0.001
0.001
0.001
0.001
0.001
0.001
0.001
0.001
0.001
0.001
0.00101
0.001
0.00100987
0.001
0.001
0.001
0.001
0.0018719
0.001
0.0422042
0.001
0.11752
0.144888
0.0760702
0.114248
0.178816
0.14571
0.270826
0.212909
0.275866
0.298368
0.312772
0.302552
0.346388
0.382671
0.418463
0.420351
0.42534
0.411411
0.43918
0.420224
0.46711
0.473274
0.494599
0.493632
0.470805
0.476995
0.596181
0.643927
0.538857
0.60577
0.650641
0.614592
0.71205
0.761293
0.856619
0.895607
0.871115
0.964851
1.0191
1.12059
1.10575
1.16444
1.13831
1.23099
1.23856
1.23136
1.25808
1.28949
1.28816
1.34768
1.30896
1.34207
1.29787
1.29779
1.33654
1.26578
1.30454
1.26577
0.001
0.001
0.001
0.001
0.001
0.001
0.001
0.001
0.00101
0.001
0.001
0.001
0.001
0.001
0.001
0.001
0.001
0.001
0.001
0.001
0.001
0.001
0.001
0.001
0.001
0.00103029
0.001
0.001
0.00112223
0.00112224
0.001
0.001
0.001
0.001
0.00101
0.001
0.0010004
0.001
0.001
0.001
0.001
0.001
0.00219635
0.001
0.001
0.001
0.001
0.001
0.00101
0.001
0.001
0.00222678
0.001
0.001
0.001
0.00100982
0.00129005
0.001
0.00100983
0.001
0.001
0.001
0.00101
0.001
0.00102593
0.00102536
0.001
0.001
0.00101859
0.00102505
0.001
0.001
0.001
0.001
0.00157752
0.001
0.00157738
0.001
0.001
0.001
0.001
0.00100984
0.00101
0.00100994
0.001
0.001
0.001
0.001
0.001
0.001
0.001
0.001
0.001
0.001
0.00128999
0.001
0.00100958
0.00100997
0.001
0.001
0.001
0.001
0.00101
1.42362
1.41755
1.41879
1.42433
1.46032
1.57339
1.54866
1.54364
1.57393
1.51325
0.64124
0.630593
0.56731
0.564217
0.525123
0.556982
0.46658
0.419486
0.406881
0.3714
0.347498
0.347885
0.25893
0.268015
0.138096
0.17953
0.178828
0.001
0.001
0.001
0.00101
0.001
0.001
0.001
0.00102807
0.11302
0.001
0.001
0.001
0.001
0.001
0.001
0.001
0.00101
0.001
0.001
0.00102163
0.001
0.001
0.001
0.001
0.001
0.509905
0.507844
0.552454
0.250848
0.393214
0.389873
0.428757
0.551061
0.622752
0.585776
0.490075
0.573267
0.601445
0.604038
0.524497
0.553112
0.001
0.001
0.00115637
0.00101
0.001
0.001
0.00101
0.0011756
0.001
0.001
0.001
0.001
0.001
0.001
0.001
0.00102595
0.001
0.00102608
0.00102598
0.00101
0.001
0.001
0.001
0.001
0.001
0.00100577
0.001
0.001
0.001
0.001
0.001081
0.001
0.00100563
0.001
0.001
0.001
0.001
0.001
0.001
0.001
0.001
0.001
0.001
0.001
0.00102601
0.115197
0.126367
0.137414
0.001
0.0260945
0.001
0.001
0.001
0.001
0.00148237
0.001
0.001
0.00148234
0.001
0.001
0.001
0.001
0.001
0.001
0.001
0.00103035
0.001
0.001
0.001
0.001
0.001
0.001
0.001
0.00119135
0.001
0.0010303
0.001
0.001
0.001
0.001
0.00101
0.001
0.001
0.00119133
1.29471
1.24266
1.33295
1.28672
1.29052
1.34529
1.31057
1.37626
1.3381
1.41722
1.35797
1.34742
1.41658
1.37538
1.18388
1.1857
1.17397
1.19096
1.20212
1.21475
1.21243
1.22416
1.12271
1.12564
1.14563
1.13149
1.1611
1.17166
0.765686
0.684655
0.607452
0.678436
0.477321
0.566989
0.678517
0.683944
0.912797
0.914465
0.916102
0.840671
1.00327
1.04795
0.960145
0.913349
1.05439
1.05465
1.06816
1.0555
1.09276
1.11701
1.11756
1.12472
1.12052
1.11685
1.12749
1.12925
1.12571
1.12539
0.160777
0.1641
0.329725
0.406963
0.313545
0.219891
0.46322
0.406157
0.136449
0.158491
0.140541
0.0422165
1.30146
1.33487
1.32051
1.34664
1.36451
1.35292
1.39073
1.40383
1.37982
1.39018
1.37968
1.3892
1.39421
1.41823
1.43755
1.45792
1.45506
1.50605
1.48636
1.53642
1.54135
1.41443
1.42537
1.54837
1.55282
0.001
0.001
0.001
0.001
0.001
0.001
0.001
0.001
0.00101
0.001
0.001
0.001
0.001
0.001
0.001
0.001
0.00187186
0.001
0.001
0.001
0.001
0.001
0.0347228
0.001
0.131093
0.137232
0.0952556
0.0507908
0.171844
0.21004
0.271705
0.25866
0.280588
0.275889
0.387642
0.3287
0.441047
0.428503
0.45913
0.462285
0.437922
0.495146
0.534822
0.511255
0.496676
0.518804
0.576122
0.558674
0.537168
0.584113
0.665133
0.666049
0.658693
0.679189
0.809434
0.722171
0.892501
0.918168
0.921205
0.986546
1.06582
1.14063
1.14831
1.16075
1.20492
1.25485
1.28919
1.29139
1.3314
1.30272
1.35903
1.37267
1.37401
1.37092
1.37217
1.3692
1.3379
1.3715
1.33693
0.001
0.001
0.00712529
0.00102503
0.001
0.001
0.001
0.001
0.00139589
0.001
0.00101
0.0014236
0.001
0.00143302
0.00140948
0.00141655
0.00143249
0.001
0.00141973
0.00690924
0.001
0.001
0.001
0.00103044
0.001
0.00103031
0.0010303
0.001
0.001
0.00100217
0.001
0.001
0.001
0.001
0.00101
0.00103619
0.001
0.001
0.00100986
0.001
0.001
0.001
0.00186664
0.001
0.001
0.001
0.001
0.001
0.001
0.001
0.001
0.001
0.00100941
0.001
0.001
0.001
0.00100992
0.001
0.001
0.001
0.00101
0.001
0.001
0.001
0.001
0.001
0.001
0.0010008
0.001
0.001
0.001
0.00100949
0.001
0.001
0.001
0.001
0.001
0.001
0.001
0.001
0.001
0.001
0.00101
0.001
0.001
0.001
0.001
0.001
0.001
0.001
0.001
0.001
0.001
0.001
0.001
0.001
0.001
0.001
0.001
0.001
0.001
0.001
0.001
0.001
0.001
0.001
0.001
0.001
0.001
0.001
0.001
0.001
0.00106393
0.001
0.001
0.001
0.001
1.59764
1.58302
1.60331
1.58956
1.60025
1.60951
1.44534
1.43509
1.51113
1.47598
1.55723
1.58836
1.57132
1.46126
1.4184
0.503448
0.507382
0.506261
0.494039
0.505468
0.435484
0.480696
0.267867
0.32524
0.193453
0.188737
0.137396
0.139327
0.137348
0.001
0.001
0.001
0.001
0.00102072
0.134837
0.001
0.001
0.001
0.001
0.001
0.001
0.001
0.001
0.001
0.001
0.001
0.00101822
0.00101836
0.001
0.00101788
0.001
0.001
0.001
0.510678
0.507405
0.508267
0.508474
0.511336
0.216614
0.337133
0.277852
0.399059
0.459764
0.485008
0.413518
0.498207
0.450382
0.44964
0.436763
0.001
0.00110264
0.001
0.001
0.001
0.001
0.001
0.00101461
0.001
0.001
0.00101256
0.001
0.001
0.001
0.00102025
0.001
0.001
0.001
0.001
0.001
0.001
0.001
0.001
0.001
0.001
0.00100955
0.001
0.001
0.001
0.001
0.001
0.001
0.001
0.001
0.001
0.001
0.00108146
0.001
0.00108194
0.001
0.001
0.001
0.001
0.001
0.00100037
0.001
0.001
0.001
0.001
0.001
0.00101
0.001
0.001
0.001
0.001
0.001
0.001
0.11339
0.0455871
0.032639
0.001
0.001
0.001
0.001
0.001
0.001
0.001
0.00100956
0.001
0.001
0.001
0.001
0.001
0.001
0.001
0.001
0.001
0.001
0.001
0.001
0.001
0.001
0.001
0.001
0.001
0.001
0.001
0.001
0.001
0.001
0.00182467
0.00183303
0.001
0.001
0.001
0.001
0.00100972
0.001
1.23595
1.24067
1.24997
1.25286
1.27232
1.26299
1.34128
1.35183
1.32161
1.30064
1.40026
1.3573
1.34081
1.17346
1.17028
1.20426
1.18833
1.21216
1.21592
1.23916
1.22186
1.12842
1.13339
1.153
1.13932
1.15479
1.15962
0.800609
0.721587
0.645765
0.682009
0.631905
0.534046
0.717003
0.682089
0.91809
0.918123
0.876026
0.92255
1.00926
1.05688
0.922415
0.968503
1.05991
1.05726
1.08053
1.06024
1.10055
1.11961
1.1203
1.12154
1.10761
1.12174
1.12603
1.12271
1.11372
1.11927
0.157727
0.215558
0.408217
0.383558
0.304982
0.390758
0.406986
0.487312
0.152542
0.148359
0.150542
0.0487421
0.001
0.001
0.0263455
1.3688
1.37305
1.40214
1.39545
1.41714
1.43152
1.43113
1.43129
1.46662
1.44511
1.45398
1.42072
1.45112
1.4647
1.48549
1.51018
1.52317
1.51517
1.57191
1.57057
1.5921
1.5703
1.48333
1.4882
1.61028
1.60479
0.001
0.001
0.00101
0.001
0.001
0.00124214
0.00124249
0.001
0.001
0.001
0.001
0.0020611
0.00104744
0.001
0.001
0.001
0.00100232
0.001
0.001
0.001
0.001
0.001
0.001
0.001
0.001
0.0802372
0.14985
0.0313347
0.258013
0.193311
0.267504
0.262169
0.35801
0.293485
0.425169
0.451491
0.448802
0.457745
0.574956
0.535877
0.504448
0.566609
0.585786
0.579859
0.575904
0.571053
0.586591
0.578665
0.660934
0.702394
0.740729
0.696058
0.739367
0.766103
0.905043
0.839264
0.934191
0.919312
1.00426
1.07724
1.16449
1.15896
1.19368
1.23182
1.3086
1.29599
1.32177
1.32658
1.35563
1.36569
1.38475
1.37525
1.38759
1.37974
1.37003
1.38271
1.37001
1.37196
0.001
0.001
0.00101
0.001
0.001
0.001
0.001
0.001
0.001
0.00137023
0.001
0.001
0.001
0.00137356
0.00142431
0.00138766
0.00143835
0.00142915
0.00141924
0.001
0.001
0.00100968
0.001
0.001
0.001
0.00100179
0.001
0.001
0.001
0.001
0.001
0.00101
0.001
0.001
0.00100863
0.00103618
0.001
0.001
0.001
0.00362142
0.001
0.001
0.001
0.00100989
0.001
0.001
0.001
0.00100983
0.001
0.001
0.00100647
0.001
0.00100976
0.001
0.001
0.001
0.001
0.001
0.00360743
0.001
0.001
0.001
0.001
0.001
0.00124264
0.00124255
0.00124257
0.001
0.001
0.001
0.001
0.001
0.001
0.001
0.001
0.001
0.001
0.001
0.001
0.001
0.001
0.001
0.001
0.001
0.001
0.001
0.001
0.001
0.001
0.001
0.001
0.001
0.001
0.001
0.001
0.001
0.001
0.001
0.001
0.001
0.001
0.001
0.001
0.001
0.001
0.001
0.00101
0.001
0.00139833
0.001
0.00112525
0.001
0.0011213
0.001
0.001
0.001
1.61384
1.64088
1.65725
1.60828
1.61064
1.5908
1.60846
1.46862
1.50924
1.53447
1.55096
1.52663
1.58097
1.62122
1.44935
1.47338
1.40139
1.44292
1.43242
0.501336
0.499034
0.403531
0.365337
0.464411
0.39562
0.402922
0.271311
0.299366
0.16248
0.139473
0.13646
0.139925
0.114288
0.001
0.001
0.0517599
0.166293
0.001
0.001
0.001
0.001
0.001
0.001
0.001
0.001
0.001
0.001
0.001
0.001
0.001
0.00101
0.001
0.001
0.001
0.001
0.001
0.001
0.46605
0.509724
0.484453
0.460681
0.228766
0.224745
0.246917
0.321038
0.435755
0.436333
0.387784
0.436022
0.436622
0.00100999
0.001
0.001
0.001
0.001
0.001
0.00120402
0.00120436
0.001
0.001
0.00101
0.00100946
0.001
0.001
0.00100846
0.001
0.0010099
0.00388507
0.001
0.001
0.001
0.001
0.001
0.001
0.001
0.00108198
0.001
0.001
0.0010742
0.001
0.001
0.001
0.001
0.001
0.001
0.001
0.001
0.001
0.001
0.001
0.001
0.001
0.001
0.001
0.001
0.001
0.001
0.001
0.001
0.001
0.001
0.00202104
0.001
0.001
0.001
0.001
0.001
0.001
0.001
0.001
0.001
0.001
0.001
0.033876
0.001
0.001
0.001
0.001
0.001
0.001
0.001
0.001
0.001
0.001
0.001
0.001
0.001
0.001
0.001
0.001
0.001
0.001
0.001
0.001
0.001
0.001
0.001
0.001
0.001
0.001
0.001
0.001
0.001
0.001
0.001
0.001
0.001
0.00124227
0.00101
0.001
0.001
0.001
0.001
0.00100999
0.001
0.001
1.30753
1.24844
1.30608
1.27279
1.22384
1.29093
1.30453
1.30863
1.31994
1.36691
1.30619
1.3963
1.3691
1.41979
1.15083
1.17578
1.17142
1.19784
1.17973
1.20616
1.21669
1.1967
1.12258
1.1304
1.13593
1.14739
1.14909
1.14093
0.854167
0.776147
0.666353
0.687353
0.586722
0.679674
0.691887
0.746415
0.927446
0.926701
0.922866
0.90221
1.01788
1.06257
0.98522
0.938364
1.06231
1.0615
1.07407
1.09164
1.12237
1.1011
1.11439
1.11757
1.12451
1.11152
1.12249
1.12304
1.11408
1.11244
0.236082
0.143857
0.415921
0.416844
0.33267
0.421565
0.420539
0.525767
0.142445
0.142922
0.127419
0.104555
0.0406936
0.1449
1.38673
1.40452
1.42584
1.46065
1.45414
1.47332
1.48787
1.49424
1.49965
1.49018
1.49539
1.51736
1.53575
1.5503
1.55488
1.56352
1.58034
1.60523
1.61259
1.61581
1.62706
1.49938
1.48945
1.64322
1.66566
0.001
0.001
0.001
0.001
0.001
0.001
0.001
0.001
0.001
0.00206102
0.001
0.001
0.001
0.001
0.001
0.001053
0.001053
0.001
0.001
0.001
0.001
0.001
0.0155832
0.00998171
0.001
0.0742993
0.0860284
0.172937
0.22586
0.207107
0.284638
0.222915
0.420372
0.347383
0.439343
0.452963
0.456862
0.526177
0.648015
0.660189
0.595689
0.626268
0.659038
0.60121
0.711919
0.641622
0.61496
0.650191
0.784682
0.795132
0.860206
0.914092
0.796706
0.889059
1.03426
0.983256
1.05327
1.02399
1.21512
1.18186
1.24694
1.26187
1.33436
1.34613
1.40808
1.37437
1.42316
1.40476
1.42229
1.45901
1.42617
1.46036
1.46725
1.42444
1.41545
1.45895
1.45602
1.42914
0.001
0.001
0.00101
0.001
0.001
0.001
0.001
0.001
0.001
0.00107533
0.001
0.001
0.001
0.001
0.001
0.001
0.001
0.00145078
0.001
0.001
0.00138945
0.00100995
0.001
0.001
0.0012327
0.001
0.001
0.001
0.001
0.001
0.00150614
0.00100984
0.001
0.001
0.001
0.001
0.001
0.00100967
0.001
0.001
0.001
0.001
0.001
0.001
0.001
0.001
0.00101183
0.00101226
0.00101269
0.001
0.001
0.001
0.001
0.00119691
0.001
0.001
0.00119683
0.001
0.001
0.001
0.00100996
0.00139826
0.001
0.00113632
0.001
0.001
0.001
0.001
0.00101
0.001
0.001
0.001
0.001
0.001
0.001
0.001
0.001
0.001
0.001
0.001
0.001
0.001
0.001
0.001
0.001
0.001
0.001
0.001
0.001
0.001
0.001
0.001
0.001
0.001
0.001
0.001
0.001
0.001
0.001
0.001
0.001
0.001
0.001
0.001
0.001
0.001
0.001
0.001
0.001
0.001
0.001
0.001
0.001
0.001
0.001
0.001
0.001
0.00112525
0.001
0.001
0.001
0.00113632
0.001
0.001
1.67371
1.65206
1.6778
1.63562
1.62932
1.6589
1.65081
1.62489
1.65072
1.50433
1.52466
1.52737
1.52069
1.60611
1.64094
1.66293
1.55765
1.43516
1.46615
1.43754
1.44053
1.43185
1.49101
1.36102
0.267291
0.36313
0.265322
0.307012
0.307064
0.212187
0.214186
0.218778
0.217191
0.217639
0.194873
0.109138
0.0853501
0.001
0.00749207
0.113272
0.22742
0.001
0.001
0.00101752
0.001
0.001
0.00100999
0.001
0.001
0.00100155
0.001
0.00103975
0.001
0.001
0.001
0.001
0.00104021
0.001
0.00102182
0.001
0.00100507
0.37132
0.299276
0.271531
0.36073
0.227067
0.249951
0.385686
0.317733
0.359913
0.434851
0.433032
0.00110239
0.001
0.001
0.00115062
0.001
0.001
0.00120455
0.00120424
0.001
0.001
0.00100995
0.001
0.001
0.001
0.001
0.001
0.00388192
0.00388294
0.001
0.001
0.00388206
0.001
0.00202107
0.001
0.001
0.001
0.001
0.00352499
0.001
0.00107432
0.00361915
0.001
0.001
0.001
0.001
0.001
0.001
0.001
0.001
0.001
0.001
0.001
0.001
0.00101
0.001
0.001
0.001
0.001
0.001
0.00118397
0.001
0.001
0.001
0.00101
0.001
0.001
0.001
0.001
0.001
0.001
0.001
0.001
0.001
0.001
0.001
0.001
0.001
0.001
0.001
0.001
0.001
0.001
0.001
0.001
0.001
0.001
0.00101
0.00100998
0.001
0.001
0.001
0.001
0.001
0.001
0.001
0.001
0.00161161
0.001
0.001
0.001
0.001
0.001
0.001
0.00161161
0.001
0.001
0.001
0.001
0.001
0.001
0.001
0.001
0.001
0.001
0.024296
0.001
0.001
0.00101
0.00101
0.001
0.00101
0.001
0.001
0.001
0.001
0.001
0.001
0.001
1.21869
1.22015
1.22133
1.25828
1.23257
1.26764
1.2365
1.27452
1.29769
1.33064
1.32441
1.32593
1.36792
1.33553
1.4232
1.14172
1.14427
1.15562
1.15952
1.16136
1.16173
1.17183
1.19371
1.17877
1.1267
1.13154
1.14234
1.14671
1.14606
0.827952
0.897471
0.712524
0.702152
0.624382
0.724816
0.781121
0.716356
0.936476
0.946777
0.946762
0.937564
1.06386
1.03098
0.997613
1.03003
1.07755
1.06981
1.09804
1.11343
1.14913