/*--------------------------------*- C++ -*----------------------------------*\
  =========                 |
  \\      /  F ield         | OpenFOAM: The Open Source CFD Toolbox
   \\    /   O peration     | Website:  https://openfoam.org
    \\  /    A nd           | Version:  8
     \\/     M anipulation  |
\*---------------------------------------------------------------------------*/
FoamFile
{
    version     2.0;
    format      ascii;
    class       volScalarField;
    location    "13440";
    object      S;
}
// * * * * * * * * * * * * * * * * * * * * * * * * * * * * * * * * * * * * * //

dimensions      [0 1 0 0 0 0 0];

internalField   nonuniform List<scalar> 
526318
(
69.003
69.045
68.972
69.06
68.988
69.034
69.018
69.101
69.039
69.162
69.181
69.06
69.115
69.074
69.115
69.089
69.115
68.917
69.008
68.963
68.968
69.014
69.254
69.011
69.127
69.261
68.99
68.99
68.989
68.976
68.947
68.901
68.918
69.037
69.037
69.068
69.062
68.972
69.045
69.096
69.037
69.063
69.401
69.346
69.442
69.394
69.418
69.297
69.115
69.216
69.13
69.13
69.176
69.217
69.72
69.473
69.479
69.678
68.96
68.947
68.927
68.975
69.029
68.901
68.907
68.947
68.96
68.96
69.057
69.066
68.951
69.173
69.118
69.225
69.27
69.279
69.18
69.186
69.27
69.231
69.15
69.15
69.195
69.24
69.212
69.144
69.144
69.167
69.218
69.144
69.24
69.291
69.294
69.365
69.368
69.365
69.365
69.368
69.371
69.371
69.933
69.993
69.905
69.869
69.808
70.026
69.461
69.648
69.335
69.371
69.329
69.213
68.989
69.098
68.988
68.975
68.91
68.938
68.893
69.374
69.374
69.371
69.368
69.413
69.374
69.462
69.42
69.51
69.461
69.511
69.511
69.521
69.546
69.554
69.527
69.585
69.531
69.581
69.562
69.617
69.611
69.59
69.561
69.575
69.618
69.618
69.602
69.614
69.618
69.611
69.598
69.611
69.607
69.607
69.607
69.641
69.607
69.607
69.641
69.684
69.607
69.657
69.6
69.105
69.013
69.067
69.083
69.279
69.211
69.279
69.279
69.279
69.279
69.257
69.279
69.344
69.373
69.407
69.466
69.407
69.365
69.365
69.365
69.478
69.426
69.539
69.53
69.521
69.53
69.528
69.525
69.536
69.534
69.538
69.549
69.567
69.544
69.551
69.579
69.6
69.572
69.589
69.596
69.577
69.588
69.584
69.622
69.603
69.573
69.573
69.123
69.109
69.077
69.105
69.119
69.122
69.122
69.246
69.205
69.459
69.479
69.481
69.359
69.221
69.349
69.312
69.308
69.363
69.384
69.878
70.077
69.737
69.537
70.281
70.442
70.144
70.044
70.077
70.077
68.908
68.928
68.879
68.887
68.918
68.927
69.018
68.933
69.089
69.144
69.144
69.144
69.144
69.144
69.157
69.157
69.24
69.176
69.359
69.302
69.374
69.36
70.559
70.635
70.174
70.395
69.895
69.952
69.895
69.744
69.363
69.549
69.314
69.312
69.201
69.1
68.978
68.975
68.938
68.962
68.895
68.864
69.394
69.394
69.434
69.462
69.564
69.528
69.601
69.592
69.601
69.607
69.618
69.612
69.686
69.662
69.628
69.591
69.536
69.569
69.606
69.61
69.674
69.684
69.634
69.579
69.656
69.618
69.618
69.649
69.653
69.684
69.688
69.726
69.726
69.721
69.734
69.61
69.573
69.61
69.569
69.21
69.248
69.351
69.262
69.342
69.29
69.279
69.29
69.279
69.279
69.367
69.454
69.525
69.542
69.466
69.525
69.539
69.426
69.537
69.487
69.548
69.548
69.539
69.548
69.534
69.539
69.54
69.537
69.538
69.539
69.53
69.535
69.523
69.525
69.523
69.544
69.53
69.547
69.573
69.573
69.547
69.517
69.524
69.548
69.565
69.54
69.499
69.499
69.487
69.526
69.493
69.476
69.437
69.486
69.48
69.455
69.422
69.301
69.223
69.304
69.268
69.197
69.133
69.221
69.358
69.243
69.346
69.325
69.59
69.644
69.613
69.628
69.509
69.388
69.457
69.388
69.388
69.367
69.388
70.111
69.97
69.816
69.974
69.733
69.847
70.712
70.559
70.621
70.698
70.788
70.551
70.323
70.086
70.199
70.174
68.884
68.894
68.858
68.869
68.89
68.919
68.993
69.078
69.144
69.133
69.155
69.155
69.176
69.175
69.196
69.196
69.246
69.203
69.28
69.337
69.392
69.434
71.726
71.776
71.776
71.988
71.886
71.828
71.776
71.776
71.776
71.776
70.717
71.091
70.953
71.07
70.756
70.894
70.66
70.559
70.551
70.387
69.928
70.141
69.829
69.854
69.659
69.812
69.449
69.29
69.275
69.184
68.965
69.07
68.951
68.951
68.938
68.907
68.876
68.858
69.475
69.475
69.521
69.495
69.556
69.592
69.601
69.601
69.607
69.601
69.649
69.655
69.707
69.694
69.638
69.666
69.694
69.646
69.652
69.632
69.724
69.734
69.711
69.7
69.698
69.742
69.737
69.742
69.736
69.753
69.755
69.454
69.48
69.479
69.48
69.459
69.352
69.395
69.415
69.532
69.489
69.503
69.5
69.6
69.663
69.484
69.369
69.484
69.477
69.499
69.415
69.437
69.364
69.331
69.405
69.425
69.39
69.513
69.542
69.542
69.542
69.626
69.572
69.647
69.695
69.714
69.596
69.596
69.548
69.548
69.548
69.546
69.548
69.542
69.546
69.535
69.542
69.524
69.53
69.523
69.523
69.498
69.512
69.487
69.484
69.535
69.552
69.487
69.504
69.516
69.499
69.516
69.528
69.476
69.499
69.396
69.388
69.436
69.395
69.386
69.419
69.327
69.356
69.288
69.267
69.243
69.329
69.325
69.325
69.363
69.384
69.415
69.324
69.473
69.496
69.445
69.424
69.746
69.696
69.613
69.494
69.461
69.425
69.52
69.557
69.595
69.65
70.288
70.203
69.928
70.127
69.814
69.746
70.774
70.874
70.788
70.788
70.649
70.877
70.263
70.5
70.342
70.342
71.285
71.193
71.264
71.377
71.066
71.28
71.799
71.861
71.838
71.821
71.844
71.765
71.765
71.844
71.844
71.844
71.961
72.001
71.635
71.889
71.812
71.618
71.721
71.815
72.098
72.015
71.997
71.949
72.107
72.107
68.89
68.879
68.858
68.869
68.89
68.964
69.143
69.058
69.175
69.173
69.195
69.195
69.203
69.203
69.209
69.209
69.265
69.294
69.392
69.351
69.495
69.455
71.656
71.712
71.575
71.662
71.65
71.574
71.752
71.676
71.637
71.547
71.478
71.557
71.426
71.712
71.548
71.548
71.285
71.153
71.245
71.429
71.152
71.152
71.103
71.006
70.776
70.628
70.462
70.487
70.422
70.241
69.788
69.986
69.771
69.771
69.475
69.643
69.267
69.307
69.241
69.136
69.03
68.951
68.938
68.951
68.909
68.878
68.892
68.894
71.642
71.599
71.733
71.854
71.519
71.533
71.548
71.548
71.811
71.68
71.679
71.811
71.478
71.869
71.733
71.608
71.875
69.495
69.495
69.495
69.53
69.609
69.574
69.649
69.657
69.692
69.698
69.742
69.744
69.713
69.717
69.756
69.722
69.726
69.677
69.695
69.695
69.774
69.803
69.803
69.76
69.752
69.752
69.776
69.772
69.811
69.822
69.859
69.853
69.256
69.288
69.248
69.238
69.289
69.332
69.164
69.143
69.079
69.069
69.522
69.481
69.43
69.346
69.524
69.578
69.543
69.543
69.704
69.651
69.602
69.714
69.499
69.499
69.499
69.499
69.478
69.499
69.485
69.47
69.59
69.597
69.697
69.612
69.62
69.66
69.71
69.689
69.748
69.729
69.748
69.662
69.6
69.667
69.6
69.548
69.548
69.548
69.546
69.543
69.524
69.53
69.513
69.518
69.497
69.503
69.481
69.482
69.48
69.482
69.472
69.478
69.438
69.466
69.499
69.499
69.433
69.466
69.458
69.418
69.377
69.377
69.377
69.377
69.346
69.293
69.231
69.211
69.202
69.224
69.081
69.144
69.016
68.976
68.985
68.946
68.89
69.026
68.939
68.916
68.841
68.792
68.766
68.746
68.716
68.772
68.716
68.759
68.68
68.679
68.63
68.662
68.601
68.57
68.581
68.632
68.567
68.543
68.577
68.58
68.515
68.538
68.506
68.566
68.566
68.502
68.534
68.581
68.581
68.549
68.517
69.525
69.56
69.389
69.394
69.424
69.429
69.429
69.664
69.529
69.826
69.8
69.697
69.71
69.837
69.754
69.767
69.594
69.69
69.69
69.782
69.785
69.773
69.756
70.226
70.357
69.954
70.167
69.957
70.007
71.004
70.826
70.914
70.965
70.817
71.054
70.626
70.389
70.489
70.457
71.428
71.52
71.663
71.806
71.428
71.393
71.291
71.467
71.857
71.857
72.073
72.102
71.875
71.865
71.913
71.902
71.875
71.875
71.549
71.83
71.595
71.735
71.689
71.83
71.587
71.863
71.863
71.869
71.857
71.762
71.857
71.857
71.762
71.857
71.857
71.857
71.855
71.857
71.837
71.839
71.748
71.825
71.964
71.888
72.078
72.019
72.179
72.195
71.893
71.976
72.06
72.107
72.121
72.107
72.17
72.17
68.901
68.912
68.939
68.941
69.024
68.952
69.129
69.193
69.203
69.203
69.203
69.203
69.265
69.259
69.414
69.454
69.495
69.322
69.322
69.373
69.372
69.373
71.475
71.461
71.433
71.433
71.485
71.536
71.496
71.471
71.433
71.406
71.416
71.548
71.382
71.445
71.204
71.072
71.016
70.985
70.93
70.786
70.398
70.573
70.366
70.366
70.124
70.322
69.925
69.771
69.643
69.771
69.477
69.309
69.277
69.249
69.167
69.053
68.987
69.01
68.966
69.031
68.981
68.94
68.985
68.987
71.475
71.475
71.461
71.477
71.476
71.48
71.476
71.479
71.48
71.447
71.461
71.436
71.436
71.714
71.622
71.481
71.481
71.573
71.625
71.734
71.95
72.108
71.47
71.437
71.436
71.436
69.521
69.521
69.601
69.584
69.706
69.684
69.746
69.746
69.748
69.746
69.774
69.772
69.799
69.799
69.822
69.783
69.704
69.743
69.704
69.704
69.884
69.863
69.822
69.843
69.833
69.83
69.883
69.89
69.905
69.892
69.884
69.886
69.034
69.034
69.206
69.291
69.304
69.316
69.037
69.124
68.878
68.802
68.906
68.982
68.789
68.807
68.741
68.693
68.663
68.663
68.635
68.662
68.607
68.581
68.585
68.585
68.567
68.581
68.581
68.535
68.591
68.596
69.472
69.544
69.401
69.329
69.544
69.597
69.544
69.544
69.715
69.661
69.826
69.661
69.773
69.499
69.558
69.499
69.506
69.499
69.605
69.703
69.781
69.795
69.781
69.744
69.816
69.831
69.904
69.815
69.735
69.742
69.822
69.721
69.653
69.706
69.6
69.653
69.611
69.556
69.52
69.543
69.509
69.509
69.497
69.507
69.474
69.464
69.465
69.451
69.446
69.444
69.411
69.4
69.409
69.415
69.411
69.418
69.4
69.385
69.338
69.345
69.377
69.346
69.35
69.318
69.284
69.222
69.191
69.191
69.18
69.111
69.028
68.955
68.941
68.815
68.941
68.89
68.74
68.716
68.716
68.679
68.63
68.581
68.57
68.567
68.539
68.511
68.485
68.485
68.485
68.485
68.485
68.503
68.567
68.503
68.535
68.581
68.581
68.549
68.517
68.507
68.58
68.519
68.56
69.734
69.743
69.67
69.595
69.705
69.639
69.502
69.567
69.54
69.703
69.8
69.835
69.835
69.734
69.742
70.078
69.97
69.785
69.893
69.785
69.785
69.776
69.785
69.769
69.752
70.56
70.402
70.309
70.127
70.108
70.108
71.02
71.218
71.071
71.054
70.872
71.062
70.771
70.917
70.649
70.828
71.571
71.428
71.735
71.878
71.518
71.592
71.683
71.485
71.921
71.937
72.148
72.178
72.005
71.957
72.128
72.153
71.974
72.062
71.872
71.871
72.004
72.1
71.988
71.974
71.989
72.106
71.989
72.121
71.983
72.065
72.109
72.159
72.212
72.195
72.195
72.193
72.132
72.092
72.274
72.266
72.23
72.266
72.362
72.362
68.99
68.992
69.009
69.004
69.075
69.011
69.203
69.139
69.243
69.243
69.299
69.316
69.372
69.372
69.457
69.561
69.584
69.416
69.372
69.372
69.372
69.372
71.433
71.447
71.433
71.433
71.279
71.316
71.353
71.288
71.344
71.397
71.233
71.342
71.239
71.239
71.014
70.899
70.892
70.892
70.861
70.686
70.511
70.366
70.302
70.346
70.139
69.96
69.807
69.772
69.578
69.745
69.438
69.305
69.331
69.221
69.054
69.152
69.075
69.075
69.082
69.054
68.997
69.002
68.997
69.025
71.256
71.335
71.382
71.315
71.41
71.297
71.365
71.429
71.444
71.226
71.304
71.385
71.406
71.402
71.372
72.079
72.159
71.9
72.215
71.436
71.435
71.436
71.436
71.395
71.346
71.415
71.63
71.298
71.335
71.336
71.302
69.646
69.646
69.682
69.703
69.746
69.725
69.759
69.759
69.602
69.661
69.682
69.831
69.821
69.89
69.888
69.822
69.822
69.83
69.79
69.73
69.777
69.741
69.757
69.863
69.884
69.87
69.849
69.922
69.923
69.922
69.911
69.895
69.908
69.944
69.935
68.46
68.451
68.423
68.446
68.403
68.417
68.393
68.401
68.345
68.358
68.393
68.341
68.376
68.322
68.492
68.54
68.52
68.471
68.489
68.52
68.517
68.464
68.459
68.483
68.503
68.451
68.467
68.46
68.434
68.581
68.581
68.581
68.582
68.563
68.542
68.988
69.043
69.147
69.242
69.329
69.254
69.053
69.07
68.831
68.807
68.921
68.839
68.8
68.752
68.704
68.663
68.665
68.664
68.667
68.637
68.624
68.598
68.611
68.608
68.604
68.594
68.617
68.617
69.422
69.493
69.55
69.56
69.503
69.329
69.35
69.621
69.564
69.691
69.758
68.475
68.454
68.438
68.431
68.426
68.415
68.411
68.384
68.399
68.381
68.382
68.333
68.31
68.287
68.287
68.283
68.269
68.246
69.782
69.835
69.835
69.574
69.686
69.515
69.613
69.695
69.795
69.794
69.795
69.795
69.941
69.868
70.014
69.992
69.911
69.992
69.728
69.798
69.901
69.706
69.705
69.705
69.65
69.692
69.567
69.619
69.533
69.568
69.533
69.507
69.484
69.461
69.439
69.439
69.43
69.437
69.379
69.392
69.398
69.4
69.348
69.373
69.303
69.342
69.361
69.318
69.274
69.283
69.26
69.224
69.223
69.278
69.169
69.14
69.169
69.18
69.097
69.014
68.941
68.874
68.926
68.91
68.781
68.722
68.679
68.698
68.633
68.602
68.561
68.545
68.551
68.532
68.475
68.494
68.483
68.474
68.483
68.485
68.485
68.485
68.485
68.485
68.485
69.75
69.759
69.734
69.813
69.794
69.775
69.839
69.696
69.794
69.859
69.839
69.859
69.961
69.859
69.835
70.055
70.065
70.108
70
69.785
69.893
69.888
69.888
70.097
70.208
70.406
70.391
70.471
70.652
70.652
70.108
70.289
70.126
70.126
71.201
71.416
71.236
71.114
71.19
71.197
71.266
71.048
70.652
70.869
71.752
71.678
72.014
71.987
71.769
71.699
71.614
71.699
72.149
72.086
72.36
72.294
72.186
72.204
72.229
72.246
72.23
72.228
72.12
72.135
72.253
72.251
72.238
72.238
72.253
72.253
72.366
72.222
72.39
72.328
72.471
72.359
72.567
72.543
72.357
72.521
72.103
72.455
72.256
72.237
72.22
72.396
72.32
72.361
72.275
72.394
72.385
72.442
72.408
72.408
72.394
68.293
68.327
68.352
68.252
68.218
68.223
69.011
69.011
69.023
69.027
69.102
69.038
69.207
69.284
69.356
69.341
69.372
69.372
69.372
69.372
69.495
69.577
69.487
69.408
69.408
71.211
71.322
71.212
71.287
71.212
71.223
71.252
71.153
71.171
71.239
71.123
71.122
71.15
69.809
69.775
69.746
70.855
70.971
70.807
70.8
70.516
70.637
70.34
70.315
70.152
70.284
69.975
69.605
69.464
69.351
69.351
69.032
69.112
69.098
69.313
69.224
69.135
69.083
69.082
69.083
69.064
69.036
69.043
71.1
71.098
71.13
71.189
71.129
71.153
71.167
71.085
71.094
71.234
71.138
71.059
71.034
71.103
71.219
71.097
71.15
72.068
72.189
72.068
72.342
71.787
71.653
71.943
71.989
71.387
71.348
71.184
71.235
71.216
71.217
71.363
71.466
71.076
71.186
71.032
71.032
69.647
69.611
69.623
69.682
69.682
69.71
69.689
69.821
69.793
69.882
69.882
69.676
69.689
69.928
69.93
69.927
69.924
69.871
69.891
69.853
69.907
69.783
69.832
69.783
69.773
69.942
69.987
69.963
69.932
69.956
69.955
70.014
69.977
69.996
70.016
70.038
70.038
68.46
68.446
68.423
68.401
68.393
68.393
68.354
68.379
68.527
68.529
68.545
68.524
68.491
68.529
68.484
68.509
68.594
68.606
68.607
68.576
68.547
68.573
68.983
69.06
69.166
69.077
69.229
69.317
69.064
69.064
68.824
68.821
68.806
68.909
68.832
68.719
68.773
68.83
68.788
68.687
68.674
68.683
68.677
68.669
68.646
68.619
68.629
68.619
68.619
68.619
68.619
68.619
68.619
69.577
69.573
69.434
69.353
69.574
69.493
69.336
69.321
69.584
69.641
69.73
69.664
68.444
68.485
68.466
68.42
68.422
68.42
68.41
68.388
68.366
68.355
68.355
68.35
68.327
68.287
68.304
68.287
68.269
68.223
68.246
68.414
68.403
68.387
68.218
68.218
68.218
69.835
69.835
69.835
69.862
69.766
69.751
69.949
69.909
69.874
69.989
69.951
69.945
70.018
70.014
70.014
70.014
69.983
69.952
69.849
69.921
69.921
69.777
69.701
69.786
69.63
69.602
69.67
69.63
69.568
69.602
69.476
69.534
69.463
69.449
69.44
69.451
69.401
69.361
69.324
69.324
69.318
69.332
69.306
69.324
69.275
69.271
69.248
69.248
69.271
69.269
69.15
69.103
69.205
69.141
69.094
69.131
69.031
68.985
68.887
68.848
68.871
68.78
68.725
68.626
68.64
68.581
68.607
68.512
68.506
68.513
68.484
68.456
68.457
68.402
68.437
68.41
68.447
68.448
68.412
68.481
68.444
68.481
70.381
70.065
70.375
70.1
69.82
69.839
69.839
69.858
69.839
69.986
70.086
70.09
70.195
69.989
70.119
70.094
69.965
70.707
70.707
70.329
70.203
70.208
70.415
70.528
70.528
70.744
70.733
70.722
70.652
70.652
70.746
70.565
70.665
70.407
70.61
70.688
71.517
71.68
71.47
71.272
71.304
71.304
71.304
71.087
70.987
70.769
71.914
72.059
72.135
72.135
71.844
71.699
71.768
71.834
72.213
72.135
72.497
72.476
72.247
72.247
72.35
72.343
72.273
72.271
72.253
72.253
72.34
72.319
72.253
72.253
72.465
72.352
72.798
72.745
72.663
72.663
72.663
72.679
72.807
72.951
72.315
72.162
72.496
72.496
72.55
72.595
72.64
72.281
72.474
72.407
72.528
72.438
72.45
72.514
72.497
72.42
72.334
72.475
72.441
72.476
72.442
72.501
72.488
68.332
68.321
68.319
68.319
68.285
68.177
68.202
68.2
68.175
68.236
69.103
69.114
69.179
69.178
69.219
69.19
69.279
69.323
69.338
69.372
69.397
69.397
69.487
69.476
69.608
69.566
69.566
71.101
71.101
71.078
71.101
71.033
71.053
71.034
69.775
69.634
69.775
70.973
71.036
70.947
70.971
69.908
70.074
70.737
70.794
70.711
70.604
70.309
70.453
70.273
70.273
70.24
69.237
69.236
69.192
69.492
69.351
69.353
69.316
69.192
69.123
69.161
69.253
69.171
69.144
69.14
69.22
69.191
71.089
71.088
71.098
71.096
71.097
71.096
71.093
71.068
71.08
71.059
71.059
70.98
71.007
70.998
71.024
70.979
70.979
70.979
70.979
71.969
71.889
72.068
71.99
71.962
72.049
71.884
72.31
72.145
72.34
71.676
71.599
71.523
71.733
71.06
71.082
70.957
70.979
70.925
70.92
71.035
71.269
70.851
70.846
70.979
70.979
69.629
69.618
69.608
69.742
69.72
69.761
69.761
69.833
69.843
69.929
69.918
69.93
69.929
69.828
69.833
69.982
69.983
70.017
70.04
69.941
69.947
69.923
69.868
69.788
69.824
69.757
69.805
70.002
70.032
69.971
69.947
70.073
70.074
70.099
70.079
70.038
70.058
70.038
70.032
68.454
68.501
68.423
68.462
68.453
68.409
68.418
68.366
68.389
68.339
68.373
68.404
68.339
68.373
68.562
68.562
68.572
68.558
68.545
68.533
68.533
68.525
68.619
68.619
68.596
68.611
68.581
68.573
68.981
69.058
69.14
69.064
69.268
69.176
69.063
69.057
68.832
68.832
68.83
68.902
68.743
68.696
68.785
68.832
68.69
68.69
68.676
68.69
68.653
68.63
68.622
68.621
68.621
68.624
68.619
68.619
68.621
68.624
69.579
69.584
69.416
69.34
69.438
69.519
69.284
69.34
69.607
69.584
69.613
69.696
68.444
68.408
68.425
68.4
68.381
68.392
68.357
68.345
68.368
68.355
68.365
68.355
68.35
68.327
68.304
68.287
68.287
68.235
68.258
68.209
68.203
68.332
68.319
68.202
68.193
70.096
69.937
70.068
69.963
70.038
70.065
70.104
70.14
70.114
70.076
70.182
70.131
70.127
70.239
70.18
70.036
69.921
70.005
69.913
69.913
69.921
69.85
69.704
69.799
69.613
69.613
69.647
69.698
69.577
69.533
69.476
69.488
69.465
69.476
69.356
69.408
69.306
69.315
69.289
69.284
69.309
69.253
69.209
69.236
69.251
69.224
69.174
69.188
69.207
69.163
69.079
69.079
69.085
69.065
68.935
69.02
68.85
68.824
68.824
68.757
68.681
68.605
68.597
68.585
68.538
68.49
68.454
68.454
68.416
68.442
68.39
68.375
68.375
68.375
68.375
68.375
68.407
68.375
68.407
70.722
70.733
70.711
70.744
70.432
70.127
70.44
69.967
70.096
70.088
70.248
70.224
70.224
70.224
70.224
70.224
70.224
70.225
70.224
70.711
70.722
70.85
70.781
70.744
70.79
70.744
70.744
70.774
70.763
70.963
70.986
71.18
71.063
70.951
71.068
70.951
70.928
71.703
71.903
71.44
71.641
71.44
71.304
71.422
71.346
71.564
71.345
71.203
72.023
72.169
72.232
72.199
71.859
71.969
71.906
71.928
72.262
72.32
72.512
72.512
72.45
72.378
72.557
72.55
72.493
72.454
72.352
72.418
72.547
72.533
72.559
72.558
72.84
72.914
73.096
73.08
72.684
72.662
72.812
72.919
73.047
73.064
72.533
72.556
72.622
72.667
72.56
72.748
72.38
72.534
72.545
72.764
72.599
72.641
72.818
72.448
72.331
72.437
72.417
72.443
72.717
72.546
72.423
72.365
72.575
72.537
72.561
72.591
72.583
72.542
72.472
72.567
72.573
72.598
72.587
72.636
72.593
68.149
68.161
68.143
68.152
68.142
68.142
68.305
68.303
68.236
68.269
68.177
68.152
68.178
68.291
68.341
69.239
69.239
69.238
69.249
69.239
69.307
69.263
69.476
69.42
69.555
69.555
69.608
69.608
69.608
71.101
71.089
71.07
71.027
69.801
69.609
69.776
70.969
70.981
69.822
69.929
70.857
70.768
70.862
70.949
70.233
70.088
70.703
70.703
70.56
70.703
70.269
70.412
70.262
69.236
69.237
69.236
69.236
69.236
69.524
69.409
69.465
69.346
69.285
69.26
69.33
69.246
69.295
69.295
69.309
70.982
70.983
70.877
70.867
70.972
70.971
70.846
70.955
70.843
70.815
70.931
70.79
70.883
70.858
70.866
70.705
70.703
70.759
70.871
70.867
70.759
71.656
71.643
71.8
71.821
71.715
71.624
71.833
71.847
71.994
72.194
72.293
72.102
72.395
72.149
71.443
71.599
71.188
71.599
70.904
70.851
70.966
70.913
70.82
70.82
70.87
70.973
70.852
70.807
70.812
70.713
72.373
72.619
72.738
72.83
72.815
72.876
69.631
69.701
69.714
69.784
69.792
69.874
69.888
69.898
69.898
69.908
69.898
69.968
69.957
70.034
70.048
69.898
69.893
70.106
70.113
70.109
70.101
69.827
69.762
69.844
69.948
69.966
69.89
69.959
69.875
70.035
70.065
70.006
70.05
70.099
70.099
70.106
70.085
70.088
70.115
70.123
70.14
68.491
68.508
68.482
68.482
68.482
68.462
68.441
68.421
68.421
68.421
68.337
68.38
68.416
68.572
68.573
68.545
68.558
68.533
68.533
68.508
68.525
68.619
68.612
68.589
68.605
68.59
68.582
68.942
69.02
69.098
69.062
69.115
69.208
69.025
69.061
68.827
68.828
68.867
68.823
68.736
68.688
68.825
68.779
68.686
68.688
68.665
68.685
68.644
68.625
68.626
68.626
68.626
68.626
68.622
68.624
68.626
68.626
69.586
69.526
69.34
69.362
69.44
69.357
69.338
69.263
69.592
69.596
69.602
69.684
69.848
69.804
69.722
68.375
68.371
68.344
68.352
68.328
68.316
68.316
68.316
68.28
68.3
68.288
68.322
68.291
68.28
68.256
68.237
68.224
68.227
68.175
68.174
68.151
68.173
68.26
68.255
68.138
68.141
70.317
70.249
70.369
70.14
70.22
70.14
70.14
70.15
70.22
70.291
70.352
70.352
70.326
70.266
70.1
70.195
70.217
70.016
69.862
69.903
70.049
69.811
69.768
69.75
69.768
69.665
69.595
69.716
69.492
69.555
69.484
69.48
69.39
69.451
69.329
69.296
69.3
69.296
69.171
69.207
69.238
69.183
69.159
69.165
69.171
69.18
69.165
69.165
69.084
69.041
69.003
69.047
69.003
68.977
68.837
68.904
68.811
68.824
68.743
68.668
68.581
68.586
68.55
68.513
68.437
68.448
68.425
68.42
68.392
68.382
68.364
68.371
68.36
68.364
68.374
68.362
68.375
68.374
70.784
70.807
70.756
70.778
70.777
70.753
70.778
70.589
70.781
70.224
70.217
70.695
70.482
70.224
70.224
70.224
70.224
70.224
70.224
70.296
70.388
70.905
70.874
70.918
70.849
70.839
70.78
70.901
70.896
71.007
71.018
71.302
71.302
71.185
71.302
70.951
71.068
71.016
71.026
71.906
71.842
71.857
71.656
71.564
71.662
71.705
71.705
71.587
71.729
71.444
71.302
72.178
72.296
72.326
72.326
72.114
71.974
71.952
71.906
72.4
72.489
72.658
72.662
72.577
72.568
72.568
72.568
72.587
72.597
72.795
72.704
72.668
72.79
73.023
72.978
73.098
73.098
73.092
73.109
72.765
72.932
73.039
73.047
73.125
73.097
72.842
72.81
72.948
72.891
73.142
73.017
73.203
73.001
72.683
72.852
72.598
72.691
72.985
73.056
72.867
72.916
72.733
72.729
72.851
72.652
72.699
72.76
72.727
72.578
72.593
72.593
72.599
72.685
72.722
72.661
72.618
68.129
68.106
68.097
68.142
68.136
68.152
68.142
68.255
68.236
68.219
68.203
68.203
68.167
68.141
68.295
68.264
68.344
68.308
68.314
69.244
69.245
69.341
69.379
69.281
69.349
69.341
69.472
69.445
69.581
69.608
69.608
69.608
69.631
70.889
70.964
69.691
69.58
69.802
70.841
70.901
69.847
69.852
70.809
70.87
70.111
69.977
70.739
70.669
70.728
70.772
70.251
70.245
70.655
70.621
70.576
70.477
70.323
69.281
69.236
69.261
69.285
69.519
69.519
69.496
69.426
69.309
69.309
69.356
69.309
69.309
70.783
70.783
70.783
70.771
70.75
70.729
70.721
70.721
70.718
70.692
70.676
70.648
70.651
70.635
70.596
70.559
70.605
70.518
70.557
70.606
70.564
70.559
70.559
71.502
71.514
71.599
71.462
71.552
71.39
71.39
71.902
71.726
71.958
72
72
72.226
72.099
71.286
71.071
71.13
71.443
70.731
70.692
70.627
70.599
70.537
70.652
70.814
70.93
70.439
70.556
70.518
70.486
72.38
72.353
72.499
72.752
72.949
73.136
73.189
73.375
73.298
73.452
69.714
69.797
69.797
69.857
69.857
69.882
69.866
69.896
69.857
69.93
69.93
70.021
70.003
70.097
70.095
70.123
70.125
69.974
70.003
70.116
70.125
70.122
70.131
69.903
69.859
70.018
70.046
69.976
69.859
69.799
69.843
70.114
70.156
70.091
70.067
70.167
70.184
70.192
70.224
70.192
70.217
70.194
70.176
68.482
68.491
68.482
68.465
68.485
68.454
68.431
68.448
68.433
68.378
68.431
68.348
68.382
68.314
68.591
68.569
68.573
68.551
68.569
68.543
68.517
68.552
68.624
68.615
68.608
68.599
68.6
68.6
68.888
68.968
69.079
69.061
69.158
69.067
69.055
68.998
68.821
68.821
68.821
68.844
68.73
68.684
68.764
68.81
68.683
68.683
68.676
68.657
68.626
68.638
68.626
68.626
68.626
68.626
68.626
68.626
68.626
68.626
69.505
69.598
69.332
69.329
69.417
69.324
69.327
69.227
69.602
69.602
69.623
69.64
69.7
69.602
68.361
68.342
68.322
68.287
68.292
68.272
68.258
68.25
68.242
68.255
68.247
68.226
68.205
68.193
68.193
68.183
68.162
68.142
68.131
68.131
68.119
68.244
68.254
68.1
68.081
70.5
70.46
70.48
70.393
70.273
70.193
70.294
70.276
70.364
70.352
70.352
70.326
70.228
70.277
70.205
70.204
70.204
70.142
70.073
69.899
69.975
69.815
69.729
69.737
69.823
69.667
69.662
69.575
69.513
69.542
69.466
69.524
69.33
69.406
69.297
69.296
69.282
69.22
69.093
69.086
69.146
69.117
69.086
69.14
69.031
69.104
69.127
69.091
68.958
68.947
68.883
68.829
68.946
68.855
68.711
68.761
68.692
68.723
68.529
68.564
68.497
68.482
68.411
68.399
68.339
68.371
68.325
68.341
68.322
68.289
68.317
68.286
68.278
68.32
68.331
68.288
68.29
68.319
71.029
71.027
70.93
70.992
70.891
70.957
70.845
70.846
70.885
70.968
70.927
70.755
70.49
71.021
71.021
70.397
70.663
70.224
70.397
70.296
70.224
70.388
70.48
71.087
71.076
70.989
71.098
71.052
71.023
71.109
71.109
71.098
71.109
71.34
71.34
71.394
71.239
71.131
71.227
71.212
71.236
71.991
72.007
72.092
71.948
71.873
71.729
71.729
71.729
71.765
71.623
71.416
71.556
72.326
72.232
72.4
72.326
72.082
72.222
72.121
72.077
72.578
72.489
72.722
72.731
72.586
72.596
72.67
72.737
72.891
72.829
73.093
72.996
73.152
73.135
73.193
73.232
73.204
73.287
73.235
73.296
72.984
73.014
73.13
73.206
73.316
73.315
72.958
72.962
72.909
72.958
73.723
73.577
73.529
73.598
73.252
73.391
73.114
73.059
72.861
72.812
72.839
72.852
73.006
73.077
73.091
72.984
72.982
73.853
73.837
73.87
73.695
72.821
72.797
72.797
72.764
72.593
72.593
72.661
72.642
72.698
72.722
72.8
72.794
68.075
68.091
68.075
68.103
68.115
68.086
68.101
68.123
68.103
68.245
68.219
68.219
68.219
68.148
68.103
68.083
68.185
68.308
68.277
68.306
68.306
68.313
68.271
68.383
69.478
69.38
69.478
69.438
69.437
69.53
69.532
69.528
69.528
69.528
69.555
69.634
69.66
69.743
69.741
69.63
69.519
70.779
70.762
69.852
69.852
70.745
70.732
69.917
70.047
70.732
70.712
70.177
70.241
70.573
70.61
70.654
70.241
70.316
70.559
70.528
70.422
69.372
69.447
69.471
69.384
69.519
69.496
69.359
69.429
69.384
69.309
69.312
70.779
70.783
70.771
70.783
70.729
70.75
70.721
70.721
70.721
70.695
70.637
70.666
70.635
70.635
70.574
70.613
70.518
70.518
70.518
70.535
70.518
70.518
70.518
70.518
71.302
71.429
71.231
71.345
71.39
71.39
71.345
71.463
71.636
71.855
71.709
71.954
71.965
72.237
72.434
72.549
72.149
70.971
71.113
71.13
71.075
70.404
70.382
70.432
70.377
70.355
70.297
70.395
70.694
70.239
70.22
70.464
70.518
74.074
74.012
73.94
73.969
72.787
72.87
73.176
73.108
73.396
73.465
73.632
73.667
73.834
73.873
73.978
73.929
69.857
69.857
69.826
69.857
69.857
69.86
69.86
70.041
70.036
69.955
69.941
70.076
70.076
70.117
70.118
70.119
70.122
70.15
70.151
70.112
70.117
70.207
70.219
70.26
70.245
69.932
70.005
70.067
69.852
69.948
69.82
69.721
69.797
70.114
70.156
70.054
70.077
70.284
70.279
70.274
70.244
70.219
70.194
70.16
70.179
68.534
68.511
68.534
68.497
68.507
68.481
68.505
68.47
68.451
68.416
68.417
68.417
68.379
68.412
68.314
68.6
68.596
68.591
68.587
68.587
68.587
68.578
68.56
68.569
68.621
68.613
68.604
68.6
68.6
68.92
68.846
69.037
69.043
69.124
69.025
68.965
69.031
68.809
68.798
68.794
68.808
68.683
68.718
68.749
68.716
68.67
68.677
68.646
68.633
68.614
68.619
68.619
68.612
68.618
68.611
68.618
68.614
68.611
69.509
69.602
69.323
69.323
69.416
69.323
69.224
69.323
69.589
69.589
69.618
69.559
69.534
69.564
68.264
68.258
68.217
68.224
68.208
68.204
68.187
68.215
68.239
68.22
68.199
68.193
68.193
68.183
68.14
68.161
68.117
68.118
68.091
68.097
68.195
68.21
68.066
68.063
70.5
70.5
70.5
70.436
70.503
70.399
70.473
70.525
70.569
70.461
70.509
70.351
70.376
70.279
70.333
70.134
70.189
70.064
69.967
69.996
69.996
69.899
69.72
69.853
69.68
69.595
69.605
69.567
69.476
69.387
69.567
69.49
69.315
69.302
69.287
69.305
69.199
69.12
69.054
69.073
69.067
69.079
69.073
69.097
69.004
68.944
69
68.944
68.924
68.937
68.765
68.675
68.839
68.757
68.675
68.674
68.595
68.517
68.44
68.44
68.418
68.373
68.329
68.306
68.306
68.292
68.273
68.253
68.247
68.247
68.247
68.247
68.247
68.247
68.247
68.247
68.242
68.23
71.076
71.076
71.078
71.09
71.103
71.113
71.069
71.1
71.028
71.122
71.06
71.021
71.101
71.021
70.928
71.021
71.021
70.663
70.928
70.755
70.49
70.79
70.617
70.881
70.672
71.108
71.119
71.202
71.149
71.109
71.12
71.14
71.14
71.217
71.227
71.469
71.491
71.476
71.389
71.266
71.323
71.225
71.266
72.162
72.162
72.018
72.162
71.907
71.762
71.805
71.802
71.845
71.738
71.635
71.528
72.354
72.344
72.421
72.481
72.325
72.408
72.311
72.192
72.642
72.665
72.722
72.755
72.858
73.007
73.072
72.968
73.26
73.344
73.327
73.327
73.382
73.382
73.382
73.382
73.38
73.382
73.374
73.377
73.087
73.226
73.36
73.374
73.374
73.374
74.132
74.133
74.194
74.133
73.083
73.208
73.19
73.017
73.49
73.725
73.482
73.244
73.24
73.351
73.112
72.983
73.127
73.113
73.311
73.233
73.258
73.926
73.825
74.031
73.93
72.949
73.096
72.959
73.12
72.713
72.736
72.853
72.785
72.818
72.915
72.943
73.011
68.059
68.05
68.057
68.061
68.035
68.065
68.058
68.057
68.074
68.058
68.055
68.216
68.185
68.15
68.105
68.097
68.077
68.116
68.271
68.213
68.236
68.236
68.249
68.213
68.345
68.317
68.286
69.534
69.533
69.546
69.536
69.536
69.538
69.539
69.544
69.631
69.621
69.701
69.715
69.811
69.558
69.61
69.682
69.793
69.852
70.779
70.762
70.745
69.917
69.852
70.732
70.732
70.047
70.177
70.694
70.636
70.241
70.241
70.579
70.559
70.347
70.453
70.559
69.564
69.564
69.57
69.477
69.626
69.52
69.405
69.543
69.495
70.752
70.752
70.644
70.654
70.598
70.51
70.598
70.476
70.451
70.545
70.44
70.558
70.555
70.501
70.398
70.417
70.481
70.481
70.248
70.329
70.449
70.486
70.482
70.45
72.602
72.977
72.908
70.998
70.921
71.069
71.196
71.409
71.058
71.227
71.482
71.536
71.564
71.642
71.798
72.033
71.954
72.081
72.365
70.903
70.685
71.052
70.993
70.355
70.355
70.409
70.355
70.323
70.265
70.223
70.39
70.207
70.185
70.34
70.321
74.109
74.191
74.349
74.387
74.29
73.197
73.15
73.401
73.531
73.758
73.79
73.804
73.795
73.956
74.041
74.204
74.222
69.828
69.843
69.857
69.881
69.881
69.941
69.963
70.106
70.101
70.101
70.023
70.023
70.101
70.117
70.117
70.163
70.161
70.233
70.218
70.286
70.286
70.178
70.183
70.313
70.328
70.299
70.284
70.035
70.002
69.931
69.854
69.779
69.804
69.695
69.779
70.119
70.078
70.016
70.036
70.283
70.278
70.223
70.252
70.181
70.162
70.145
70.121
68.557
68.56
68.531
68.544
68.521
68.521
68.486
68.521
68.452
68.417
68.417
68.412
68.349
68.383
68.6
68.596
68.587
68.591
68.587
68.587
68.572
68.581
68.565
68.562
68.606
68.605
68.601
68.601
68.878
68.795
69.025
69.025
69.014
69.114
68.944
69.025
68.746
68.78
68.777
68.778
68.664
68.667