/*--------------------------------*- C++ -*----------------------------------*\
  =========                 |
  \\      /  F ield         | OpenFOAM: The Open Source CFD Toolbox
   \\    /   O peration     | Website:  https://openfoam.org
    \\  /    A nd           | Version:  8
     \\/     M anipulation  |
\*---------------------------------------------------------------------------*/
FoamFile
{
    version     2.0;
    format      ascii;
    class       volScalarField;
    location    "3180";
    object      H;
}
// * * * * * * * * * * * * * * * * * * * * * * * * * * * * * * * * * * * * * //

dimensions      [0 1 0 0 0 0 0];

internalField   nonuniform List<scalar> 
526318
(
0.864504
0.827444
0.905921
0.807121
0.892364
0.825012
0.862195
0.772457
0.831667
0.711663
0.69
0.81498
0.762164
0.801776
0.763493
0.785268
0.765945
0.959487
0.880581
0.907025
0.918978
0.863158
0.621165
0.860853
0.754231
0.617395
0.88885
0.883365
0.884546
0.899892
0.927562
0.975961
0.959273
0.844034
0.833439
0.799307
0.804625
0.899626
0.841364
0.771591
0.865484
0.812936
0.470579
0.529783
0.436817
0.47845
0.457313
0.579637
0.752176
0.664003
0.744684
0.735939
0.696101
0.656177
0.154873
0.4048
0.394126
0.195481
0.912654
0.92533
0.940926
0.901347
0.844275
0.967631
0.968263
0.921575
0.920106
0.904435
0.816574
0.819771
0.92762
0.705823
0.754193
0.656619
0.603597
0.597217
0.68828
0.693433
0.599924
0.643398
0.725732
0.723194
0.676182
0.634221
0.6666
0.734335
0.725748
0.71629
0.660152
0.724271
0.633904
0.581984
0.589305
0.508684
0.502987
0.510121
0.512154
0.506324
0.505175
0.501885
0.000553628
2.15653e-06
0.000581227
0.00786319
0.0662278
0.000530803
0.413402
0.225782
0.538539
0.5046
0.544548
0.656916
0.884888
0.777727
0.887675
0.897355
0.97002
0.933249
0.976214
0.502226
0.50134
0.501511
0.509353
0.461487
0.498473
0.411529
0.454709
0.36609
0.412208
0.363351
0.364384
0.356555
0.328633
0.322601
0.347219
0.290452
0.345469
0.294035
0.311854
0.257602
0.264827
0.283467
0.314077
0.299241
0.257238
0.258259
0.272252
0.261465
0.256901
0.261613
0.276701
0.263794
0.266756
0.265963
0.266801
0.23193
0.267409
0.269715
0.234346
0.191001
0.269704
0.215977
0.271802
0.76302
0.859082
0.814556
0.782447
0.600152
0.658426
0.595272
0.599584
0.595882
0.599441
0.61401
0.59592
0.531893
0.500504
0.467729
0.410612
0.468206
0.508824
0.510737
0.508907
0.396286
0.448712
0.336148
0.34468
0.35235
0.346747
0.344736
0.352016
0.338516
0.341524
0.337848
0.326173
0.306356
0.329292
0.320825
0.293266
0.274223
0.301315
0.282414
0.274316
0.298802
0.28722
0.290392
0.254413
0.266192
0.295982
0.308819
0.740632
0.761235
0.782453
0.794618
0.756894
0.73276
0.758919
0.630929
0.653279
0.416566
0.39739
0.391434
0.516811
0.65915
0.5251
0.567179
0.56421
0.515393
0.490614
0.00125799
2.31465e-06
0.133872
0.338164
0.00027704
9.76159e-09
0.000995694
0.000255125
0.000396609
0.000963311
0.965591
0.94846
1.00249
0.989923
0.96939
0.942784
0.852742
0.94628
0.781705
0.73119
0.743416
0.7316
0.728302
0.730173
0.718547
0.724476
0.631612
0.697717
0.520268
0.573101
0.502112
0.51314
0.000992704
4.56871e-11
0.000146849
0.00101
0.00141245
0.000998029
0.000678076
0.12705
0.510552
0.327179
0.562311
0.562448
0.674041
0.774902
0.899901
0.899402
0.93644
0.916536
0.979791
1.00809
0.481039
0.479489
0.439959
0.411687
0.312684
0.347096
0.274318
0.283271
0.275345
0.265852
0.256364
0.262953
0.18703
0.211176
0.250528
0.285571
0.339594
0.302424
0.27343
0.261534
0.199226
0.186667
0.243156
0.302682
0.221154
0.255606
0.259048
0.227613
0.222681
0.191765
0.186837
0.147939
0.145347
0.153403
0.138939
0.267786
0.300321
0.265259
0.304053
0.654899
0.637037
0.528879
0.608656
0.533282
0.580562
0.59497
0.58109
0.597713
0.59435
0.508132
0.420686
0.347876
0.334673
0.409023
0.349942
0.335099
0.448553
0.336467
0.387344
0.325665
0.3268
0.336492
0.325984
0.340201
0.334983
0.33609
0.337406
0.33714
0.336756
0.343038
0.338266
0.350675
0.348913
0.352083
0.329931
0.346152
0.327474
0.301521
0.304309
0.326338
0.359874
0.350212
0.327845
0.30805
0.336329
0.37564
0.376135
0.386642
0.34746
0.382041
0.400203
0.440574
0.387372
0.401181
0.423596
0.453435
0.574464
0.669796
0.576344
0.586939
0.694019
0.748621
0.648448
0.510463
0.623453
0.526973
0.554158
0.288248
0.231878
0.267297
0.243142
0.367503
0.482809
0.414415
0.484914
0.486098
0.507034
0.485592
0.000387787
0.000849879
0.061874
4.66377e-07
0.138601
0.0309928
0.000599399
0.00104775
0.000165641
0.00100962
0.000664765
0.00100889
0.000730728
0.000955715
0.000582482
0.000952703
0.998267
0.977128
1.01925
1.00655
0.988909
0.953814
0.879585
0.798324
0.719957
0.753432
0.712407
0.719506
0.693756
0.706809
0.675283
0.680102
0.628656
0.670638
0.592702
0.540931
0.480714
0.441693
0.000991287
0.00111486
0.00111464
0.000663073
0.000356859
0.000731205
0.00056403
0.000510704
0.00111569
0.0011157
0.000708692
0.00100984
0.000757125
0.00100942
0.0013193
0.00017911
0.000296276
0.000495283
0.000981725
0.000983054
0.000191272
0.00100233
0.043532
0.0220812
0.212846
0.0641478
0.421848
0.584384
0.596043
0.687008
0.910256
0.812852
0.922808
0.922118
0.944169
0.969096
0.991971
1.01785
0.39916
0.396939
0.353736
0.380408
0.319533
0.284254
0.273927
0.274014
0.266378
0.274568
0.226489
0.219858
0.164167
0.178652
0.236252
0.208213
0.178032
0.234172
0.224362
0.237544
0.147934
0.141054
0.168338
0.173536
0.17597
0.132494
0.136672
0.134456
0.140685
0.12414
0.120833
0.422257
0.395283
0.399124
0.40202
0.419254
0.522874
0.475921
0.460863
0.344385
0.378841
0.371106
0.370098
0.273469
0.210415
0.388859
0.511508
0.389178
0.401532
0.371783
0.46341
0.436064
0.516306
0.546058
0.469104
0.448962
0.483609
0.363639
0.330269
0.329746
0.334062
0.249882
0.300897
0.226881
0.1805
0.16174
0.279624
0.277338
0.326874
0.327147
0.326168
0.328042
0.327821
0.330493
0.329745
0.338269
0.330948
0.350888
0.343323
0.351981
0.353828
0.376604
0.365264
0.383753
0.390616
0.33953
0.319903
0.388521
0.365485
0.358926
0.373446
0.357739
0.348614
0.398402
0.37568
0.479559
0.488603
0.440697
0.481995
0.489565
0.45025
0.546699
0.518235
0.584306
0.606084
0.6264
0.542764
0.544517
0.550164
0.514278
0.486355
0.463488
0.550678
0.406373
0.378945
0.428348
0.450938
0.127434
0.181448
0.254259
0.380576
0.414483
0.44438
0.353509
0.316814
0.283113
0.224598
0.000965631
0.000592166
0.00102741
4.78322e-07
0.0592669
0.131333
0.000993891
0.000234006
0.00100979
0.000545241
0.00024476
0.000470015
0.000926911
0.000208943
0.000718679
0.000986846
0.000766556
0.000551352
0.000138864
0.000388285
0.00097475
0.00101
0.000132232
0.000999776
0.00096511
0.000381555
0.00119086
0.000960147
0.000980901
0.0011909
0.00119083
0.00119081
0.000887343
0.000999494
0.0009727
0.000201819
9.59135e-05
0.000989075
0.000892979
0.0009482
0.00100959
0.000881287
0.00100974
0.00100225
2.6935e-05
0.000905652
0.983791
0.990816
1.01362
1.004
0.977834
0.917352
0.72838
0.823822
0.70868
0.691787
0.686731
0.670375
0.674379
0.669379
0.665124
0.669731
0.604604
0.583437
0.484361
0.524366
0.378123
0.420471
0.000851104
0.000624444
0.000948563
0.000967574
0.000969466
0.000982262
0.000986514
0.000879074
0.000998153
0.000737649
0.000677989
0.000965569
0.000971308
0.000759356
0.000380116
0.000991326
0.000690401
0.00100737
0.000803925
0.000839513
0.000369052
0.000975289
0.000889611
0.000439439
0.000917861
0.000872973
0.00111407
0.000308489
1.03756e-05
0.000303227
0.0832726
0.000436457
0.104626
0.105434
0.401612
0.229393
0.611883
0.565449
0.635794
0.735483
0.841002
0.922926
0.934248
0.925905
0.963814
1.00009
0.980973
0.976213
0.00101
0.000734461
0.000886173
0.000268372
0.000928697
0.000922867
0.00081396
0.000929494
0.000890554
0.000725685
0.000975785
0.00092383
0.000794854
5.91556e-07
0.000716784
0.00101
0.000170373
0.379708
0.379323
0.379709
0.344908
0.265628
0.300083
0.225249
0.217371
0.18327
0.176305
0.132026
0.131292
0.162898
0.158489
0.12027
0.151588
0.146475
0.193173
0.177747
0.179062
0.0985933
0.0722182
0.0757253
0.111034
0.122852
0.122534
0.0984256
0.10044
0.0631125
0.0549862
0.0142115
0.0204256
0.615734
0.584106
0.623204
0.63516
0.58479
0.543287
0.709718
0.731996
0.793464
0.810626
0.357206
0.396051
0.44644
0.527752
0.355184
0.297083
0.322852
0.333925
0.169934
0.223226
0.269889
0.162441
0.381336
0.375508
0.378738
0.376017
0.398591
0.375367
0.391664
0.40516
0.285757
0.275739
0.174624
0.267026
0.255817
0.215007
0.164708
0.185407
0.132179
0.146258
0.126575
0.212151
0.275534
0.208177
0.275531
0.326428
0.323202
0.328398
0.329517
0.329609
0.351399
0.344736
0.360359
0.357983
0.379748
0.372394
0.390279
0.391237
0.390775
0.390244
0.404931
0.394656
0.435528
0.409687
0.373765
0.372262
0.439316
0.409365
0.420289
0.457824
0.495779
0.494496
0.492452
0.496473
0.529497
0.576604
0.638666
0.65828
0.667644
0.645975
0.795529
0.732026
0.858997
0.902756
0.891786
0.928538
0.982986
0.853472
0.937545
0.95571
1.03225
1.08024
1.1044
1.12779
1.15778
1.09833
1.15702
1.11375
1.19483
1.19547
1.24486
1.21256
1.27259
1.30541
1.29191
1.24295
1.30377
1.33196
1.29507
1.29438
1.35517
1.33198
1.36805
1.30671
1.30879
1.36921
1.34249
1.29327
1.29091
1.32568
1.35664
0.349232
0.316441
0.48492
0.480708
0.452178
0.444398
0.447411
0.213411
0.348592
0.0485279
0.0732581
0.180389
0.164791
0.0399406
0.126747
0.115293
0.279
0.186576
0.182551
0.0894504
0.0879124
0.0995491
0.118633
0.000349126
0.00105834
0.000982085
7.93656e-05
0.000689739
2.84431e-05
0.00101
0.000966006
0.000995857
0.000689332
2.20187e-05
0.00130509
0.000842141
0.000928041
0.000844807
0.000813128
0.000213618
0.00069126
0.000943677
0.000831092
0.00112565
0.00075836
0.00012748
0.000146108
0.000949
0.000255762
1.26965e-05
1.61879e-05
0.000990101
0.000818938
0.00100231
0.000955198
0.000911134
0.000410555
0.000489319
0.000867105
0.000762255
0.000945839
0.00098906
0.00101243
0.000993239
0.000990896
0.0012962
0.000908303
0.00118424
0.00093587
0.00118439
0.00118429
0.00117935
0.000990946
0.00118461
0.00118451
0.000323797
0.000837316
0.00102951
0.000879014
0.000917113
0.000377029
0.000991017
0.000960908
0.00100983
0.00100977
0.000136678
0.000844063
0.000950381
0.000921886
0.000915695
0.000919934
0.000870549
0.00129423
0.000851893
0.000968314
0.969074
0.963207
0.931498
0.940319
0.847586
0.928316
0.744024
0.675841
0.684649
0.667555
0.674799
0.668677
0.60727
0.614535
0.460258
0.421646
0.379936
0.555462
0.554843
0.503199
0.502092
0.503646
0.000650009
0.000459725
0.0012266
0.00122621
0.000962471
0.000414864
0.000657209
0.000410365
0.000990158
0.00102787
0.000161511
0.00100893
0.000972717
0.000941946
0.000297472
0.000985833
0.000726155
0.00091818
0.00021426
0.00071546
0.000644008
0.000951565
0.00115565
0.00115599
0.000238269
7.93341e-06
0.00042724
0.10117
0.236559
0.102987
0.397715
0.567258
0.596506
0.625652
0.703042
0.825677
0.884819
0.86842
0.909475
0.840323
0.892532
0.932507
0.895667
0.88554
0.00124949
0.000855638
0.00101166
0.000849207
0.000994521
0.00120498
0.000764168
0.00079701
0.00120494
0.000920789
0.00100237
0.000965018
0.00077237
1.14836e-05
0.00081357
0.000727262
0.000776991
0.000656439
0.00098774
0.000236686
0.000248866
0.000466334
0.00096459
0.000795867
0.00125833
0.000449413
0.355614
0.352648
0.274249
0.291756
0.169191
0.191575
0.127594
0.130886
0.13093
0.128964
0.103465
0.101216
0.073572
0.0751333
0.0511073
0.0952315
0.164428
0.133891
0.165402
0.173333
0.0010281
0.0109058
0.0534893
0.0314475
0.0401978
0.0427136
0.000588368
0.000893581
0.000993161
0.000544308
0.00146016
0.000860313
0.840982
0.846093
0.664168
0.57946
0.572488
0.557561
0.83474
0.7485
0.998681
1.07016
0.969981
0.900068
1.08463
1.06745
1.13246
1.18216
1.21061
1.21037
1.23702
1.21417
1.26792
1.29165
1.28991
1.28859
1.30865
1.29203
1.29408
1.3415
1.28127
1.27652
0.401673
0.332551
0.476311
0.547446
0.338815
0.277333
0.329149
0.326437
0.162851
0.217142
0.0485809
0.215124
0.0989037
0.375683
0.317152
0.378777
0.366724
0.37894
0.270252
0.170587
0.0945095
0.077537
0.0963842
0.128276
0.0588686
0.0438809
0.000443749
0.0519029
0.14064
0.129547
0.0531077
0.151579
0.222241
0.168965
0.274127
0.221038
0.263105
0.316559
0.353521
0.330854
0.365059
0.365921
0.377554
0.368659
0.39901
0.410498
0.409905
0.42115
0.428478
0.431399
0.463946
0.474096
0.465722
0.461827
0.463002
0.460209
0.477612
0.492027
0.531343
0.531087
0.496487
0.525567
0.525076
0.553907
0.5864
0.650453
0.681205
0.679774
0.695967
0.761513
0.853202
0.92098
0.936887
1.05982
0.934177
0.983756
1.13176
1.15905
1.15803
1.19602
1.24262
1.29314
1.30082
1.30716
1.33158
1.36677
1.38628
1.39249
1.39395
1.38835
1.38961
1.37534
1.31027
1.37279
1.34338
1.29366
1.29437
1.32783
1.35915
1.36963
1.29514
1.35598
1.31621
0.137094
0.130465
0.206984
0.273763
0.174211
0.234882
0.370499
0.307878
0.337751
0.16808
0.0779893
0.0389763
0.0395539
0.14197
0.137485
7.29647e-09
0.000851363
0.0925001
0.000814982
0.0930283
0.0882425
0.0989417
0.089021
0.104184
0.122194
0.000871197
0.000837817
0.000904459
0.000791497
0.00127387
0.00127365
0.00086849
0.000172666
0.000836201
0.00130461
0.000981197
0.000908714
0.000478021
0.000315336
0.000580336
0.00101
0.000646782
0.00112522
0.000934557
0.000984534
0.00098631
0.000660221
0.000998234
0.000701989
0.00100779
0.000868975
0.0010532
0.000955762
0.000861937
0.000744326
0.00116265
8.7664e-05
0.00099613
0.000976554
0.000279078
0.000819278
0.000544652
0.000936558
0.000765323
0.000974222
0.000953306
0.000943667
0.000978339
0.000943996
0.000974885
0.00092222
0.00026611
0.00145894
0.000940196
0.00105541
0.000872821
0.00100962
0.000641972
0.000367709
0.000916152
0.000960434
0.000955736
0.000892128
0.000746129
0.000479733
0.892956
0.875467
0.864582
0.872231
0.795208
0.868274
0.675252
0.728545
0.629097
0.624324
0.583
0.559357
0.500251
0.503512
0.417701
0.311756
0.293282
0.459281
0.504563
0.505659
0.503134
0.504011
0.00122734
0.000983298
0.00122803
0.00028095
0.000973634
0.000953788
0.000989905
0.000963159
0.000983712
0.000813892
0.000135327
0.000443538
0.00093376
0.000982119
0.00060297
0.00100999
0.00098232
3.53596e-05
0.000985985
0.000873381
0.000276721
0.00074627
0.000609607
0.0010217
0.000321117
4.69245e-05
0.0740504
0.100898
0.299118
0.126032
0.437124
0.571596
0.545769
0.659444
0.823305
0.729157
0.798082
0.800516
0.792221
0.822068
0.870479
0.878147
0.875122
0.849344
0.000769413
0.000922585
0.000573493
0.000958878
0.000712787
0.000933944
0.000627141
0.000311966
0.000812029
0.000879841
0.000957505
0.000914894
0.0010273
0.000878778
0.000944013
0.000873917
0.00096514
0.000987798
0.000917051
0.00107269
0.000727271
0.00107254
0.000903398
0.000901385
0.00101
0.000860782
0.000668131
0.000529485
0.000136748
0.000756032
0.000938482
0.230593
0.228221
0.195271
0.173142
0.131707
0.147614
0.117356
0.116872
0.272109
0.211486
0.193921
0.0428137
0.0526369
0.000749683
0.00101262
0.0533251
0.0528889
0.0459447
0.0847947
0.150104
0.095836
0.130976
0.114738
0.0111697
0.000979768
0.00384385
0.0259493
0.000589834
0.000948869
1.30661e-05
0.00052455
0.000737284
0.000689738
0.000594218
0.000812433
1.412
1.42203
1.44357
1.42805
1.46899
1.45386
1.47327
1.47313
1.52476
1.51628
1.47978
1.53527
1.49779
1.54724
1.3811
1.33734
1.35606
1.40541
1.38397
1.3554
1.35957
1.41219
1.41398
1.39289
1.37103
1.42381
1.40753
1.4132
1.44064
1.29029
1.29206
1.29371
1.29263
1.31346
1.33359
0.889217
0.835871
0.722719
0.628202
0.54382
0.62136
0.817627
0.802985
1.04812
1.06786
0.96193
1.03995
1.07626
1.12083
1.16855
1.2093
1.20914
1.20842
1.2062
1.23542
1.25143
1.27563
1.26189
1.26608
1.26768
1.27804
1.25688
1.25493
0.454393
0.384194
0.323922
0.31426
0.371336
0.546922
0.529565
0.253071
0.307074
0.184689
0.115012
1.40069
1.42384
1.43636
1.44118
1.44925
1.45891
1.4616
1.4893
1.47375
1.48977
1.49008
1.53909
1.56177
1.58809
1.58781
1.58462
1.60383
1.62906
0.0929345
0.0403717
0.0372471
0.30307
0.181862
0.355135
0.263133
0.178551
0.0783066
0.0817923
0.0817166
0.0760777
0.00037522
0.00723021
0.000336446
0.000743196
5.83102e-19
6.10001e-120
0.145702
0.0748596
3.86925e-26
0.168106
0.172032
0.168264
0.223492
0.180817
0.307705
0.25549
0.341999
0.30765
0.340843
0.367994
0.386769
0.413804
0.439715
0.434626
0.447928
0.4374
0.496197
0.485407
0.476232
0.474192
0.527347
0.500261
0.571587
0.528549
0.513406
0.556969
0.598363
0.593026
0.611722
0.651576
0.653695
0.594316
0.707932
0.734002
0.709621
0.696885
0.784259
0.862866
0.936761
1.00377
0.950583
0.964464
1.0892
1.1544
1.19298
1.17591
1.24039
1.2704
1.31274
1.32708
1.32055
1.34419
1.40485
1.37723
1.39537
1.39813
1.39055
1.39195
1.39186
1.38893
1.39179
1.38984
1.39101
0.128564
0.114245
0.136823
0.0604055
0.0820678
0.0983941
0.0343252
0.176909
0.082335
0.0157449
0.0368876
0.0159501
0.000457637
0.0166003
0.0401709
8.81144e-05
9.02965e-06
1.72397e-09
0.000389721
0.089174
0.000706726
0.00046991
0.000741676
0.000138742
0.000851343
0.000161979
0.000923462
0.000954503
0.00114382
0.00114369
0.0012734
0.000703293
0.00109788
0.000986365
0.000776109
0.00096702
0.000896738
0.000998449
0.00026155
0.000888291
0.00100984
0.000894905
0.00114345
0.000630947
0.000398457
0.000668916
0.000974692
0.000270015
0.000740386
1.5824e-07
2.83999e-05
0.00238241
0.000308883
0.00101
0.000694792
0.000545923
0.000997667
0.000425765
0.00100993
0.000972649
0.000977525
0.000963111
0.000999516
0.000669168
0.0011082
0.000963783
0.00075091
0.00111706
0.000810563
0.000990362
0.00089779
0.000955844
0.000631827
0.000258775
0.000797271
0.000964465
0.000941166
0.000838222
0.00101828
0.000338195
0.000817103
0.000688458
0.000978177
0.000925692
0.000935309
0.000928285
0.00091709
0.000695524
0.000567275
0.00174634
0.000253066
0.000674617
0.000835469
0.000977192
0.00174207
1.58304
1.54494
1.52698
1.61995
1.65997
1.64897
0.860358
0.864992
0.840053
0.85019
0.778596
0.839263
0.677545
0.587314
0.519157
0.527347
0.501087
0.506631
0.502034
0.504213
0.381006
0.295535
0.388658
0.469242
0.465847
0.00093523
0.000805997
0.000875173
0.000890082
0.000999727
0.000971927
0.000922744
0.000493094
0.000928118
0.000560941
0.00100943
0.000984735
0.000971046
0.064723
0.100987
0.127255
0.00100998
0.000498781
0.000128694
0.000927014
4.59314e-06
0.000270909
0.000921556
0.000801139
0.000573107
0.000783296
0.000708304
0.270875
0.410006
0.523148
0.524325
0.840894
0.764619
0.774144
0.561851
0.645651
0.727299
0.796505
0.792632
0.792095
0.80717
0.841985
0.827708
0.000758331
0.00110491
0.000625795
0.000982796
0.000837491
0.000863853
0.00100904
0.000845157
0.000734085
0.000835941
0.000817811
0.000932446
0.000763197
0.000996341
0.00100991
0.000951394
0.000929381
0.0010279
0.000964236
0.00102731
0.000910988
0.000824304
0.000770427
0.00097601
0.000959425
0.000887693
0.000424202
0.000801713
0.000962731
0.000994134
0.00107757
0.000984843
0.000981999
0.00100956
0.000818042
0.00101
0.001009
0.227705
0.263455
0.250861
0.19142
0.196241
0.16474
0.183711
0.0502139
0.0837209
0.000949406
0.000879884
0.19959
0.185088
0.000407844
0.000888087
0.000634551
0.00104193
0.00307706
0.00093785
0.0229799
0.000836589
0.0872152
0.0454268
0.0918735
0.100019
4.12902e-05
0.000680105
0.000702988
0.000422523
0.000678986
0.000551523
0.000693939
9.93495e-05
0.000358069
0.000994303
8.71897e-06
0.000979051
1.41465
1.42507
1.45197
1.46889
1.47197
1.48287
1.50495
1.49448
1.34931
1.34854
1.33085
1.34975
1.38312
1.3469
1.38966
1.3669
1.27631
1.2658
1.2683
1.29788
1.32868
1.30488
0.893187
0.81591
0.706821
0.791179
0.645273
0.556862
0.810728
0.804846
1.05477
1.05798
1.06861
0.969506
1.04525
1.15339
1.10057
1.04685
1.08768
1.18353
1.1974
1.1885
1.19657
1.20023
1.2292
1.25516
1.24189
1.25302
1.25687
1.2503
1.25543
1.25648
1.25482
0.299507
0.297272
0.442163
0.523
0.298683
0.390893
0.539664
0.557299
0.284124
0.236738
0.139138
0.21257
1.43027
1.38824
1.40916
1.45451
1.45388
1.45245
1.46295
1.48277
1.50647
1.51639
1.5171
1.52193
1.54502
1.58628
1.56919
1.5869
1.60548
1.65256
1.62473
1.45999
1.46809
1.48709
1.6539
1.6515
1.65613
0.0388428
0.0415812
0.0412564
0.0125042
0.107229
0.121517
0.000121959
0.000578096
0.00216244
0.000936353
0.000900883
0.000910663
0.00069086
0.00134391
0.000584026
0.00134387
0.000969713
5.98465e-06
0.0213643
1.11706e-10
0.00175398
0.0985409
0.171126
0.0872369
0.245806
0.275119
0.207082
0.246368
0.30532
0.271853
0.395213
0.338385
0.41221
0.426815
0.438101
0.422442
0.473055
0.517205
0.550394
0.549427
0.557343
0.545087
0.5679
0.550984
0.596143
0.601286
0.624772
0.624149
0.601385
0.605643
0.725556
0.773723
0.67101
0.735155
0.782076
0.747215
0.847413
0.889801
0.989836
1.02478
1.00378
1.09165
1.14962
1.24552
1.23239
1.28949
1.26692
1.36256
1.36611
1.36381
1.39064
1.41805
1.42101
1.47121
1.44167
1.46367
1.42995
1.42651
1.46351
1.39322
1.43028
1.39362
0.000358874
7.39716e-05
0.000888537
4.21438e-05
0.0530808
0.0365618
0.0350409
0.0163469
0.0332293
0.000598916
0.000533585
0.000522648
0.000132833
0.000652707
0.000512325
0.000370991
0.000467644
3.4539e-05
0.000302915
2.90502e-05
0.000558888
0.000232767
5.50518e-07
0.000288784
0.000978557
0.000545946
0.000999883
0.000178406
0.00114367
0.00114365
0.000983043
0.000995782
0.000992745
3.82214e-05
0.00101
0.000912008
0.0010004
0.000112849
0.00044385
0.000919656
0.000653085
0.000297927
0.00150967
0.000110939
0.000984734
7.25648e-05
0.0009581
0.000364482
0.000997866
2.55198e-05
0.000996488
0.00220131
0.000972736
0.000134455
0.000939278
0.00130176
0.00111809
0.000469283
0.00100983
0.000979813
0.000465046
0.000983408
0.000969573
0.000835887
0.00110824
0.00110839
0.00093398
0.000962895
0.00110865
0.00110854
0.000955402
0.000810942
0.000711032
0.000919589
0.00125856
0.000119301
0.00125824
0.000947384
0.00098702
0.000966821
0.000968127
0.00100415
0.00105289
0.00105635
0.000878838
0.000805878
0.000827454
1.24245e-05
9.12481e-06
0
0.000997488
0.000799517
0.000430028
0.000895841
0.00111798
0.000923733
0.00100958
0.00100998
0.000998322
0.000998553
0.000946811
0.000914726
0.00101
1.53313
1.56366
1.55717
1.54818
1.58786
1.69483
1.67656
1.67778
1.70515
1.63757
0.768191
0.75726
0.693482
0.713091
0.655945
0.677302
0.601433
0.552665
0.536204
0.501153
0.477153
0.478717
0.388618
0.397798
0.267968
0.309302
0.307177
0.000529692
0.000965684
0.000913493
0.00101
0.000967147
0.000933412
0.00073462
0.103715
0.240997
0.0987441
0.000919443
0.000208654
0.000955226
0.000959905
0.000644039
0.000490944
0.00101
0.000964607
0.000953727
0.00102276
0.000849804
0.000989645
0.000944045
0.000847483
0.00025022
0.642396
0.627597
0.680923
0.381702
0.522173
0.523444
0.558675
0.689752
0.750784
0.719988
0.623413
0.708029
0.72576
0.736737
0.651789
0.688147
0.000957717
0.000994162
0.00110502
0.00106431
0.000457653
0.000933422
0.00106549
0.00122779
0.000952557
0.000993638
0.000160682
0.0018502
0.000962477
0.000936631
0.000510229
0.00283403
0.00283676
0.00284141
0.000343625
0.000935209
0.000775127
0.00102925
0.000879495
0.000972942
0.000903165
0.00103302
0
0
0
0.000959356
0.000966951
0.00118754
0.00100136
0.000836671
0.000431382
0.000841817
0.000930546
0.000997229
0.0010054
0.000330773
0.000966333
0.000958008
0.000969942
0.000686934
0.000955955
0.245698
0.256513
0.268925
0.132778
0.156332
0.1151
0.111723
0.0440069
0.0328651
0.000807721
0.000576675
0.0011571
0.00215676
0.0485131
0.0436704
0.000406739
0.00051608
0.000242686
0.000584634
0.000389242
0.000727664
0.000735916
0.00520341
0.0865962
0.0526906
0.120852
0.0727764
0.000105983
0.00090241
0.000706611
0.00124367
0.000312228
0.000747328
0.000713046
0.000346646
0.00101
0.000942721
0.000708428
0.00135741
1.41372
1.3742
1.44464
1.41648
1.41795
1.47195
1.46509
1.51116
1.48141
1.54223
1.48302
1.46589
1.53627
1.50976
1.31649
1.31104
1.30482
1.3169
1.33072
1.34158
1.34232
1.34937
1.25099
1.2536
1.27409
1.26285
1.29569
1.29983
0.891624
0.817796
0.73454
0.805735
0.608781
0.700186
0.811218
0.812561
1.04496
1.04536
1.04419
0.972647
1.13127
1.17956
1.09297
1.04544
1.18666
1.18241
1.20054
1.17889
1.21916
1.24525
1.24928
1.2548
1.25111
1.24905
1.25813
1.25098
1.24807
1.25337
0.295002
0.29504
0.449948
0.539636
0.447069
0.348193
0.594156
0.535223
0.271984
0.286047
0.261311
0.175035
1.42915
1.46604
1.44836
1.47318
1.4907
1.47989
1.51526
1.52518
1.5036
1.51828
1.50761
1.51842
1.52288
1.54957
1.5689
1.58881
1.58704
1.63861
1.61327
1.66587
1.67056
1.54126
1.55394
1.67116
1.68563
0.000421286
0.000753945
0.000696944
0.000977106
0.000525579
9.91921e-05
0.000228123
0.000224539
0.00102533
1.01802e-05
0.000927799
0.000258474
0.000584224
0.000657476
5.07035e-06
0.000780461
0.00175576
0.000580146
0.000961482
1.10215e-16
0.000563804
0.0246194
0.16485
0.076213
0.260257
0.262397
0.232498
0.175777
0.290699
0.337203
0.394369
0.386746
0.410518
0.398822
0.520627
0.463065
0.566089
0.556475
0.583669
0.588135
0.568398
0.619063
0.668129
0.63853
0.620657
0.65007
0.69749
0.686481
0.668894
0.712131
0.79755
0.79829
0.794024
0.811704
0.938049
0.853545
1.02317
1.04819
1.04994
1.11397
1.19253
1.26574
1.27828
1.28454
1.33745
1.38139
1.42184
1.42003
1.46205
1.43563
1.48505
1.50243
1.50001
1.50102
1.50027
1.50114
1.46651
1.50161
1.46808
0.000846821
7.56011e-05
0.00566294
0.00102592
0.00076981
0.000638455
0.000710166
0.000720286
0.000801146
0.000459724
0.000843099
0.00125129
0.000323838
0.00125017
0.00125093
0.00125167
0.0012521
0.000999208
0.0012515
0.00517446
0.000997162
0.000638589
0.000184916
0.00222797
0.000299995
0.00222789
0.00222805
0.000470169
0.000478787
0.00100217
0.000993637
0.000687571
0.000908382
0.000538667
0.00108971
0.00104631
0.000784971
0.000959982
0.00100986
0.000887496
0.000962023
0.000983197
0.00150918
0.000975709
0.000146754
1.36216e-05
0.000607696
0.00096357
0.000988249
0.000479144
0.000826696
0.00099567
0.00100941
0.00031059
7.96999e-05
0.000987756
0.00100992
0.000817418
0.000560979
0.000887848
0.00101
0.000799183
0.000974405
0.000279366
0.000904827
0.00095865
0.000969177
0.00101
0.000954704
0.000876282
0.000886752
0.00100949
0.00097168
0.000773375
0.000984106
0.000952799
0.000897614
0.00098992
0.000934564
0.000964099
0.000974876
0.000974485
0.00128804
0.000987362
0.000905098
0.000634216
0
0
0
0
0
0
0
0
0
0
0
0
0
0
0
0
0
0
0
0.00099334
0.000901589
0.000937661
0.000812305
0.000980553
0.000436148
0.000948434
0.00110558
0.000325168
0.000811332
0.000317982
0.000878445
1.72392
1.71867
1.73455
1.72349
1.73626
1.74012
1.56415
1.57338
1.64226
1.60551
1.69672
1.72919
1.69379
1.57334
1.52538
0.63792
0.644582
0.63256
0.625417
0.632556
0.568327
0.613787
0.398509
0.452862
0.319751
0.317118
0.264515
0.267128
0.26778
4.53839e-05
0.000922745
0.000502993
0.00129763
0.074995
0.268757
0.0954765
0.00101278
0.000887432
0.0530348
0.000350941
0.000976565
0.000946011
0.000961879
0.001
0.000717645
0.000359988
0.000984242
0.00101819
0.000205975
0.00101715
0.000932938
0.0004632
0.000719513
0.636699
0.634082
0.642361
0.64204
0.640415
0.351184
0.463017
0.40965
0.525908
0.587775
0.607014
0.541827
0.628088
0.578569
0.582088
0.566763
0.000954778
0.00114994
0.000642317
0.000970576
0.000973219
0.000935143
0.000918808
0.00101891
9.94575e-05
0.000757188
0.00101708
0.000554966
6.92933e-05
0.000527482
0.00075349
0.000616055
0.000763669
0.000919235
0.000868209
0.00101594
0.000696342
0.000934786
0.000740767
0.000726241
0.000621516
0.00100951
0.000739043
0.000916397
0.000354107
2.15212e-05
0
0
0
0
0
0.000973716
0.000984212
0.000907267
0.00117468
0.00106043
0.000591219
0.000835369
0.000551529
0.000950777
0.00100911
0.000964926
0.000965413
0.000722883
0.000993559
0.000787048
0.000894869
0
0
0
0
0
0
0.244954
0.173615
0.160608
0.0918322
0.0839088
0.0015053
0.000336048
0.000329284
0.000533081
0.000469231
0.00205394
0.000835613
0.000375808
0.000550644
0.00033854
0.000764154
0.000783848
0.000795758
0.000905726
0.000971356
0.000997983
0.0465672
0.111849
0.0297957
0.000486704
0.000715658
0.000715303
0.000473477
0.00081178
0.00027789
0.000677478
1.31742e-05
0.000467482
0.00182963
0.00184093
0.000724599
0.000959699
0.000281529
0.000798649
0.00100972
0.000818552
1.39355
1.37343
1.38488
1.38823
1.39463
1.39897
1.40374
1.46391
1.45056
1.47675
1.53791
1.49758
1.44644
1.30216
1.30392
1.33275
1.31903
1.34599
1.34204
1.36411
1.35153
1.2576
1.25593
1.28236
1.27079
1.28762
1.28862
0.928405
0.852909
0.777423
0.811262
0.759466
0.670927
0.845895
0.810702
1.04746
1.04738
1.00655
1.0483
1.13892
1.19007
1.05027
1.09791
1.19047
1.19069
1.21336
1.18958
1.22893
1.24818
1.25102
1.24126
1.24816
1.24764
1.25091
1.25138
1.25273
1.24799
0.291015
0.347168
0.540458
0.507303
0.430316
0.523795
0.538672
0.608694
0.284561
0.275181
0.271654
0.194846
0.0276516
0.0704635
0.1485
1.49944
1.50213
1.52791
1.52052
1.54331
1.55439
1.55575
1.5561
1.59207
1.57425
1.58795
1.55184
1.58359
1.59635
1.61792
1.63745
1.64976
1.64734
1.69762
1.702
1.72583
1.70401
1.61593
1.61791
1.73664
1.73811
0.00016622
0.000334169
0.00101
8.78763e-06
0.000729054
0.00124886
0.00124873
0.00083765
0.000305007
0.000153069
0.000186897
0.00185929
0.00131302
0.000375186
0.000822227
0.000835447
0.00100232
0.000626775
0.011462
0.0008663
8.71716e-05
0.063864
0.104483
0.124528
0.102494
0.208888
0.274419
0.160578
0.382953
0.318394
0.38948
0.396756
0.487385
0.422539
0.54497
0.578354
0.574372
0.572735
0.700247
0.665852
0.636462
0.686995
0.71352
0.711301
0.70608
0.693698
0.707587
0.713882
0.79381
0.835985
0.870981
0.826172
0.873432
0.897083
1.03567
0.969118
1.06416
1.04585
1.13274
1.20257
1.2952
1.2853
1.32703
1.35794
1.43698
1.4292
1.45047
1.45693
1.48509
1.49485
1.51104
1.50521
1.515
1.51158
1.50186
1.51259
1.49947
1.50081
0.000963561
0.000932075
0.00104716
0.000732778
0.000959863
0.000657298
0.000566723
0.00117212
0.000754275
0.00124724
0.000326036
0.000851151
0.000295436
0.00124899
0.00124416
0.00125237
0.00125173
0.00125904
0.00125841
0.000327649
0.000371652
0.00100886
0.000717288
0.000938422
0.000788581
0.00100179
0.000892431
0.000997704
0.000180038
0.000954666
0.000624923
0.00101
0.000209386
0.000740097
0.00100863
0.00104571
0.000689374
0.000881619
0.000926486
0.00377032
4.10448e-05
0.000210438
0.00024578
0.00100978
0.000913563
6.55138e-09
0.00099515
0.00100983
0.000282368
0.000848872
0.00100647
0.000131712
0.00100976
0.000959372
0.000189374
0.000986414
0.000975827
0.000971476
0.00344264
0.000980885
0.000759889
0.00098777
0.000846429
0.000779842
0.0011221
0.00112195
0.0011219
0.000896489
0.000943214
0.000888864
0.000973731
0.000935172
0.000927075
0.000961192
0.000874935
0.000897996
0.000947049
0.000951887
0.000925848
1.67713e-05
0.000881191
0.00092376
0.0003855
0.000414352
0.00098456
0
0
0
0
0
0
0
0
0
0
0
0
0
0
0
0
0
0
0
0.000976445
0.000944926
0.00101095