/*--------------------------------*- C++ -*----------------------------------*\
  =========                 |
  \\      /  F ield         | OpenFOAM: The Open Source CFD Toolbox
   \\    /   O peration     | Website:  https://openfoam.org
    \\  /    A nd           | Version:  8
     \\/     M anipulation  |
\*---------------------------------------------------------------------------*/
FoamFile
{
    version     2.0;
    format      ascii;
    class       volScalarField;
    location    "6840";
    object      alpha;
}
// * * * * * * * * * * * * * * * * * * * * * * * * * * * * * * * * * * * * * //

dimensions      [0 0 -1 0 0 0 0];

internalField   nonuniform List<scalar> 
526318
(
0.000194238
0.000649315
0.000485225
0.000660894
0.000468681
0.000418846
0.000774724
0.000768735
0.0004283
0.000936782
0.000929756
0.000544112
0.000453892
0.000922818
0.00068424
0.000613799
0.000534935
0.000428215
0.000407841
0.000242917
3.20956e-05
0.000290206
0.00170069
0.000745873
0.000232858
0.000475939
0.000527107
0.00106021
0.000368119
0.000399816
0.000432877
0.000558777
0.000182118
0.000566053
0.000563721
0.000433268
0.000100417
0.000485388
0.000157142
0.000574129
0.000474701
0.00058121
0.00304165
0.000273773
0.00395304
0.00545618
0.0020895
0.00105047
0.00059096
0.000601022
0.000385108
0.000582666
0.000441404
0.000491205
0.582753
0.00777283
0.00266451
0.0795161
0.000505524
0.000338182
0.000346734
0.000249126
0.000331864
7.70383e-05
0.000259002
0.000223802
0.000247952
0.000107405
0.000356332
0.000455731
0.000285441
0.000390288
0.000539618
0.000310119
0.00117261
0.000579276
0.000793333
0.000312447
0.000173675
0.000828073
0.000178737
0.000715002
0.00108732
8.94341e-05
0.000454289
0.00083364
0.000198071
0.000979743
0.00185703
0.000615885
0.000779273
0.00181862
0.00131942
0.00233559
0.00166928
0.00114766
0.00168551
0.00188144
0.00157445
0.000737022
0
0
0
0
0
0
0.00178259
0.0169466
0.0017741
0.00177025
0.000496215
0.0012774
0.000748538
0.000595591
0.000284654
0.000584928
0.000303967
0.000176344
0.000181722
0.0020104
0.00185977
0.00161696
0.0023075
0.00203704
0.00132292
0.00171946
0.00243981
0.0029425
0.00132102
0.00151351
0.00336052
0.00365936
0.00257743
0.00428837
0.00316361
0.00512401
0.00432207
0.00427657
0.00505512
0.0124723
0.00461179
0.0119743
0.00730272
0.00624922
0.0108583
0.0131633
0.0099079
0.0126658
0.00661117
0.0133844
0.00515491
0.00339431
0.00849771
0.00950908
0.00504196
0.00720239
0.00490863
0.00571907
0.0113776
0.0463296
0.0138888
0.021278
0.00842161
0.000265067
0.000605664
0.000265488
0.000771232
0.000657351
0.000746213
0.000623551
0.00100872
0.000165662
0.00137163
0.00142293
0.000454946
0.00120515
0.00213387
0.0039769
0.00395048
0.00389057
0.000792302
0.00285482
0.00167816
0.0031543
0.00371602
0.00447651
0.000537099
0.0043592
0.00370102
0.00457675
0.0046164
0.00456567
0.00491026
0.00324332
0.00156276
0.0046267
0.00267847
0.00361071
0.0036199
0.00873752
0.00679146
0.00490184
0.00714517
0.00320605
0.00864539
0.0087938
0.0130241
0.00316922
0.00833735
0.0100587
0.000649362
0.000541883
0.000132553
0.00026611
0.000253117
0.000259754
0.000512511
0.000380715
0.000236735
0.000903919
0.00568427
0.00235228
0.00156206
0.000685979
0.00132796
0.000625456
0.000506425
0.000370753
0.000583761
0
0
0
0.0051819
0
0
0
0
0
0
0.000301032
0.00018582
0.000311957
0.000195771
0.000322122
0.000343804
0.000256559
0.000366225
0.000513805
0.000376013
0.000633175
0.000120122
0.000840294
0.000213594
0.000346173
0.000638862
0.000713132
0.000891087
0.00090157
0.00038606
0.00218467
6.25791e-05
0
0
0
0
0
0
0
0
0.00239658
0.00771933
0.00142922
0.00119434
0.00106067
0.000739637
0.000494551
0.000507126
0.000415057
0.000249369
0.000378684
0.000350405
0.00193531
0.00129085
0.00148752
0.0021421
0.00315219
0.00219721
0.00528632
0.00430394
0.00361115
0.00606575
0.0100915
0.00689057
0.028552
0.0223714
0.00533575
0.00902887
0.00212292
0.00298328
0.00331827
0.00599248
0.0186107
0.0210521
0.0112187
0.00344216
0.00439515
0.00714833
0.00577522
0.0151868
0.00466473
0.0327352
0.0431644
0
0
0
0
0.00648013
0.00487119
0.0141215
0.00285254
0.000933914
0.00136817
0.000801487
0.000946841
0.0012467
0.0008569
0.00105207
0.000535398
0.00159671
0.00039902
0.000573652
0.00390611
0.00760136
0.00200937
0.00609709
0.00575512
0.0106473
0.00589395
0.0177029
0.00458358
0.00519244
0.0041598
0.00420995
0.00445714
0.00297822
0.00374309
0.00279395
0.00244342
0.00125293
0.00339001
0.00301127
0.0036726
0.00269268
0.00345495
0.00467065
0.00466554
0.00203669
0.00566654
0.00689214
0.00134592
0.00150178
0.0010713
0.00167894
0.00267767
0.0031858
0.00348621
0.0018916
0.00396405
0.00353314
0.00293767
0.001226
0.000348184
0.00327757
0.00122217
0.00308856
0.00148432
0.000893261
0.000583787
0.00124632
0.0012232
0.00086083
0.00111137
0.000420161
0.00103251
0.000477267
0.0012699
0.000502217
0.000798632
0.0112964
0.0190465
0.0110108
0.00989383
0.00219856
0.000158534
0.00191409
0.000268031
0.000414798
0.000859302
0.000187282
0
0
0
0
0
0
0
0
0
0
0
0
0
0
0
0
0.000289914
0.000283579
0.000222587
0.000162442
0.000343989
0.000339925
0.000443951
0.000429527
0.000258899
0.0005885
0.000583155
0.000141894
0.000401579
0.000280736
0.000608128
0.000179505
0.00042599
0.00051382
0.000534557
0.000351865
0.00110349
0.00136476
0
0.00524719
0.0102315
0
0
0
0
0
0.00240849
0.00348354
0
0
0
0
0.00684248
0
0
0
0
0
0
0
0
0
0.0472927
0
0.00556346
0.00214955
0.00154948
0.000955088
0.000369192
0.000685046
0.00051601
0.000318447
0.000351539
0.000139342
0.000342954
5.24389e-05
0.00158048
0.0027463
0.00202898
0.0010124
0.00273054
0.00143116
0.00685247
0.00826245
0.00895383
0.00520951
0.00863574
0.0139122
0.047201
0.0293645
0.00533657
0.0059584
0.0229346
0.0140276
0.0342657
0.0135181
0
0
0.218922
0.0243527
0.0379354
0
0
0
0
0
0
0.0010551
0.00275486
0.00393618
0.00456835
0.00390878
0.00283999
0.00296461
0.00323494
0.00227087
0.00219732
0.00118036
0.00411183
0.00542403
0.0404506
0.0030631
0.00185404
0.00255055
0.00293034
0.00330438
0.00136323
0.000766387
0.00145376
0.00182729
0.000271111
0.00372131
0.0010902
0.00200523
0.0107733
0.00312185
0.0167474
0.0248502
0.0253828
0.0251233
0.198088
0.3721
0.0152696
0.00857602
0.0013035
0.00239132
0.0051198
0.0029434
0.00419642
5.92052e-05
0.00340307
0.00333637
0.0033945
0.00329351
0.00446639
0.00492211
0.00342604
0.00281441
0.0017542
0.00105829
0.00202106
0.00310277
0.00249835
0.00183891
0.00126692
0.00330134
0.00321823
0.00213906
0.00240771
0.00167684
0.00313931
0.00124227
0.00206965
0.00135844
0.00252663
0.00316576
0.00191362
0.00337248
0.00356101
0.00227666
0.00278966
0.001888
0.000996471
0.000983074
0.000940112
0.000204118
0.0012248
0.00100504
0.000470423
0.00315685
0.00285332
0.00181478
0.00191646
0
0.0475879
0.0133392
0.00101439
0.000591681
0.000349456
0.00238132
0.000959441
0.00773022
0.00582209
0
0
0
0
0
0.0365992
0
0
0
0
0
0
0
0
0
0
0
0
0
0
0
0
0
0
0
0
0.0055513
0
0.0039421
0
0.000141053
0.00891216
0
0
0
0
0
0
0
0
0
0
0
0
0
0
0.00023722
0.000295531
0.000364881
0.000206516
0.000390185
0.000164257
0.000429285
0.000505961
0.000453917
0.000624774
0.000481772
0.000442718
0.000288901
0.000724187
0.000578938
0.000360698
0.000207009
0.000353467
0.00016553
0.000804652
0.00174129
0.00151657
0
0
0
0
0
0
0
0
0
0
0
0
0
0
0
0
0
0
0
0
0
0
0
0
0
0
0
0
0
0
0
0
0.0232772
0
0.00398602
0.00650891
0.00125837
0.0024737
0.00203566
0.000795361
0.00103682
0.000336799
0.000436012
0.000553044
0.000482063
0.00034996
0.000291426
0.000491295
0.00552914
0
0
0
0
0
0
0
0
0
0
0
0
0
0
0
0
0.00179674
0.00232979
0.000802911
0.000719797
0.00761468
0.00170859
0.00624621
0.0243864
0.0145087
0.0620075
0
0
0.204977
0.424806
0
0
0
0.00479294
0.076668
0.0618924
0
0
0
0
0
0
0
0
0
0
0
0
0.00193728
0.00246124
0.00203022
0.00192578
0.00206508
0.0022994
0.00172366
0.00153689
0.00120305
0.00141014
0.00343527
0.00517883
0.00454447
0.00291268
0.00326078
0.00119288
0.00819715
0.000553447
0.083666
0.00937142
0.0120465
0.214981
0.00321976
0.00449702
0.00139526
0.00300887
0.00364503
0.00171682
0.0032923
0.00209808
0.0122427
0.0112207
0.115458
0.0391642
0.0631498
0.0615746
0.467952
0.801003
0
0
0
0.0341157
0.00332114
0.0285727
0.00253236
0.00266275
0.000597762
0.00326216
0.00492935
0.00386243
0.0034656
0.00570152
0.00350908
0.0006889
0.00162913
0.00217302
0.00286587
0.0031084
0.00330655
0.000540687
0.00158349
0.000906402
0.000739876
0.00198816
0.000807603
0.000573613
0.00179884
0.00247948
0.0015219
0.000919016
0.00129505
0.00381629
0.000727398
0.00234142
0.00101268
0.00225724
0.00122475
0.00208659
0.00139433
0.00145979
0.00126266
0.00117015
0.00110449
0.000892494
0.000896197
0.00090549
0.000707066
0.000941777
0.000817798
0.000914792
0.000814803
0.000711032
0.00067075
0.000691425
0.000659167
0.000571799
0.000562195
0.000467139
0.000592612
0.000620369
0.000447929
0.000372008
0.000491351
0.000344603
0.000505098
0.000317442
0.000399366
0.000263363
0.000373662
0.000313026
0.000292616
0.00026142
0.000319844
0.000334401
0.000375576
0.000287349
0.000419513
0.00036459
0.000381738
0.000437765
0.000380729
0.00398831
0.00433868
0.00101027
0.00214102
0.000164204
0.0016962
0.000667585
0.0184881
0.00147917
0
0
0.0982489
0.129283
0
0
0
0.0128962
0.0389656
0.0130237
0
0
0
0
0
0
0
0
0
0
0
0
0
0
0
0.00971236
0
0
0
0
0
0
0
0
0.0123521
0
0
0
0
0
0
0
0
0
0
0
0
0
0
0.0259833
0.00517234
0
0
0.0238432
0
0
0
0
0
0
0.0079776
0.00730558
0
0
0.0193564
0.0172864
0
0
0
0
0
0
0
0
0
0
0
0
0
0
0
0
0
0.0118086
0
0
0.000387234
0.00027632
0.000463635
0.000496122
0.000220766
0.000441963
0.000332574
0.000623153
0.000309207
2.29517e-05
0.000242271
0.000469514
0.00059754
0.000296831
0.000410081
0.00159708
0.0011021
0.000552918
9.46484e-05
0.000233544
0.000623107
0.000649064
0
0
0.00507444
0.00367083
0
0
0
0
0.00838881
0
0
0
0
0
0
0
0
0
0
0
0
0
0.0133743
0.010388
0
0
0
0.00778586
0.0285194
0
0.00285188
0.000828406
0.00165212
0.00159822
0.00167397
0.000910646
0.000616183
0.00100271
0.000649283
0.000790697
0.000685351
0.000565111
0.000631977
0.000568615
0.0063531
0
0
0
0
8.25257e-05
0
0
0.000206784
0
0
0
0
0
0
0
0
0
0
0
0
0
0
0
0.225746
0
0.00202242
0.00165266
0.00260528
0.0026947
0.171524
0.0221868
0
0
0
0.00592281
0
0
0
0
0
0
0.0431626
0
0.0937765
0.070036
0
0
0
0
0
0
0
0
0
0
0.00146682
0
0.00104736
0.00119506
0.00164256
0.00188885
0.00197575
0.00274331
0.000984663
0.00133947
0.00041281
0.00073143
0.00074249
0.000674204
0.000727317
0.000450392
0.000422409
0.00055235
0.000430811
0.000311511
0.000330641
0.000305197
0.000248216
0.000249892
0.000260778
0.000288993
0.000361828
0.000305312
0.000323562
0.000391948
0.000257274
0.000291978
0.00525534
0.00584983
0.0046151
0.00302144
0.00354241
0.00504906
0.00858886
0.00371258
0.465727
0.0358242
0
0.0178664
0
0.00207322
0.00324268
0.00380147
0.00356135
0.00351597
0.014181
0.0882265
0
0
0
0
0
0
0
0
0
0
0
0
0.0150819
0.112297
0.00613684
0.00644988
0.00869489
0.00250136
0.00273782
0.00454181
0.00184874
0.000605368
0.00233458
0.00300117
0.00385618
0.00121411
0.00344855
0.00166485
0.00200912
0.00196993
0.00201139
0.000916465
0.000925181
0.00118694
0.00216386
0.00152474
0.000676183
0.000624997
0.000762222
0.00080182
0.00153801
9.40603e-05
0.00212877
0.00199413
0.00226227
0.00128229
0.00151191
0.00183412
0.00135996
0.00121006
0.000809446
0.000794283
0.000793675
0.000870376
0.00108013
0.00097538
0.000745726
0.000644957
0.000700976
0.000578147
0.000565241
0.000414119
0.000453608
0.000295825
0.000301843
0.000286176
0.000265364
0.000378273
0.00043317
0.000364257
0.000437021
0.000438793
0.000379519
0.00045595
0.000394841
0.000292706
0.000323615
0.000336548
0.0004054
0.000308464
0.000244552
0.000241725
0.000251588
0
0
0.077483
0.0137849
0.206284
0.026076
0.00151176
0.00832024
0.0055187
0.373388
0
0
0
0.188676
0
0
0
0
0
0.0218504
0.0174837
0
0
0
0
0
0
0
0
0.0106749
0.00811306
0
0
0
0.0124178
0
0
0
0
0
0
0
0.0142063
0
0
0
0
0
0
0
0
0.000213617
0
0
0
0
0
0
0
0
0
0
0
0
0
0
0
0
0
0
0
0
0.0132064
0
0.00687398
0
0
0
0
0
0
0
0
0
0
0.000512441
0.00043623
0.000631611
0.00053049
0.0005837
0.000420632
0.00061126
0.000444979
0.000489644
0.000590615
0.000470734
0.000635192
0.000516265
0.000237983
0.000613262
0.00350029
0.00309994
0.000278919
0.000343694
8.33017e-05
0.000452834
0.000759992
0.00303423
0
0.000772208
0
0
0
0
0
0
0
0
0
0
0
0
0
0
0
0
0
0
0
0
0
0
0
0
0
0.0142237
0
0.00105954
0.000532858
0.000967378
0.000899864
0.000673244
0.00114721
0.000895691
0.000667736
0.000832282
0.000704652
0.000475098
0.000534156
0.000674664
0.000651078
0
0
0
0
0
0
0
0
0
0
0
0.00355665
0
0
0
0
0
0
0
0
0
0
0.187507
0
0
0
0
0
0
0
0
0.0152663
0.0069038
0.0158885
0.0031758
0
0
0
0
0.000466247
0.0185696
0.0231746
0
0
0
0
0.000993024
0.00156686
0
0
0
0
0
0
0
0
0
0
0
0
0
0
0
0
0
0
0.000165579
6.82032e-05
7.61083e-05
8.34501e-05
0.000147804
0.000111467
0.000188748
0.000156862
0.000120474
0.00020976
0.000338239
0.000260978
0.000284959
0.000208878
0.00014955
0.000158824
0.000210801
0.00021531
0.000139031
0.000152804
0.00016351
0.000185696
0.000116673
0.000170916
0.000133496
0.000159906
0.000181463
0.00011843
8.32784e-05
0.000250907
0.00028121
0.000254549
0.000193751
0.000162289
0.000185026
0.000803283
0.00108024
0.00129354
0.00115469
0.00363095
0.00197775
0.00107061
0.000984037
0.000272126
0.000838265
0.000603916
0.000695338
0.000329985
0.000593005
0.000405715
0.000471055
0.000371991
0.000435481
0.000289742
0.000232978
0.000200933
0.000211831
0.000117744
0.000154215
0.000259106
0.000237786
0.000180183
0.00015742
0.00326893
0.0047234
0.00677223
0.00895784
0.00563153
0.00257509
0.00246787
0.00943226
0.00620694
0.0951687
0
0.000290988
0.000260917
0.00021695
0.00018586
0.000222556
0.000172845
0.000105288
0.000141742
9.60136e-05
0.000108162
9.40745e-05
9.30697e-05
0.000216566
0.000193907
0.00027342
0.000259116
0.000249034
0.00023821
0
0
0.00339562
0.00567261
0.0642927
0.0044392
0.0121182
0.0791228
0.002608
0
0.00888655
0.0152331
0
0
0
0
0
0
0
0
0
0.124208
0.0290419
0.0319004
0.0153074
0.117901
0.00573247
0.0102364
0.00139391
0.000749454
0.00318338
0.00239837
0.000160998
0.00290383
4.21052e-05
0.00446814
0.0019626
0.00105278
0.00276714
0.00190477
0.00125252
0.000946503
0.00244264
0.00264759
0.00144506
0.000903463
0.00163229
0.00106279
0.000777606
0.00183224
0.00186038
0.00194717
0.00191974
0.00157026
0.0021448
0.00165849
0.00191783
0.00208127
0.000786907
0.00107885
0.00080978
0.0010944
0.00126415
0.00118166
0.000881478
0.000733397
0.000742348
0.000669389
0.000636427
0.00049854
0.000358789
0.000491507
0.000395697
0.000267513
0.000328004
0.000240592
0.000412131
0.000320732
0.000414847
0.0004521
0.000471785
0.00046695
0.000398563
0.000457381
0.000349702
0
0
0.401492
0
0
0
0
0.0558535
0
0
0
0
0
0
0.0138626
0
0
0
0
0.0294505
0
0
0
0
0
0
0
0
0.00769863
0
0.0114762
0
0.000602923
0
0
0
0
0
0
0
0
0
0.0188544
0
0
0
0
0
0
0
0
0.203994
0
0.000798612
0
0
0
0
0
0
0
0
0
0
0.0111538
0
0
0
0
0.00111107
0
0
0
0
0
0
0
0
0
0
0
0
0
0
0
0
0
0
0
0.000619344
0
0
0
0
0.00267035
0.000292514
0.000357544
0.000351997
0.000309107
0.000171712
0.000226642
0.000457684
0.000433384
0.000444135
0.000433402
0.000256622
0.000457744
0.000556968
0.000481573
0.00048227
0.000569235
0.00026352
0.000726046
0.000517677
0.000195079
0.00081247
0.00460524
0.00065994
0.000119294
0.000959138
0
0
0
0
0
0
0
0
0
0
0
0.00384259
0
0
0
0
0
0
0
0
0
0
0
0
0
0
0
0.0140239
0.00174942
0.00216494
0.000573279
0.000698788
0.000456218
0.000457762
0.000769218
0.00045366
0.000769143
0.000408259
0.000425492
0.000705535
0.000544006
0.000514485
0.000300734
0
0.0013789
0
0
0
0
0
0
0
0
0
0
0
0
0
0
0
0.0306135
0
0
0
0
0
0
0
0
0
0
0
0
0
0
0
0
0
0.0504457
0
0.0158076
0.000780826
0.0095703
0.00431322
0.00413203
0.178944
0.0411898
0
0
0
0
0.019994
0.027352
0
0
0
0
0
0
0
0
0
0
0
0
0
0
0
0
0
0
0
0
0
0
0
0
0.000143594
0.000108852
0.000141286
0.000171197
0.000236107
9.09018e-05
0.00026546
0.000116003
0.00014027
0.000162799
0.000145477
0.000141434
0.000128822
0.000203073
0.000144806
0.000169599
0.000244931
0.000226488
0.000242645
0.000235341
0.000191508
0.000178418
0.000789135
0.000926856
0.00150128
0.00122907
0.00184751
0.00295455
0.000780507
0.000995124
0.000157259
0.000707483
0.000889557
0.000537803
0.000476873
0.000563387
0.000786979
0.000711535
0.000515102
0.000502187
0.000462258
0.000407835
0.000390595
0.000323093
0.000289616
0.000148677
0.000223643
9.23819e-05
8.492e-05
0.00019032
0.000184461
0.000177943
0.000135125
0.0116294
0.00797662
0.00372965
0.00223215
0.0097693
0.00498497
0.00169066
0.00214039
0.0098011
0.0332356
0
0.0387421
0.000284032
0.000367572
0.000324149
0.000225575
0.000280165
0.000216193
0.000189443
0.0001761
0.000120094
4.47229e-05
0.000110543
0.000121172
0.000139005
0.000246475
0.000145836
0.000195604
0.000200796
0.000227222
0.000228404
0.000253195
0.000208965
0.000179301
0.000155224
0.000206735
0.000203908
0.00778225
0.0201171
0.00911641
0
0
0
0
0
0
0
0
0
0
0.00989483
0
0.00457713
0
0
0
0
0.00461115
0
0.0497245
0
0.0162277
0.0032279
0.0931696
0.0196393
0.00728831
0.0120956
0.00374833
0.00541135
0.00348834
0.00341577
0.00259871
0.00155784
0.00258872
0.00362679
0.00195692
0.00228705
0.00148376
0.00213376
0.00070202
0.00136802
0.000842393
0.00108124
0.000777387
0.000656649
0.00122398
0.00196657
0.00132477
0.00138538
0.00167943
0.00134594
0.00149486
0.00156268
0.00164895
0.000775861
0.000672332
0.00135612
0.00127713
0.000879612
0.000750243
0.000703763
0.000626053
0.000520997
0.000660238
0.00052192
0.000371899
0.000313572
0.000396741
0.000295764
0.000311142
0.000245801
0.000346682
0.000354225
0.000394167
0.000430037
0.000424046
0.00043564
0.000464876
0.000395364
0
0
0
0
0
0
0
0
0
0
0
0
0
0
0
0
0
0
0
0
0
0
0
0
0
2.93007
2.41265
0
0.00860551
0.00403695
0
0
0
0
0
0
0
0
0
0
0
0
0.257911
0
0
0
0
0
0
0
0
0.106152
0
0
0
0.00560357
0.00472034
0
0
0
0
0
0
0
0.0100445
0.00709168
0
0
0.00298169
0.00440254
0
0
0
0
0.00930509
0
0.0136724
0
0
0
0
0
0.0255073
0.0204819
0
0
0
0
0
0
0
0
0
0
0.00550434
0
0
0
0
0
0
0
0
0.000231956
0.000165412
0.000151463
0.000231865
0.000144527
0.000123536
0.000197108
0.000195858
9.58749e-05
0.000133318
0.000356065
0.000387351
0.000704686
0.000513972
0.000678985
0.000704401
0.000643662
0.000543797
0.000879674
0.000338447
0.000353728
0.000968196
0.000860719
0.000847065
0.003437
0.00195781
0.000617103
0
0
0
0
0
0
0
0.00325259
0.0220072
0
0
0
0
0
0
0
0
0
0
0.000204171
0
0
0
0
0
0.000200396
0.000251604
0.000531005
0.00325967
0.00194644
0.000887123
0.00152476
0.00017485
0.000294086
0.000682918
0.000684514
0.000868031
2.42748e-05
0.00016245
0.000642693
0.000258584
0
0
0.00128014
0.0118713
0
0
0
0.000814256
0
0
0
0
0
0
0
0.0244962
0
0
0
0
0
0.0218779
0
0
0
0.041524
0
0
0
0
0.020632
0
0
0
0
0
0
0
0
0
0
0
0
0
0
0.00784505
0.00888553
0.0028095
0
0.345458
0
0
0
0
0
0
0.00475376
0.00154619
0
0
0
0
0
0
0
0
0
0
0
0
0
0
0
0.00345742
0
0.00856146
0
0
0
0
0
0
0
0.00370928
0.000126901
0.000190513
0.000278094
0.000115143
0.000245814
0.000264746
0.00046906
1.57021e-05
0.000295409
9.13799e-05
9.94634e-05
6.4127e-05
0.000272017
0.000269005
0.000164372
0.000141475
0.000227092
0.000105197
0.000181968
0.00017229
0.000261802
0.00025143
0.000171368
0.000187178
0.000179758
0.000220428
0.000250945
0.000145793
0.000635375
0.000790917
0.00158036
0.00105124
0.00187258
0.00128235
0.00101851
0.000999961
0.000357621
0.000233686
0.000355952
0.000433428
0.000458589
0.000369686
0.000230924
0.000188735
0.000366798
0.000342591
0.000271636
0.000314813
0.000253235
0.000326475
0.000227514
0.000275441
6.29013e-05
0.000331135
0.000261426
0.000207301
0.000117947
8.55818e-05
0.00691538
0.014755
0.00491705
0.00239492
0.00332548
0.00473903
0.00206084
0.00201062
0.0136925
0.00318269
0.00342351
0.104015
0.00041228
0.000409477
0.00033417
0.000313998
0.000366281
0.000268815
0.000303105
0.000237621
0.000236362
0.000100765
0.000167692
0.000137641
0.000161497
0.000173174
0.000243676
0.00020761
0.000213561
0.000235981
0.000169838
7.0828e-05
0.000189634
0.000178273
0.000172921
0.000159291
0.000239398
0
0
0
0
0
0
0
0
0
0
0
0
0
0
0
0
0.00474008
0
0
0
0
0
1.40991
0
0.0180548
0.013055
0.0237889
0.210417
0.00709001
0.00258254
0.00399064
0.00410133
0.00507054
0.00175436
0.00102962
0.0029867
0.00109756
0.00196865
0.00165011
0.000561876
0.00234634
0.000953427
0.00118413
0.00122419
0.00127542
0.00125952
0.00126871
0.00102294
0.00176199
0.00129844
0.00133025
0.00118766
0.00144022
0.00102127
0.000668287
0.00134538
0.00118531
0.000582176
0.00103057
0.000640129
0.000764363
0.000556715
0.000667024
0.000549091
0.000545024
0.000414816
0.000398704
0.000282765
0.000253548
0.000269517
0.000218768
0.000342691
0.000364567
0.000407918
0.00046427
0.000464587
0.000451793
0.000440372
0.000470484
0
0
0.167391
0.000271814
0
0
0
0
0
0
0
0.00574252
0
0.00589349
0.0108331
0.00578304
0.00311536
0
0.024662
0.111977
0
0
0
0.0876488
0
0.283216
0.536197
0
0
0
0
0
0
0
0
0.000406605
0
0
0
0
0
0
0.517396
0
0
0
0
0
0
0
0
0
0
0
0
0
0
0
0
0
0
0
0
0
0
0
0
0
0
0
0
0
0
0
0
0
0
0
0
0
0
0
0.0203456
0
0
0
0
0
0
0
0
0
0
0
0
0
0
0
0
0
0
0
0
0
0
0
0
0
0
0
0
0
0.000490048
0
0
0
0
9.03944e-05
0.000120643
0.000127467
6.35964e-05
9.9405e-05
0.000234767
0.000364043
0.000132259
0.000270019
0.000243541
0.000306818
0.000108135
8.64203e-05
0.000508494
0.000547691
0.000601349
0.0007697
0.000530331
0.000275598
0.000779165
0.000227744
0.000311508
0.00183358
0.000522224
0.00134791
0.00299797
0.00363694
0.00338352
0.0077451
0
0
0
0
0
0.0121568
0
0
0
0
0
0
0
0
0
0
0
0
0
0
0
0
0
0
0.000408513
0.000657495
0.000284538
0.000465493
0.000162812
0.00140236
0.0027276
0.00138083
0.00109489
0.000277569
0.000294276
0.000319567
0.000315853
0.000450535
0.000412848
0.000465976
0
0.00371035
0
0
0
0
0
0.000737294
0
0
0.00069134
0
0
0
0
0
0
0
0
0.000202886
0
0
0
0
0
0
0
0
0
0
0
0
0
0
0
0
0.00542231
0
0.0192872
0.0371573
0
0
0
0
0
0
0
0
0.0155395
0
0
0
0
0
0
0
0
0.00674665
0.121102
0.300371
0
0
0
0
0
0
0
0
0
0
0
0
0
0
0
0
0
0
0
0
0
0
0
0
0
0
0
0
0
0
0.00108923
0.00245425
0
0
0
0
0
0
0.000361494
0.000294444
0.000378748
0.000332094
0.000487629
0.000272069
0.000174406
0.000461069
0.000100816
0.000403788
0.000188508
0.000284277
0.000335718
9.05226e-05
0.000165327
0.000120596
0.000184321
0.000216759
0.000202532
0.000243089
0.000237257
0.000295985
0.000136634
6.743e-05
0.000183318
0.000107056
3.7102e-05
0.000584956
0.000712852
0.00106132
0.000964678
0.00124484
0.000759121
0.000931763
0.000914325
9.67912e-05
0.00029177
0.000427925
0.000310013
0.000183645
0.000108657
0.000198465
0.000254816
0.000194268
0.000262897
0.000355881
0.000126659
0.00020736
0.000295697
0.000215721
0.000181382
0.0002582
0.000214564
0.000128939
0.000243921
0.000307882
0.000277822
0.0084781
0.00684921
0.00278758
0.00164666
0.00311
0.00232433
0.00188812
0.00190454
0.00659102
0.0105709
0.0189758
0.0690914
0
0
1.70978
0.000458393
0.000387424
0.000364772
0.000401753
0.000290914
0.000268388
0.000306969
0.000281767
0.000211166
0.000241318
0.000160306
0.000183197
0.000184002
0.000227881
0.000236507
0.000160174
0.000196117
0.000188713
0.000166786
0.000134247
0.000137003
0.000160182
0.000210967
0.000194981
0.000107272
0.000142356
0
0
0
0
0
0.00650171
0.0114963
0
0
0
0
0.00487939
0.0060657
0
0
0
0
0
0
0
0
0
0
0
0
0.0338407
0.00872757
0.448666
0.00386987
0.0107303
0.00379139
0.00239889
0.00443563
0.00395194
0.00182309
0.00171585
0.002085
0.000633325
0.00061115
0.00202743
0.00122529
0.00143017
0.000310766
0.000854352
0.00142075
0.00139535
0.0012517
0.00125954
0.00139004
0.00101123
0.00109656
0.00151265
0.00118842
0.00129475
0.000784548
0.00113429
0.00109219
0.000908588
0.00090506
0.00061143
0.00065731
0.000566744
0.000568221
0.000449059
0.000294272
0.000364222
0.000150406
0.000233452
0.000132105
0.000331308
0.000400181
0.00045826
0.000516165
0.000569065
0.000586187
0.000543853
0.000617904
0.000499795
0
0
0
0
0
0
0
0
0
0.00687568
0
0
0
0.0108184
0.0185374
0.0148413
0.0210256
0.00487517
0.00674525
0
0
0
0
0
0
0
0
0
0
0
0
0
0
0
0
0.000182565
0
0
0
0.00887438
0
0
0
0
0
0
0
0
0
0
0
0
0
0
0
0
0
0
0.0421869
0
0
0
0
0
0.0030431
0.00124717
0.0047448
0
0
0
0
0
0
0
0
0
0
0
0
0
0
0
0
0
0
0
0
0
0
0
0
0
0
0
0
0
0
0
0
0
0
0
0
0
0
0
0
0
0.00870755
0
0.00104408
0
0
0.00401504
0
0.0101002
0.000125522
0.000152009
9.39359e-05
0.000116899
0.000196678
0.000284868
0.000173922
0.000429191
0.000186035
0.000195138
0.000306354
0.000235611
0.000257334
0.000188789
0.00042519
0.000477911
0.000235948
0.000300678
0.000297421
0.000320367
0.000386673
0.000366872
0.000277356
0.000227177
0.000298727
0.0010674
0.00299403
0.000824004
0.005101
0.00237171
0.00457904
0.00238678
0.0144391
0
0
0.0307241
0.00490704
0
0
0
0.024163
0
0
0
0
0
0
0
0
0
0.0183669
0
0
0.0155762
0
0
0
0.000185488
0.000146352
0.000600618
0.000161501
0.00228956
0.0017721
0.00164331
0.000945085
0.000591134
0.000200484
0.000623192
0.000302342
0.000773934
0
0
0
0
0
0
0.010966
0.00509824
0
0
0.00590837
0
0
0
0
0
0
0.882081
0
0
0
0
0
0
0
0
0
0
0.0264115
0
0
0
0
0
0
0
0
0
0
0
0
0
0
0
0
0
0
0
0
0
0
0.00925938
0
0
0
0
0
0
0
0
0
0
0
0.143752
0
0
0
0
0
0
0
0.00718334
0
0
0
0
0
0
0
0
0
0
0
0
0
0
0
0
0
0
0
0
0
0
0
0
0
0.00441546
0
0
0
0
0
0
0
0
0.000558317
0.000239722
0.000461985
0.000289564
0.000934571
0.000357223
0.000411338
0.000170688
0.000280306
0.000111658
0.00014241
9.05938e-05
0.000228601
5.04602e-05
0.000251687
8.21069e-05
0.000165483
0.00016539
0.000206349
0.000257013
0.000261808
0.000372914
0.000313146
2.78129e-05
0.000185797
6.76832e-05
0.000188491
0.000143779
0.000626475
0.000773323
0.000900755
0.00117359
0.000922705
0.00122496
0.00105772
0.000964789
0.00031079
0.000216725
0.000377782
0.000521055
0.000227418
0.000197071
0.000266738
0.000198448
0.000236014
0.000242076
8.82283e-05
0.000247647
0.000658326
0.00048588
0.000258272
0.000849077
0.000384712
0.000203683
0.000148306
9.66284e-05
8.05831e-05
0.000289495
0.00579423
0.00178954
0.00293317
0.00131126
0.00159881
0.00231652
0.00178854
0.00154541
0.00511386
0.00884002
0.0128997
0.0396622
0.0931966
0.0156377
0.000395602
0.00045542
0.000355492
0.000363053
0.000334131
0.000280231
0.000289653
0.000254436
0.000274472
0.000209361
0.000215496
0.000215818
0.000218097
0.000185578
0.000180698
0.000144493
0.0001273
0.000165502
0.00013739
0.000123859
7.88737e-05
0.000274778
0.000230577
0.000153639
0.000141604
0
0
0
0
0
0
0
0
0
0.0054815
0
0
0
0
0
0.000630217
0.000664995
0
0
0
0
0
0
2.46685
0
0.0107497
0.0173916
0.00237327
0.00594087
0.00916081
0.00701043
0.0123124
0.000551347
0.000896472
0.00157011
0.00137685
0.00216806
0.000862101
0.0013362
0.00107425
0.00183598
0.00129812
0.000673968
0.000805982
0.00121719
0.00122838
0.00134264
0.00133839
0.00115477
0.00100056
0.00108217
0.000901162
0.00122781
0.000787145
0.000829529
0.00080275
0.000776911
0.000889192
0.000549959
0.000651151
0.000481892
0.000504384
0.000355998
0.000284399
0.000187781
3.21727e-05
4.43486e-05
0.00024388
0.000440223
0.000432068
0.000577637
0.000548876
0.000549647
0.000631233
0.000600639
0.000515637
0.00045645
0.000527929
0
0
0
0
0
0
0
0
0
0
0
0
0
0
0
0
0
0.0105656
0
0
0.0502308
0
0
0
0.00501178
0
0
0
0
0
0.0035985
0
0
0
0
0
0
0
0
0
0
0
0
0
0
0
0.00724467
0.0120114
0.0105774
0
0
0
0
0.00424319
0
0
0.00521113
0
0
0
0
0.00870268
0
0.00803049
0
0
0
0
0
0
0
0
0.0328864
0
0
0
0.0223435
0
0
0
0
0
0
0
0
0
0
0
0
0
0
0
0
0
0
0
0
0
0
0
0
0
0
0
0
0
0
0
0
0
0
0
0
0
0
0
0
0.00350307
0
0
0
0.0107655
0
0
5.66609e-05
0.000100479
0.000123397
2.26228e-05
6.90901e-05
9.93968e-05
0.000160296
0.000126026
8.86527e-05
0.000466477
3.52459e-05
0.000143306
0.000303727
0.000320674
0.000168674
0.00015436
0.000307907
0.000289619
0.000181348
0.000277393
0.000268052
0.000251234
0.000250894
0.000177181
0.000482449
0.00109171
0.000167572
0.00112953
0.00181821
0.00155223
0.00113239
0.00304821
0.00466189
0.00236451
0.00473754
0.0100648
0.0148402
0
0
0.0183864
0.00108265
0
0
0.0127332
0
0
0.16798
0
0
0
0
0.0192142
0
0
0
0
0.0146185
0
0.00904675
0
0
0.00115679
0.000862191
0.00160453
0.00057783
0.00309455
0.00347458
0.000966507
0.0018119
0.00142057
0.000846895
0.000894819
0.000620072
0
0
0.000497702
0
0
0.00154781
0.000628553
0
0
0
0
0
0
0
0
0.0503193
0.336352
0
0
0.112371
0
0.00868434
0
0
0
0
0.0373453
0
0.00693225
0.0229085
0
0
0
0
0
0
0
0
0
0
0
0
0
0
0
0
0
0
0.02933
0
0
0
0.0160187
0
0
0
0
0
0
0
0
0
0
0
0
0
0
0
0
0
0
0
0
0
0
0.00753927
0.00203465
0
0
0
0
0
0
0
0
0.00205932
0
0
0
0
0
0
0.00137052
0
0
0
0
0
0
0
0
0
0
1.43575
0
0
0
0.00642762
0
0
0
0
0
0
0
0
0
0.000155585
0.000541459
0.000314847
0.00019758
0.000276001
0.000116315
0.0001997
0.000198868
0.000190784
0.000237099
0.000176602
0.000151775
0.000112603
0.00024328
0.000105059
0.000184749
0.000211557
0.000217244
0.000154115
0.00020412
0.000146865
0.000283165
0.000329062
0.000268574
0.000128352
0.000104853
6.44444e-05
0.000165631
0.000257729
0.000765195
0.000684489
0.000851737
0.00110186
0.00130374
0.00106694
0.000929086
0.000806207
0.000178855
0.000234248
0.000482598
0.000494017
0.000213163
0.000281301
0.000349508
0.000205966
0.000310922
0.000270185
0.000366558
0.000197611
0.000426207
8.68025e-05
0.000559959
0.000640495
9.63464e-05
0.000102421
0.000580946
0.000170826
4.55498e-05
0.00441112
0.00206131
0.00337794
0.00223815
0.00231884
0.00199795
0.00147021
0.00255111
0.00784825
0.0045805
0.0335063
0.010545
0.00420416
0.00950527
0.00038499
0.000389773
0.000287662
0.000326628
0.000276906
0.000294646
0.000260238
0.000251368
0.000259786
0.000251359
0.00017712
0.000186228
0.000187542
0.000171455
9.80246e-05
0.000148351
0.00014486
9.71126e-05
9.97834e-05
5.84679e-05
0.000266162
0.000245579
6.40672e-05
0.000104284
0.00701307
0.0140114
0.0171234
0
0
0
0
0
0
0
0
0
0
0
0
0
0
0
0
0
0.0125012
0
1.83949
0
0.105678
0.013237
0.0244853
0.00668891
0.00756224
0.000954595
0.00836796
0.00486186
0.00128406
0.000393676
0.00118537
0.00264931
0.00188564
0.00110724
0.00141343
0.00143792
0.000918623
0.00121532
0.00097298
0.00124466
0.00122837
0.00108039
0.00138519
0.00111271
0.00116356
0.00096725
0.000817722
0.000631074
0.00092652
0.000673973
0.000748783
0.00076371
0.000660885
0.000577604
0.000446483
0.000470941
0.000349849
0.000283888
0.000200563
4.82534e-05
5.31532e-05
0.000199349
0.000499281
0.000470309
0.000617681
0.000591057
0.000614391
0.000627447
0.000586189
0.000598169
0.000541651
0.000507566
0.000435802
0.000434533
0.0104363
0.00458652
0
0
0
0
0
0
0
0
0
0.00123783
0
0.00311963
0
0.00337832
0.00640434
0.000526619
0
0
0
0
0
0
0
0
0
0
0
0.00736388
0
0
0
0
0
0
0
0
0
0.00807599
0
0
0.0145359
0
0
0
0.00609977
0
0
0