/*--------------------------------*- C++ -*----------------------------------*\
  =========                 |
  \\      /  F ield         | OpenFOAM: The Open Source CFD Toolbox
   \\    /   O peration     | Website:  https://openfoam.org
    \\  /    A nd           | Version:  8
     \\/     M anipulation  |
\*---------------------------------------------------------------------------*/
FoamFile
{
    version     2.0;
    format      ascii;
    class       volScalarField;
    location    "16140";
    object      nut;
}
// * * * * * * * * * * * * * * * * * * * * * * * * * * * * * * * * * * * * * //

dimensions      [0 2 -1 0 0 0 0];

internalField   nonuniform List<scalar> 
526318
(
3.32576e-05
0.000530792
0.000358132
0.000463126
0.000309092
0.000403017
0.000703115
0.000209693
0.000237236
0.000547797
0.000382838
0.000258187
5.87466e-05
0.000413557
0.000284007
0.000292134
0.000422989
0.000294552
9.93557e-05
0.000375235
0.000470498
0.000550056
0.000426191
0.000569828
0.000307231
0.000363896
0.000274588
0.000604027
0.000164149
0.000676398
0.00021969
0.000394265
0.000189635
0.000181174
0.000477109
0.000590788
0.000629701
0.000414682
0.000543814
0.000566108
0.000236675
0.000539595
0.000301794
0.000383738
0.000419873
0.000418244
0.000283335
0.000326869
0.000393966
1.3199e-05
0.000275382
0.000239413
0.000259742
0.000365775
0.000329043
0.000433365
0.000259781
0.000438905
0.000368469
0.00034582
0.000142644
0.000283645
0.000248832
0.000235199
0.000448206
0.000288297
0.00026299
8.34873e-05
0.000212084
0.000186289
0.000363526
0.000146757
4.16498e-05
0.000162811
0.000151853
0.000249312
0.00031298
5.97786e-05
0.000140051
0.000256756
0.000187251
0.000145598
0.000206324
0.00020012
0.000167432
0.0001486
0.000156522
3.41581e-05
7.06165e-05
0.000163587
0.000187091
0.000221436
0.000128823
0.000139182
0.00011952
0.00028907
0.000206625
0.000328987
0.000204258
0.000309208
0.000797469
0.000428738
0.000450143
0.00026273
0.000509412
0.000199903
0.000676315
0.000320907
0.000725438
0.000276892
0.000191751
0.000472394
0.000472785
0.000314902
0.000240221
0.000421713
0.000500842
0.000213985
6.96164e-05
0.000189775
0.000233276
0.000190563
0.000145852
0.000288913
0.000200773
0.000171602
0.000222521
0.000191294
0.000153028
0.000152988
0.000189432
0.00018033
0.000161679
0.000143311
0.000175467
0.000169579
0.000179518
0.000160441
0.000159797
0.000127707
0.000117045
0.000116108
0.00016098
9.79073e-05
8.40184e-05
0.000106921
0.000146421
0.000160025
0.000117423
0.000177306
0.000160264
0.000126294
0.000158534
0.000129155
0.000198797
0.0001344
0.000153216
0.000101693
0.000135547
0.000140623
0.000179244
0.000125546
9.75867e-05
0.000280387
0.000113818
0.000101824
0.000175011
0.000264035
0.000343442
0.000175986
0.000204223
0.000190793
0.000167653
0.000188378
0.000153807
0.000131059
0.000241208
0.000215103
0.000181495
0.000110797
0.000259479
0.000119573
0.000233989
0.000218149
0.000134781
0.000166326
0.000142886
0.000159813
0.000188777
0.000171018
0.000192201
0.000150291
0.000192385
0.000148807
0.000148326
0.00019925
0.000143278
0.00019717
0.000191828
0.000167235
0.000168086
0.000102749
9.03459e-05
0.000118604
8.55959e-05
0.000133844
0.000162155
0.000129862
0.000103647
0.000161748
0.000474417
0.000589845
0.000216063
0.000738851
0.000740051
0.000422856
0.000314112
4.02666e-05
9.99941e-05
0.000137483
0.000235502
0.000298355
0.000145783
0.000255109
0.000402474
0.000295292
0.00018577
0.000329034
0.000295824
0.000153218
0.000188163
9.59476e-05
7.76057e-05
0
0
0.000437871
0.000333577
0.000141448
0.000357885
0.000176813
0.000412191
0.000490508
0.000470895
0.000450636
0.000422907
0.000186862
0.000222545
0.000625778
0.000283296
0.000225443
0.000380251
0.000274571
7.58717e-05
0.000238598
3.41597e-05
0.000185385
0.000368203
0.000187012
0.000250904
0.000291155
0.000273073
0
0
0.00024541
0
0.00089863
0.000655063
0.000255332
0.000675383
0.0008799
0.000353305
0.000629146
0.000383616
0.000248235
0.000593465
0.000354924
0.000364
0.000541041
0.000354045
0.000346631
0.00031357
0.000262427
0.00023677
0.000154807
0.000262398
0.000139214
0.000144214
0.000128243
0.000166376
0.000148013
0.000164527
0.000119259
7.81794e-05
0.000168781
0.000124978
0.00019778
0.000184724
0.000240926
0.000269995
0.000269663
0.000230634
0.00015363
0.000150959
0.000160664
0.000171449
0.000163525
9.53618e-05
0.00010092
0.000128347
0.000155303
0.000154261
0.000149595
0.000182663
0.000102976
0.000163999
0.000128378
0.000249661
0.000266716
0.000255598
0.000264334
0.000159186
0.000132385
0.000400051
7.51156e-06
0.000298233
0.000176929
5.19247e-05
0.000252188
0.000178962
0.00017347
5.24128e-05
0.000206333
0.000181982
0.000115422
0.000208398
0.000127814
0.000149646
7.02782e-05
4.40812e-05
0.000212382
0.000128698
0.000152669
0.000157882
0.000209815
0.000157657
0.000214819
0.000210601
0.000148136
0.000133503
0.000183436
0.000185017
0.000156457
0.000208876
0.000189624
0.000203354
0.000152458
0.000152926
0.000110206
9.72764e-05
0.00015468
0.000136571
0.000111094
0.000170967
0.000131348
0.000107181
0.00018328
0.000183346
0.000207715
0.000301626
0.000278539
0.000278323
0.000242809
0.000285336
0.000293661
0.000292128
0.000331091
0.00029398
0.000517489
0.0006883
0.000379868
0.000763584
0.000712497
0.000438624
0.000720824
0.000253311
0.000567237
0.00023161
0.000255364
0.000242459
6.72066e-05
0.000329138
0.000267198
0.000177774
0.000262704
0.000388051
0.000319249
0.000313155
0.000291948
0.000281584
7.00856e-05
0.000303691
6.02133e-05
0.000210827
0.000183083
0.000158406
0
0
0
0
0
0
3.15434e-06
0.000235633
0
3.73513e-05
0.000405633
0.000137163
0.000311794
0.000367163
0.000476087
0.000499458
0.000566126
0.000322145
0.000351651
0.000192647
0.000399212
0.00029429
0.000282168
0.000111735
0.000300648
0.00019055
0.000214837
6.8939e-05
0.000354043
7.44058e-05
0.000249879
0.000287741
0
2.87447e-11
1.14571e-10
0
0
0
0
7.4364e-11
1.20919e-10
1.56972e-10
0
0
0
0
0
0
0
0
0
0
0.000343365
1.8794e-05
0.000746443
0.000532972
0.000617635
0.000292274
0.000546529
0.000868921
0.000538341
0.000702873
0.000478406
0.000254081
0.000220026
0.000472861
0.000254373
0.000366339
0.000223719
0.000349808
0.00018827
0.000262955
0.000188778
0.000128257
0.000158544
0.000110063
0.000135851
0.00018921
0.000158617
0.000107315
7.95595e-05
0.00011126
0.000149591
0.000140094
0.000201019
0.000185197
0.000142731
0.000219609
0.00024637
0.00026088
0.000125134
0.000158797
0.000149936
0.000155201
0.000112436
0.000167849
0.000134371
9.78929e-05
0.000144459
0.000126655
8.29861e-05
0.000322992
0.000355179
0.000357978
0.000331162
0.000404694
0.000397156
0.000340581
0.000329081
0.000270821
0.000306298
0.000321473
0.000347158
0.000283903
0.000262113
0.000190207
0.000296781
0.000423337
8.67143e-05
0.000395663
0.000200774
6.40829e-05
0.000108348
0.000121697
7.2105e-05
0.000164961
0.000167588
2.86147e-05
0.000103499
6.41669e-05
8.2264e-05
7.81709e-05
6.64557e-05
5.88549e-05
1.24713e-05
0.000104669
0.000114436
0.000237773
0.000152288
0.000170733
0.000264801
0.000152205
0.000225938
0.000119057
0.000181481
0.00015811
0.000147579
0.000219175
0.000165392
0.000206559
0.000185935
0.00012704
0.000181932
0.000123125
0.000144435
0.000110063
0.000181113
0.000123895
0.000162827
0.000122686
0.000181377
0.00018741
0.000107744
0.000229367
0.00019897
0.000275959
0.000299568
0.000250568
0.000272216
0.000321992
0.00034765
0.000385038
0.000348587
0.000333696
0.000375158
0.000331249
0.000265498
2.36023e-05
9.7076e-05
0.000560018
0.000478483
0.000772117
0.000385996
0.000198939
0.00029914
0.000287717
0.000231323
0.000305615
3.23935e-05
0.000251579
0.0001095
0.000190957
0.000316942
0.000442128
0.000174198
0.000180835
0.000273719
0
0
0.000174528
1.07019e-05
0.000223241
4.74231e-05
0
0
0
0
0
0
0
0
0
0
0
0
0
0
0
0
0
0
0
0
1.91037e-09
0
0
0
6.92564e-10
2.05673e-09
0
0
0
0
0
0
0
0
0
0
0
0
0
0
0.00058334
0.000451484
0.000372163
0.00045377
6.25331e-05
0.000155365
0.000442716
0.000236192
0.000257833
0.000344093
2.01875e-05
0.000341425
3.27915e-05
0.00019289
0.000141051
0.000265963
0.000188987
0.000209741
0.000123655
0.000246913
0.000242992
0.000233542
0
0
0
0
0
0
0
0
0
0
0
0
0
0
0
0
0
0
0
0
0
0
0
0
0
0
0
0
0
0
0.000727314
0.000646201
0.00034843
0.00028532
0.000738879
0.000225835
0.00075233
0.000653447
0.00046524
0.000510777
0.000305912
0.000526289
0.00029521
5.74425e-05
0.000299217
0.000227814
0.000299279
0.00013646
7.35158e-10
0
0
0
0
0
0
0
0
0
0
0
0
0
0
0
0
0.000132576
0.000213361
0.000127275
0.000137316
0.000111416
0.000205582
0.0001387
0.000154548
0.000129118
4.15582e-05
9.86854e-05
0.000109344
0.000181891
0.000121791
0.000107187
0.000207071
0.000226809
0.000265616
0.000241066
0.000247203
0.000138111
5.70195e-05
0.000114438
0.0001249
0.000137639
0.000150878
9.58126e-05
0.000128578
0.000105977
5.9413e-05
9.11309e-05
7.01737e-05
0.000290122
0.000349341
0.000287664
0.00031425
0.000340233
0.000401902
0.000297071
0.000233011
0.00024766
0.000257317
0.00038434
0.000369183
0.000437329
0.000366816
0.000337337
0.000287285
0.000392459
0.000335796
0.000242591
0.000268846
7.84533e-05
4.68244e-05
3.27342e-05
0.000126988
0.000144709
9.14662e-05
0.000106363
0.000173549
0.000138981
9.34851e-05
0.000112529
8.18693e-05
5.45591e-05
1.0905e-05
2.01049e-05
7.16487e-05
0.000109555
4.16115e-05
0.000133921
0.000182567
0.000124968
0.000124629
0.000147961
0.000238175
0.000228538
0.000152544
0.000132394
0.000183716
0.000149056
0.000143866
0.000200877
0.000161884
0.000201195
0.00019476
0.000146077
0.000184326
0.000140736
0.000123577
0.000114378
0.000139317
0.000120429
0.000195493
0.000175264
0.000112469
0.000144149
0.000206371
0.000132499
0.000214601
0.000211654
0.00025212
0.000295047
0.000312832
0.000263804
0.000275956
0.000327622
0.000362269
0.00031614
0.000360556
0.000288334
0.000332093
0.000307629
0.000223876
0.000174166
0.000151852
0.000240124
0.000134701
0.000174929
0.000190519
9.78075e-05
0.000214332
9.12884e-05
4.24775e-05
0.000124888
6.53665e-05
2.27464e-05
3.70635e-05
1.48164e-05
6.02738e-05
0.000100372
3.81779e-05
2.45884e-05
4.28396e-05
0.00015262
1.6489e-05
5.11835e-05
9.29322e-05
0.000154641
0.000145341
0.000201076
0.000168548
0.000287218
0.000314815
0.000236638
0.000323638
0.000250319
0.000273485
0.000302956
0.000349015
0.000303401
0.000333303
0.000450708
0.000119797
0.000167563
6.34855e-05
0.000306168
0.000146504
0.00013186
0.000403168
0.000135399
3.93216e-05
9.42612e-05
0.00015658
8.12592e-05
0.000388449
0.000151025
0.00013714
8.91993e-05
0.000262763
0.00046926
0.0004477
0.000336632
0.000111865
0.000399895
0.000299076
0
0
6.30035e-05
1.62058e-05
0.000104915
0.000149591
0
0
0
0
0
3.50769e-09
0
0
0
0
0
0
0
0
3.8069e-09
0
0
0
0
0
0
0
0
0
0
0
0
0
0
0
0
1.68291e-09
0
0
0
0
0
0
9.59957e-10
0
6.26731e-10
0
0
0
3.38058e-09
5.11001e-09
0
0
0
0
0
0
0
0
0
0
0
0
0
0
0
0
0
0
0
0
0.000481558
0.000319915
0.000373935
0.000516961
0.000280336
9.54273e-05
0.000455449
0.000257955
0.000308971
0.000176126
0.000319385
0.000170925
0.000354026
0.000154024
0.000158123
0.000164526
0.000206633
3.74525e-05
0.000141402
0.000140041
0.000199688
0.000216288
0
0
9.20929e-10
9.11102e-10
0
0
0
0
1.96512e-09
0
0
0
0
0
0
0
0
0
0
0
0
0
2.43982e-09
5.14405e-09
0.000434372
0
0.00086565
0.00072898
0.000502143
0.000498638
0.000494074
0.000686947
0.000544919
0.000636291
0.000523569
0.000462079
0.000343242
0.00037438
0.000225994
3.2378e-05
6.36188e-05
0.000400904
0.000260343
0.000294348
6.18014e-10
0
0
0
0
2.48048e-11
0
0
1.02951e-11
0
0
0
0
0
0
0
0
0
0
0
0
0
0
0
4.98476e-07
0
0.000134745
8.93592e-05
9.8252e-05
0.000148351
0.000115694
0.000190776
9.67038e-05
0.000105289
0.000113673
6.86214e-05
0.000147779
8.34223e-05
0.00015813
9.95012e-05
0.000141801
0.0001915
0.000219028
0.00023162
0.000229883
0.000228792
5.78815e-05
8.25271e-05
0.000138361
0.000119102
7.73295e-05
7.79266e-05
0.00010449
1.44772e-06
0.000109081
1.59273e-05
4.13776e-05
2.90793e-05
0.000210979
0.000218754
0.000304769
0.000338044
0.000341337
0.000383533
0.000286384
0.000279111
0.000114219
0.000126492
0.000207932
0.00014958
0.000140378
0.000111598
0.000110925
0.000122957
0.000167492
0.00011022
0.000299633
0.000120994
0.000237098
0.000256684
0.000283242
0.000356647
0.000359847
0.000338232
0.000333496
0.000336488
0.000288708
0.000291232
0.000378845
0.000414156
0.000412914
0.000386164
0.000352626
0.00027123
0.000390811
0.000370765
0.000241142
0.000317692
6.21215e-05
9.81832e-05
4.60277e-05
0.000138644
7.74287e-05
2.4361e-05
2.05722e-05
0.000120378
0.000140472
7.74189e-05
7.68466e-05
0.000104301
0.000125863
8.94857e-05
8.4197e-05
9.04587e-05
4.29158e-05
0.000138416
0.000155969
0.000176311
7.15903e-05
0.000113756
8.44685e-05
0.00013821
0.000121782
0.000140327
0.000157579
0.000151094
0.000188729
0.000178533
0.000216387
0.000193897
0.00014317
0.000208257
0.000144023
0.000129216
0.000136224
9.53168e-05
9.29665e-05
0.000143846
0.000128022
0.000215202
0.0001759
0.000110733
0.000247578
0.000177683
0.000159004
0.00023785
0.000225365
0.000261088
0.000300678
0.000314258
0.000279116
0.000270558
0.000315456
0.00033045
0.000317831
0.000280432
0.000216163
0.000315146
0.000146679
0.00028202
0.000115333
0.000157664
0.000238639
0.000140783
9.18806e-05
6.60691e-05
3.23955e-05
3.03461e-05
2.72526e-05
5.75815e-05
0.000102406
0.000129491
0.000190247
0.000215031
0.000249753
0.00029181
0.000284023
0.000382052
0.000416869
0.000374867
0.000389064
0.000447413
0.000366719
0.000355407
0.000351425
0.000375375
0.00039519
0.000392303
0.00034062
0.00034416
0.000379899
0.000394358
0.000119268
7.61737e-05
0.000181271
0.000260821
0.000247055
0.000134816
2.99235e-05
0.000315314
0.00029322
8.36918e-05
0.000121132
9.57858e-05
0.000206412
0.000553446
9.36573e-05
0.000153346
0.000383373
0.00022506
0.000406189
0.000356241
0.000415744
0.000527694
0.000321646
0.000182512
0
0
0
6.43175e-05
5.08824e-05
0.000106752
0
0
0
4.1281e-09
0
0
0
0
0
0
0
5.4281e-09
0
0
0
0
0
0
0
0
2.01318e-11
0
0
0
0
0
0
0
0
0
0
0
0
0
0
3.01108e-09
0
0
0
0
0
0
0
0
0
0
0
0
0
0
0
0
0
0
0.000221736
0.000376328
0.00045111
0.000203434
0.000194812
0.000453299
0.00029182
0.000241416
0.000266444
0.00030044
0.000152436
0.000166972
0.000124238
0.000249558
0.000183863
6.41086e-05
0.000123401
0.000172636
8.71478e-05
4.12719e-05
0.000122355
0.000186149
3.80063e-10
0
3.44755e-10
0
0
0
0
0
0
0
0
0
0
0
0
0
0
0
0
0
0
0
1.81454e-06
0
4.3855e-05
0.000328374
0.00076274
0.000153657
0.000201245
0.000617139
0.000659227
0.000551338
0.000515068
0.000290017
0.000421858
0.000381367
0.000231758
0.000109967
3.34936e-05
0.000511529
0.00040916
0.000614428
0.00017315
0.000172349
0
0
0
0
0
0
0
0
0
0
0
0
0
0
0
0
0
0
0
0
0
0
4.03276e-07
0
0
0
0
0
0
0
0
7.05588e-05
8.58058e-05
0.000141057
9.58586e-05
9.11222e-05
0.00010196
0.000118277
5.64052e-05
0.000134438
6.59373e-05
6.04102e-05
9.28504e-05
9.91373e-05
3.85204e-05
0.000105631
0.000123255
9.14603e-05
0.000192359
0.000173041
0.000193438
0.000208945
0.000254705
0.000229959
8.64761e-05
0.000105788
6.74798e-05
0.00016107
0.000101287
2.4942e-05
1.78825e-05
0.000103919
4.10991e-05
6.57689e-05
0.000102272
3.2869e-05
0.000453456
0.000402816
0.000440417
0.000417799
0.000381428
0.000417732
0.0004226
0.000379826
0.000402599
0.00034886
0.00037751
0.000305847
0.000434503
0.000394999
0.000382377
0.000394285
0.000433614
0.000411889
0.000396762
0.00038379
0.000463235
0.000412919
0.000391303
0.000475858
0.000422003
0.000424749
0.00040373
0.000490045
0.000436145
0.000305886
0.000306125
0.000396863
0.000343315
0.000347261
0.000413574
0.00025046
0.000205932
0.000321408
0.000323615
0.000359169
0.000340648
0.000324407
0.000265321
9.87524e-05
0.000202812
0.000144144
0.00028489
0.000140995
7.58828e-05
0.00013944
0.00020447
0.00018018
0.000237952
0.000205592
0.000283681
0.000269103
0.000355397
0.00031622
0.000350346
0.000311959
0.00035094
0.000336327
0.000226531
0.000370471
0.000415675
0.000418009
0.000419878
0.000400352
0.000376586
0.000381964
0.000242322
0.000317884
0.000230785
0.000222
0.00035097
0.000375233
0.000363324
0.000346015
0.000371095
0.000358149
0.000374416
0.000373919
0.000386842
0.000379687
0.00037888
0.000376282
0.000335861
0.000350186
0.000280477
0.000348364
0.000324858
0.000213896
0.000140909
0.000145045
0.00013324
0.000134906
0.000103258
3.63906e-05
8.6602e-05
5.44899e-05
1.51966e-05
0.000161795
0.000120432
0.00012853
4.60836e-05
9.28579e-05
6.43479e-05
1.1205e-05
6.21266e-05
4.6292e-05
0.000113444
0.000173193
4.61308e-05
0.000130592
9.87275e-05
0.000101355
0.000146219
7.79447e-05
0.000189375
0.000172191
0.00019086
0.000196649
0.000209764
0.000152355
0.000152627
0.000125495
0.0001439
0.000107853
0.000145236
0.000102212
0.000134875
9.70987e-05
0.00014688
0.000216373
0.00011487
0.000163561
0.000261508
0.00018927
0.000172529
0.000259256
0.000220259
0.000263998
0.000283999
0.000312785
0.000264664
0.000223466
0.000312954
0.000298563
0.000267793
0.0002934
0.000134834
0.000302643
0.00014419
0.000161235
0.000252425
0.000192676
0.000145962
8.28031e-05
9.85721e-05
2.81995e-05
4.86712e-05
3.46239e-05
0.000123044
0.000107804
0.000203995
0.000224705
0.000269285
0.000212993
0.000282842
0.000378081
0.000251137
0.000369055
0.000255346
0.000676317
0.000379614
0.00043374
0.000419046
0.00045751
0.000128745
0.000337528
0.000190374
3.05813e-05
0.000438404
0.000471198
0.00031045
0.000305308
0.000371766
3.18288e-05
0.000214098
0.000199143
0.0001306
0.000198639
0.000148096
0.000148937
0.000113066
0.000186256
0.000576198
0.000117975
0.000471065
0.000557856
0.000196642
0
0
0
0
6.0508e-10
7.14303e-10
9.97891e-05
0
4.90526e-05
0.000144301
0
0
0
0
0
0
0
0
2.34333e-09
0
0
0
0
0
0
0
0
2.58911e-07
0
0
0
0
0
0
0
0
0
0
0
0
2.48109e-10
0
0
0
0
0
0
0
0
0
0
0
0
0
0
0
0
0
0
0
0
0
0
0
0
2.24249e-09
0
0
0
0
2.49575e-09
0.000298587
0.000365771
0.000369535
0.000325791
0.000223122
0.000271871
0.000410776
0.000298667
0.00036819
0.000276964
0.000312796
0.000247268
0.000254604
0.0001109
0.000351073
0.000192298
0.000183713
0.000107137
6.91374e-05
9.5172e-05
0.000103403
7.17697e-05
0.000166219
7.16301e-05
0.00012345
0
0
0
0
0
0
0
0
0
0
0
0
0
0.000274357
0.000386772
0.00045016
0
0
0
0
0
0
0
0
6.58955e-05
0
0.000229613
0.000659968
0.000269695
0.000233184
0.000582146
0.000284997
0.000109229
0.000204633
0.000433837
0.000283501
0.000613437
0.000243502
0.000346793
0.000347862
0.000276046
0.000168614
0.000382568
0
2.7849e-10
0
0
0
0
0
0
0
0
0
0
0
0
0
0
0
0
0
0
0
0
0
0
0
0
0
0
0
0
0
0
0
0
0
0
0
5.14888e-05
9.51537e-05
5.28079e-05
4.77963e-05
9.80259e-05
0.000105912
2.64223e-05
2.14066e-05
5.04195e-05
8.90737e-05
2.63532e-05
7.1387e-05
2.45608e-05
1.15092e-05
4.80186e-05
3.42779e-05
5.23637e-05
0.000106292
0.000122353
0.000179451
0.000149422
0.000169293
0.000200905
0.000191775
0.000183891
7.39498e-05
5.43464e-05
6.25513e-05
8.16031e-05
9.79977e-05
2.46119e-05
4.25447e-05
6.81137e-05
2.21565e-05
9.33561e-05
1.32495e-05
3.33321e-05
0.000480479
0.000437633
0.000408202
0.000443672
0.000408985
0.000386867
0.000372917
0.000404533
0.000467573
0.000371524
0.000450528
0.000481844
0.000493486
0.000435737
0.000451121
0.000483165
0.000295841
0.000325532
0.000329134
0.000386591
0.000442746
0.000400311
0.000280938
0.000213935
0.000318921
0.000353329
0.000342119
0.000345224
0.000280471
0.000325558
4.74487e-05
0.000305261
0.000184887
0.000197171
0.000240718
0.000185238
0.000190904
0.000260473
0.000192199
0.000210798
0.000197097
0.000208726
0.00035031
0.000292537
0.000313866
0.000279741
0.000327098
0.000384617
0.000306065
0.000331995
0.000287302
0.000343217
0.0003056
0.00040826
0.000416857
0.000428509
0.000384787
0.000427518
0.000402262
0.000357297
0.000362158
0.000332931
0.000249136
0.000162
0.000219651
0.000328929
0.000220738
0.000365703
0.00035601
0.000338305
0.000334593
0.000339101
0.000308744
0.000344853
0.000349934
0.000326271
0.000327964
0.000337622
0.000260878
0.000307004
0.000258545
0.000177911
0.000117663
0.000221159
0.000329782
0.000281713
0.000330056
0.000165021
0.000216308
0.000125209
0.000134796
8.41581e-05
0.000101163
0.000148609
8.78059e-05
7.01181e-05
3.82988e-05
4.14716e-05
0.000114829
0.00015097
0.000134392
9.13665e-05
8.94143e-05
2.31263e-05
2.0147e-05
6.92298e-05
9.19658e-05
9.83554e-05
8.13682e-05
0.000109912
6.71186e-05
0.000166628
0.000166098
7.62793e-05
0.000168964
0.000164142
0.000107258
0.000109247
0.000150415
0.000171291
0.000122418
0.000133684
0.000111493
0.000139281
0.000160553
0.000113729
9.82714e-05
0.000122005
0.000114119
9.4264e-05
0.000229631
0.000160298
0.000209289
0.000138687
0.000198521
0.000272093
0.000272831
0.000189546
0.000199581
0.000242887
0.000241254
0.000300301
0.00019323
0.000261882
0.000253363
0.000318248
0.000256116
0.000293446
6.43196e-05
0.000331731
0.000172029
0.000135515
7.22541e-05
0.000128568
3.05505e-05
4.94267e-05
9.65575e-05
0.000155813
0.000145038
0.000193344
0.000177975
0.00028136
0.000256083
0.000300174
0.000314664
0.000183475
0.000351697
0.000343699
0.000635833
0.000372609
0.000580497
0.000638037
0
0.000126853
0
0.000140792
0.000545506
0.000356832
0.00025894
0.000467489
0.000272623
0.000234295
0.000106746
0.000198931
0
0.000126424
0.00017783
1.90258e-05
6.92577e-05
0
0
0
0
0
0
0
0
7.78455e-11
0
0
1.77675e-09
4.81301e-10
0
0
0
0
0
0
0
0
0
0
0
0
3.16169e-07
0
0
0
0
0
0
0
0
2.65862e-06
0
0
0
0
1.26514e-09
0
0
0
0
0
0
0
1.67283e-09
2.51284e-09
0
0
4.93331e-09
2.17478e-09
0
0
0
0
3.00895e-09
0
3.97822e-09
0
0
0
0
0
0
0
0
0
0
0
0
0
0
0
0
0
1.39586e-09
0
0
0
0
0
0
0
0
0.000475166
0.000472151
0.000371279
0.000378714
0.000275063
0.000170894
0.000154291
0.000105797
0.000179384
0.00024119
0.000149484
0.000288422
0.00014867
0.000202145
0.000215399
0.000191746
0.000198002
0.000214801
0.000113891
9.15202e-05
0.000149098
1.60532e-05
2.82273e-05
6.17379e-05
0.000102153
4.00446e-05
0.000123381
0
0
0
0
0
0
0
0.000147897
0.00029022
0.000210142
0
0
0
0
0.000121866
0.000172193
0
0
0
1.47393e-11
0
0
0
0
0
0.000327382
9.18515e-05
0.000377408
0.000387968
0.000116091
0.00038161
0.000309986
0.000394507
0.000246581
7.32034e-05
0.000429983
4.35827e-05
7.94773e-05
0.000362064
0.000163754
0.000320665
0
0
2.63086e-10
0
0
0
0
8.08719e-11
0
0
0
0
0
0
0
1.93136e-09
0
8.81689e-10
1.47194e-09
0
0
0
0
0
0
0
0
0
0
0
1.93093e-09
0
0
0
0
0
0
0
0
0
0
0
0
0
7.38557e-10
6.19086e-06
2.38799e-05
8.41514e-05
5.84915e-05
5.41351e-05
8.72911e-05
6.55104e-05
5.0106e-05
2.71985e-05
2.59893e-05
3.46769e-05
0.000109829
0.000106244
5.10974e-05
9.83048e-05
4.94921e-05
2.7132e-05
6.62746e-05
1.6778e-05
8.89108e-05
0.000132926
7.09657e-05
0.000168389
9.66448e-05
0.000140183
0.000158144
0.000107109
5.89796e-05
2.49894e-05
2.21259e-05
2.6731e-05
6.36461e-05
5.26192e-05
1.59948e-05
3.54806e-05
7.29068e-05
5.5264e-05
4.26094e-05
4.80289e-05
0.000461737
0.000398325
0.000387408
0.00043795
0.000420543
0.000449306
0.00042714
0.000509594
0.000459807
0.000444077
0.000330064
0.000451315
0.000414067
0.000428077
0.000477438
0.000523174
0.000461885
0.000504539
0.000484688
0.000486771
0.000439132
0.000456863
0.000384115
0.00030504
0.000436956
0.000402952
0.000369982
0.00047349
0.000276284
0.000240343
0.000307613
0.000355385
0.000327012
0.000353664
0.000282033
0.000328787
0.000185784
0.000241384
0.00024991
0.000202235
0.000213193
0.000288794
0.000258147
0.000227982
0.000263846
0.000253733
0.000302345
0.000279415
0.000319374
0.000438024
0.000361721
0.000321064
0.000129392
0.000362383
0.000368182
0.000276353
0.000435663
0.000291998
0.00040473
0.000410482
0.000387733
0.000389175
0.000399926
0.000429013
0.000369176
0.000355428
0.00028525
0.000374048
0.000258621
0.00015916
0.000306146
0.00043236
0.000307732
0.000261173
0.000358696
0.000320593
0.00027999
0.000289091
0.000298884
0.000313182
0.000280091
0.000264535
0.000305982
0.00025941
0.00026205
0.000221784
0.000165876
8.06399e-05
0.000159102
9.18216e-05
0.000143957
0.000282909
0.000261268
9.07509e-05
0.000115953
0.000110824
1.38805e-05
7.31589e-05
6.59202e-05
4.15022e-05
3.45191e-05
4.19193e-05
1.28083e-05
6.78421e-05
8.13463e-05
3.43186e-06
7.26677e-05
4.49608e-05
0
5.24893e-06
0.000142885
0.000233667
8.32043e-05
6.31207e-05
6.36986e-05
0.000166699
7.94616e-05
0.000109858
0.000108793
0.000125868
0.000156254
0.000123351
0.000208119
0.0001413
0.000114475
0.000120362
0.000107483
0.000147631
0.000107107
0.000134915
0.000105279
8.88564e-05
0.000106808
0.000160852
0.000125522
0.000130553
0.000172536
0.000243871
0.000218341
0.000256885
0.000201025
0.000205183
0.000271782
0.000178163
0.000236392
0.000206123
0.000261356
0.000179298
0.00022654
0.000259057
0.000208724
0.00022962
0.000140792
0.000229786
4.01738e-05
0.000196078
3.49143e-05
0.000168527
3.9477e-05
0.000172197
9.57741e-05
0.000260221
0.000196319
0.00029192
0.000264867
0.000329269
0.000300102
0.000320712
0.000343305
0.00041621
0.000301843
0.000472179
5.40222e-05
0.000727451
0
0
2.11835e-06
0
0
0.000114186
0
0.000125152
6.33591e-05
9.21211e-05
0
0
0
0
2.14292e-08
0
0
0
2.66484e-08
3.50436e-06
0
0
0
2.27412e-09
0
1.86758e-09
1.22488e-09
0
0
0
0
0
0
0
0
1.09725e-07
0
0
0
0
0
0
3.46263e-07
0
0
0
0
0
0
0
0
0
0
0
0
0
0
0
0
0
0
0
0
0
0
0
0
0
0
0
0
0
0
0
0
0
0
0
0
0
0
0
0
0
0
0
0
0
0
0
0
0
0
0
0
0
0
0
0
0
0
0
0
0
0
0
0
0
0
0
0
0
2.00436e-11
0
0
0
0
9.6925e-05
7.39494e-05
0.000153143
0.000206006
0.000149504
0.000197332
0.000465801
0.000343674
0.000315355
0.000337982
0.000279196
0.000216402
0.000190944
0.000447232
0.00056557
0.000156145
0.000299583
0.00042742
0.000262577
0.000246298
0.000332865
0.000110402
4.30383e-05
2.44235e-05
5.40636e-05
6.36406e-05
5.38975e-05
3.97757e-05
0.000104184
0
0
0
0
0.000144941
0.000122728
0.000147093
0
0
0.000259613
0.00015584
0
0
0
0
0
8.49424e-05
3.54353e-09
3.17254e-09
0
0
0
0
0
0.000316582
0.000139701
0.000162849
0.000347176
0.000218006
0.000232055
4.18421e-05
0.000195364
0.000168424
0.000203858
0.000169588
0.00028791
6.32365e-05
0.000263641
7.16571e-05
0.000130983
0
8.01791e-10
0
0
0
0
0
1.91136e-11
0
0
5.26698e-11
0
0
0
1.85212e-10
0
0
0
0
0
0
0
0
0
0
0
0
0
0
0
0
0
0
0
0
0
4.07879e-09
0
4.61626e-09
0
0
0
0
0
0
0
0
0
0
0
0
0
0
0
0
0
0
5.50517e-05
1.25856e-05
5.29209e-05
4.16496e-05
6.07363e-05
4.32179e-05
0.000129083
5.91544e-05
5.17191e-05
3.18376e-05
5.91551e-05
9.74467e-06
7.71305e-05
7.8484e-05
8.49614e-05
9.37331e-05
4.73418e-05
7.44124e-05
1.74472e-05
1.63921e-05
4.8631e-05
0.000137845
0.000150282
9.49746e-05
7.71498e-05
0.000113629
0.000134222
7.30184e-05
0.000106281
5.81593e-05
2.17917e-05
4.84701e-05
5.64942e-05
9.65274e-05
6.44294e-05
4.3694e-05
5.52392e-05
9.24263e-05
8.38548e-06
2.3004e-05
2.06311e-05
0.000387168
0.000485679
0.000435909
0.000319702
0.000454714
0.000329376
0.000511549
0.000675944
0.000426601
0.000504207
0.000550698
0.000577141
0.000594294
0.000477415
0.000533464
0.000534574
0.000493961
0.000483075
0.000522462
0.000403453
0.000448492
0.000326519
0.000380409
0.000417064
0.000438641
0.000445078
0.00057673
0.000279785
0.000235873
0.000302296
0.000365384
0.000386438
0.000330206
0.000321519
0.000271295
0.000245233
0.000261123
0.000205343
0.00022894
0.000259467
0.000289237
0.000222588
0.00026729
0.00023272
0.000372849
0.000323492
0.000342023
0.000342929
0.000270072
0.000344697
0.000504914
0.000392507
0.000436123
0.000377633
0.000268005
0.000476662
0.000155617
0.000424584
0.000407373
0.000398759
0.000388742
0.000442429
0.000442847
0.000382683
0.000400784
0.000381804
0.000287495
0.000222226
0.000130398
0.00013473
9.33374e-05
0.00013624
0.000459687
0.000290068
0.000414924
0.000361447
0.000324245
0.000330207
0.000383259
0.00033139
0.000233956
0.000256396
0.00021468
0.000235794
0.000228253
0.000195963
0.000170864
0.000177957
0.000144113
7.88043e-05
8.96966e-05
7.6505e-05
8.25503e-05
0.000122979
0.000192477
0.000225146
0.000150424
6.82133e-05
0
0
0
1.63288e-05
0
2.13459e-05
3.06665e-05
6.31674e-06
0
0
0
3.61248e-09
0
0
7.28867e-05
0
0
0.00014068
9.66082e-05
0.000150069
2.6147e-05
9.19182e-05
0.000146968
0.000122649
0.000163051
0.000174262
0.000141025
0.000146674
0.000107961
0.00011736
9.16952e-05
0.00011091
0.00013003
0.000100839
7.66361e-05
0.000123873
0.000125421
7.94031e-05
0.000185188
0.000150557
0.000115371
0.000197319
0.000226113
0.000256327
0.000233517
0.000191635
0.000209213
0.000244357
0.000176278
0.000204241
0.000201213
0.000189518
0.000178794
0.000180221
0.000106753
0.000174509
0.000182792
0.000121087
0.000189128
6.37452e-05
0.000174082
4.64562e-05
0.000206411
9.44851e-05
0.000180477
0.000230015
0.000229004
0.000321735
0.000317787
0.000328313
0.000353928
0.00031002
0.000264347
0.000294858
8.67207e-05
0.000216915
0.000473396
0.000381936
0
0
0
0
0
0
0
0
0
0
0
0
0
3.72941e-09
2.73148e-08
2.41108e-08
2.08738e-08
2.50984e-08
2.04433e-08
0
0
0
0
0
0
0
0
0
0
0
0
0
0
0
0
1.33642e-07
0
0
0
6.70178e-07
0
0
0
0
0
0
0
0
0
0
0
0
0
0
0
0
0
0
3.67659e-07
0
0
0
0
0
7.20553e-10
7.53087e-10
1.42903e-09
0
0
0
0
0
0
0
0
0
0
0
0
0
0
0
0
0
0
0
0
0
0
0
0
0
0
0
0
0
0
0
0
0
0
0
0
0
0
0
0
0
2.88524e-09
0
6.8083e-10
0
2.50746e-09
0
0
0
0.000109489
0.000207993
0.000126529
0.000143636
0.000169356
0.000211779
0.000253519
0.000428934
0.000399996
0.000371798
0.000283618
0.000271205
0.000231921
0.00029319
0.000442332
0.000416161
0.000484723
0.000449976
0.000538009
0.000129834
0.000157351
4.82259e-05
7.68783e-05
0.000225874
0.000397171
0.000203176
0.000104263
6.53654e-05
7.90183e-05
1.88639e-05
5.78377e-06
7.46643e-05
7.89252e-05
0
0
0.000187524
0.000125652
0.000109758
0
0
6.9692e-05
0.000154262
0
0
7.2625e-05
8.57854e-05
0
0
0
0
0
0
0
3.73765e-09
0
0
0
0.000159914
0.000354394
5.02059e-05
0.00027025
8.10494e-05
0.000200025
0.000171865
8.8549e-05
0.000199281
0.000118989
0.000180991
3.68369e-05
9.77087e-05
0
0
0
0
0
0
2.5305e-09
1.47241e-09
0
0
0
0
0
0
0
0
0
7.96434e-09
0
0
0
0
0
0
0
1.73566e-09
0
0
3.29771e-09
0
0
0
0
0
0
0
0
0
0
0
0
0
0
0
0
0
0
0
0
0
0
2.14718e-09
0
0
0
0
0
0
0
0
0
0
0
3.97077e-05
9.1621e-05
1.81348e-05
0.000102244
8.00016e-05
6.28033e-05
0.000121576
5.38414e-05
9.12102e-05
5.56071e-05
5.82744e-05
5.13064e-05
2.49273e-05
2.16987e-05
1.48989e-05
1.69024e-05
1.29622e-05
6.33591e-05
5.13445e-05
1.9456e-05
3.14708e-05
8.13668e-05
5.02434e-05
0.000122911
8.86925e-05
7.33893e-06
9.05654e-05
1.57904e-05
0.000119926
0.00015707
0.00011701
2.26422e-05
8.26302e-06
3.99564e-05
2.72988e-05
1.39485e-05
1.64839e-06
0
0
0
0
0
3.76355e-06
0.000495515
0.000434105
0.0006514
0.00041909
0.000397936
0.000559066
0.000511664
0.000542131
0.000610869
0.00054324
0.000565678
0.000589222
0.000569724
0.000590283
0.000494404
0.000483589