/*--------------------------------*- C++ -*----------------------------------*\
  =========                 |
  \\      /  F ield         | OpenFOAM: The Open Source CFD Toolbox
   \\    /   O peration     | Website:  https://openfoam.org
    \\  /    A nd           | Version:  8
     \\/     M anipulation  |
\*---------------------------------------------------------------------------*/
FoamFile
{
    version     2.0;
    format      ascii;
    class       volScalarField;
    location    "6720";
    object      H;
}
// * * * * * * * * * * * * * * * * * * * * * * * * * * * * * * * * * * * * * //

dimensions      [0 1 0 0 0 0 0];

internalField   nonuniform List<scalar> 
526318
(
0.719231
0.68008
0.752553
0.662639
0.73476
0.690259
0.703886
0.624018
0.6838
0.562214
0.542649
0.664719
0.608143
0.646896
0.610726
0.634856
0.607259
0.807773
0.714477
0.762003
0.756467
0.709978
0.472422
0.713451
0.594396
0.460713
0.730922
0.73631
0.73373
0.74995
0.77378
0.823337
0.806827
0.686242
0.685168
0.657312
0.65951
0.75391
0.682279
0.625387
0.685632
0.661977
0.324727
0.376134
0.278258
0.332064
0.304924
0.428944
0.611981
0.508751
0.595218
0.593346
0.546929
0.505342
0.00692995
0.246453
0.246921
0.0407883
0.764752
0.777501
0.795785
0.749517
0.696589
0.82177
0.817648
0.775099
0.766553
0.760642
0.670746
0.659593
0.769462
0.548914
0.605332
0.497593
0.452869
0.446024
0.544103
0.542016
0.454345
0.49062
0.574213
0.571339
0.527196
0.48504
0.515918
0.581716
0.579302
0.555922
0.500782
0.582202
0.482212
0.436001
0.435794
0.360925
0.355543
0.358633
0.360172
0.356752
0.353245
0.354514
7.97638e-05
2.15653e-06
0.000936237
5.97383e-05
0.000919045
0.000148343
0.273753
0.0633087
0.391743
0.349728
0.392754
0.512991
0.736205
0.624501
0.737637
0.744352
0.808276
0.788884
0.831967
0.351095
0.350373
0.352775
0.357551
0.311252
0.350494
0.261865
0.304629
0.214653
0.264033
0.215583
0.213223
0.204214
0.179373
0.170808
0.198939
0.139983
0.193891
0.144516
0.162911
0.106603
0.113921
0.135035
0.160787
0.147674
0.107332
0.104084
0.123151
0.105864
0.103228
0.113819
0.128159
0.112581
0.116461
0.123051
0.119866
0.0827562
0.11751
0.119055
0.0851587
0.0390706
0.119541
0.065419
0.127528
0.617575
0.709177
0.657387
0.639516
0.443722
0.51101
0.442692
0.445153
0.449072
0.440198
0.462534
0.447737
0.378658
0.35304
0.319021
0.257365
0.315799
0.359956
0.358347
0.359271
0.246318
0.298029
0.185058
0.194299
0.203704
0.193605
0.194802
0.198068
0.185479
0.18959
0.189376
0.176015
0.158931
0.186359
0.176155
0.143045
0.122731
0.152957
0.132884
0.128758
0.141565
0.131655
0.140795
0.104816
0.120911
0.151796
0.152891
0.600413
0.616703
0.648945
0.617281
0.60817
0.597733
0.603314
0.475623
0.517915
0.26562
0.246259
0.24174
0.365267
0.503539
0.375693
0.411075
0.417093
0.361523
0.335937
0.000528904
1.79886e-16
2.99427e-08
0.189027
0.00027704
9.76159e-09
0.000995694
0.000255125
0.000396609
0.000963311
0.815869
0.796809
0.842808
0.836775
0.805619
0.800834
0.707095
0.788826
0.633586
0.584034
0.578762
0.582587
0.580605
0.577833
0.56656
0.567635
0.479676
0.550584
0.364097
0.422691
0.35039
0.363373
0.00100536
4.55059e-11
0.000154997
0.00100202
0.000103589
0.000987509
7.49771e-07
0.00354047
0.367555
0.161062
0.413448
0.408704
0.52018
0.623733
0.746755
0.746784
0.780217
0.76421
0.830191
0.860004
0.331951
0.328811
0.288282
0.263181
0.15993
0.195122
0.12408
0.133612
0.123631
0.118515
0.108427
0.114423
0.0399031
0.06166
0.0980724
0.129002
0.194222
0.155192
0.11878
0.11669
0.0504968
0.0396947
0.0936898
0.144271
0.0682562
0.107952
0.10641
0.0765222
0.0734209
0.0408104
0.0388482
0.00121153
0.000642936
0.00359509
0.000825693
0.111961
0.150621
0.121089
0.155096
0.510278
0.475807
0.374239
0.464066
0.378695
0.4362
0.442561
0.432161
0.442134
0.445828
0.358082
0.268326
0.202589
0.177488
0.258934
0.196871
0.18615
0.296561
0.186909
0.237871
0.175664
0.177225
0.183258
0.175235
0.18764
0.18594
0.185608
0.186545
0.186853
0.189029
0.194812
0.188737
0.201812
0.195517
0.198141
0.176311
0.19377
0.173357
0.149281
0.148261
0.17648
0.207648
0.198503
0.17415
0.153755
0.180777
0.226127
0.220754
0.2333
0.199066
0.231871
0.252789
0.288899
0.234919
0.239875
0.266877
0.310532
0.422826
0.504534
0.416732
0.452252
0.531264
0.588531
0.504687
0.36672
0.476968
0.374215
0.40153
0.134147
0.0839565
0.111094
0.0970625
0.216802
0.336314
0.2677
0.336593
0.331024
0.357077
0.334675
2.95166e-09
0.000979078
0.000806996
5.78497e-06
0.000795383
0.000869138
0.000599399
0.00100998
0.000160582
0.00100962
0.000664765
0.00100889
0.000730728
0.000955715
0.000582482
0.000952703
0.840796
0.831847
0.86505
0.855535
0.833164
0.807274
0.729071
0.647838
0.583868
0.58853
0.570982
0.564394
0.546653
0.552039
0.529127
0.523411
0.477042
0.520167
0.44167
0.384765
0.330097
0.291132
0.0009658
0.00111525
0.00111539
0.000663073
0.000449176
0.000731205
0.000593853
0.000721985
0.00111488
0.00111518
0.000886058
0.00100984
0.000664574
0.00100942
0.00123647
0.00017911
0.000293726
0.000487392
0.000977135
0.00096135
7.31626e-08
0.000978536
0.000793614
1.85613e-05
0.0644417
7.58421e-08
0.275649
0.434083
0.446936
0.541324
0.75701
0.6528
0.773222
0.769949
0.78646
0.815419
0.847758
0.866426
0.245834
0.249949
0.201908
0.22756
0.168972
0.130173
0.122373
0.120833
0.118296
0.12331
0.0739225
0.0684485
0.0179252
0.0288514
0.0842461
0.057092
0.0301675
0.0721981
0.0682164
0.087912
0.0021079
0.000934801
0.0127862
0.0238571
0.0266208
0.000872566
0.000710394
0.000874582
0.00090539
0.000387281
0.000872478
0.27273
0.242018
0.250812
0.238889
0.266155
0.377131
0.332857
0.309736
0.186675
0.238552
0.223609
0.222106
0.136578
0.0578264
0.240955
0.360786
0.238284
0.244563
0.226958
0.31164
0.284524
0.361886
0.393245
0.316281
0.297145
0.332257
0.21012
0.185788
0.177882
0.183794
0.0994851
0.14743
0.0779282
0.0288502
0.0112792
0.129235
0.126749
0.175909
0.174899
0.17482
0.179589
0.178184
0.185246
0.182731
0.190205
0.182953
0.200039
0.189938
0.19887
0.200624
0.227281
0.215053
0.230101
0.240194
0.185464
0.16998
0.238146
0.219593
0.206305
0.228903
0.211013
0.19709
0.248665
0.228838
0.32328
0.332684
0.285861
0.325347
0.333797
0.306152
0.39643
0.364029
0.434754
0.454801
0.478705
0.39689
0.39945
0.396147
0.359649
0.340663
0.30555
0.401283
0.257844
0.223644
0.276113
0.302343
0.000786866
0.0270622
0.113527
0.226891
0.259718
0.296296
0.199294
0.167063
0.127646
0.0753231
0.000965631
0.000310861
1.42674e-06
1.84795e-07
0.000812409
0.00102195
0.000993891
0.000234006
0.00100979
0.000545241
0.00024476
0.000470015
0.000926911
0.000208943
0.000889372
0.000986846
0.000766556
0.000551352
0.000138864
0.000388285
0.00097475
0.00101
0.000137325
0.00100009
0.000976527
0.000354496
0.00111006
0.000994599
0.00108578
0.000947512
0.00110658
0.0011068
0.000853338
0.000999494
0.0009727
0.000201819
9.59135e-05
0.000989075
0.000892979
0.0009482
0.00100959
0.000881287
0.00100987
0.00100592
2.67802e-05
0.000982425
0.835832
0.843895
0.864184
0.855043
0.831641
0.760886
0.581708
0.666666
0.546702
0.552156
0.530033
0.530458
0.519207
0.521313
0.514482
0.513198
0.455916
0.430193
0.333244
0.370306
0.229107
0.267172
0.000912813
0.000624444
0.000948563
0.000967574
0.000969466
0.000982262
0.000986514
0.000879074
0.000998153
0.0006804
0.000677989
0.000965569
0.000971308
0.000759356
0.000380116
0.000991326
0.000690401
0.00100737
0.000803925
0.000839513
0.000369052
0.000975289
0.000889611
0.000439439
0.000917861
0.00068906
0.00101
0.000641909
9.13678e-06
6.82991e-05
0.00055368
0.000719123
0.00108381
0.000926434
0.247292
0.0842786
0.457629
0.417579
0.481346
0.588411
0.691876
0.771328
0.785132
0.770782
0.81401
0.846159
0.830602
0.829592
0.00118971
0.000888473
0.000886173
0.00030154
0.000993578
0.000922867
0.00081396
0.000933755
0.000890554
0.000725685
0.000975785
0.00092383
0.000794854
2.99799e-07
0.000836048
0.00101
0.000170373
0.228586
0.226872
0.229
0.19297
0.113746
0.150236
0.074587
0.0687963
0.0307212
0.0250086
0.000763012
0.000208805
0.0115927
0.00709995
0.000948265
0.00301055
0.000843451
0.0496623
0.0286447
0.0302225
0.000813628
0.000921773
0.000703425
0.000845589
0.000779547
0.000818397
0.000964289
0.000555971
0.000325844
0.000996791
0.000920408
0.000390313
0.47319
0.434108
0.4777
0.484767
0.433136
0.396305
0.558266
0.584957
0.646953
0.653259
0.200053
0.241651
0.290366
0.380755
0.20879
0.149489
0.183571
0.181747
0.0209774
0.0673264
0.121277
0.00983739
0.225618
0.222817
0.22264
0.226119
0.248015
0.221087
0.235542
0.25762
0.131281
0.131148
0.0231901
0.115142
0.112446
0.059735
0.0201535
0.0251188
2.92438e-43
1.84747e-05
0.000972569
0.0642994
0.125012
0.0566646
0.126906
0.177632
0.18008
0.18023
0.17962
0.180757
0.194991
0.190527
0.210223
0.206041
0.231108
0.225604
0.241981
0.242282
0.242654
0.23956
0.25529
0.252524
0.282709
0.257702
0.23209
0.232077
0.288873
0.256004
0.260368
0.303573
0.345137
0.341841
0.352259
0.349791
0.384913
0.433305
0.495651
0.512068
0.52425
0.498786
0.641672
0.584292
0.705434
0.747944
0.739168
0.77629
0.834339
0.696387
0.78295
0.807654
0.882584
0.930277
0.959565
0.979548
1.00853
0.954847
1.00928
0.967524
1.04687
1.04761
1.09609
1.06503
1.12542
1.15544
1.14529
1.09264
1.15913
1.18102
1.15039
1.14346
1.2107
1.1886
1.21647
1.15911
1.15932
1.22318
1.1914
1.14433
1.14411
1.17478
1.20709
0.20326
0.165905
0.336774
0.330201
0.303786
0.293736
0.294612
0.0572004
0.194619
0.000939992
0.000456548
0.0267058
0.0143756
0.000958771
0.000199386
0.000522554
0.130968
0.0307572
0.0312375
0.000567569
0.000850533
0.000621919
0.000608024
0.000348275
0.00101
5.27544e-07
5.8384e-05
9.70941e-06
5.35186e-05
0.00101
0.000966006
0.000995857
0.000635416
1.78384e-05
0.00147934
0.000842141
0.000928041
0.000844807
0.000691483
0.000286339
0.00069126
0.000943677
0.000831092
0.0012574
0.000568978
0.00012748
0.000146108
0.000949
0.000431299
9.77421e-06
1.61879e-05
0.000990101
0.000932549
0.00100929
0.000953976
0.000911134
0.000410555
0.000780742
0.00106286
0.00115457
0.000876999
0.000992524
0.00106216
0.000989455
0.0009823
0.00101
0.00057983
0.000999498
0.000955919
0.00103871
0.00103879
0.00101015
0.000985387
0.00103888
0.0010386
0.00046961
0.000620894
0.00101
0.000773625
0.000908767
0.000377029
0.000991017
0.000960908
0.00100983
0.00100977
0.000136678
0.000972481
0.000950381
0.000921886
0.000915695
0.000919934
0.000736534
0.00115178
0.000730082
0.000968314
0.82026
0.812861
0.78345
0.782502
0.69931
0.771406
0.599785
0.526691
0.523461
0.519531
0.519398
0.52196
0.461366
0.46447
0.309314
0.271902
0.227311
0.403506
0.399674
0.353822
0.350523
0.351783
0.000647301
0.000453997
0.00105056
0.00105051
0.000962471
0.000414864
0.000711517
0.000410365
0.00105051
0.000979847
0.000161511
0.00100893
0.000972717
0.000941946
0.000297472
0.000985833
0.000726155
0.00091818
0.00021426
0.00071546
0.000518457
0.000951565
0.00126051
0.00126073
3.81621e-05
7.03548e-06
0.000173386
0.00107777
0.0769966
8.59887e-08
0.24937
0.412724
0.446156
0.473588
0.555294
0.6715
0.736647
0.711785
0.75845
0.690118
0.742786
0.783439
0.741105
0.733982
0.00122471
0.000930767
0.00101
0.000849207
0.000996142
0.00119912
0.000757584
0.000799196
0.00119913
0.000952606
0.000973001
0.00100941
3.82915e-05
1.14836e-05
0.000914381
0.000376971
3.31832e-06
0.000656439
0.00098774
0.000236686
0.000248866
0.000894374
0.00096459
0.000795867
0.00110021
0.00100982
0.199626
0.203606
0.123301
0.141553
0.0178781
0.0402278
0.000791182
7.17906e-05
0.000728814
0.00160012
0.000275067
0.000751573
0.000687394
0.000630537
0.000120221
0.000554905
0.0203961
0.000929019
0.0207341
0.0204052
0.000528985
0.0002975
0.000354066
0.0008342
0.00030944
0.000950196
0.000717662
0.000602104
0.000980152
0.000764758
0.001237
0.000732337
0.688065
0.685703
0.51836
0.432595
0.424212
0.407545
0.687255
0.596954
0.846064
0.922851
0.818997
0.738558
0.938295
0.920164
0.985836
1.03361
1.06355
1.06239
1.09114
1.06263
1.11569
1.14491
1.1388
1.13925
1.15714
1.1452
1.14548
1.18983
1.13244
1.12731
0.248531
0.180511
0.318354
0.39408
0.188239
0.125093
0.18045
0.183555
0.0110901
0.0655905
0.000501073
0.0635782
0.000930493
0.224624
0.167409
0.223898
0.219492
0.225288
0.117432
0.0215396
0.000950467
2.91115e-17
7.96872e-06
0.00101386
1.66327e-240
1.84087e-28
1.81001e-06
0.000998818
0.000916766
0.000820415
3.63154e-05
0.00322068
0.0705115
0.0215303
0.124283
0.0763526
0.111283
0.169178
0.202485
0.177974
0.216533
0.213632
0.228835
0.218837
0.247157
0.261216
0.254257
0.269574
0.275472
0.28161
0.310791
0.322641
0.316911
0.309223
0.308918
0.307024
0.330142
0.340898
0.393118
0.383956
0.340567
0.379801
0.378132
0.402952
0.438843
0.499602
0.529347
0.533002
0.544454
0.609684
0.697539
0.768653
0.783234
0.909498
0.781764
0.837115
0.985944
1.00814
1.00968
1.04675
1.09531
1.14502
1.15489
1.15735
1.18624
1.21317
1.23891
1.23837
1.2387
1.23878
1.23888
1.21956
1.15875
1.222
1.18703
1.14028
1.14404
1.17333
1.20748
1.2165
1.14136
1.20431
1.16311
0.000752494
0.000345472
0.0535519
0.127162
0.0184359
0.0853263
0.223634
0.159554
0.179212
0.019106
0.000834835
2.02559e-06
0.000762416
0.00199941
1.74633e-05
7.88356e-05
1.58262e-05
0.000170278
0.000978156
0.00136333
0.00136406
0.000284872
0.00031824
0.000184832
0.000999876
0.000871197
0.000795729
0.000978231
0.000937117
0.00134105
0.00134095
0.00086849
0.000172666
0.00064344
0.00147905
0.000981197
0.000810352
0.000478021
0.000315336
0.000558681
0.00101
0.00079704
0.00125705
0.000928609
0.00101
0.000689123
0.000660221
0.000998234
0.000701989
0.000865625
0.000874495
0.00105254
0.000949501
0.000796769
0.000751098
0.000990039
8.20965e-05
0.00099613
0.000976554
0.000151024
0.000650036
0.000544652
0.000936558
0.000816347
0.000896194
0.000766475
0.000993967
0.000978339
0.000943996
0.000974885
0.00092222
0.000224773
0.0012499
0.000928473
0.00102983
0.000781321
0.00100962
0.000641972
0.000367709
0.000916152
0.000960434
0.000959745
0.000892128
0.000612393
0.000479733
0.733347
0.732753
0.71418
0.721688
0.647983
0.714183
0.518032
0.586509
0.47946
0.484957
0.424418
0.408678
0.35123
0.354011
0.268106
0.163948
0.138111
0.308688
0.354688
0.356187
0.351168
0.352594
0.00105069
0.000919923
0.00105071
0.000391763
0.000973634
0.000973647
0.00094649
0.000972052
0.00100548
0.000830393
0.000135327
0.000443538
0.00093376
0.000997208
0.00060297
0.00100999
0.00098232
3.53596e-05
0.000985985
0.000873381
0.000276721
0.000600262
0.000655599
0.00101
0.000321117
3.32274e-05
0.00016739
0.000967041
0.145828
6.56433e-08
0.28384
0.41949
0.392385
0.501594
0.670474
0.571782
0.648357
0.649562
0.640484
0.670924
0.728583
0.721059
0.726087
0.700392
0.000769413
0.000922585
0.000573493
0.000958878
0.000712787
0.000933944
0.000627141
0.000414404
0.000815963
0.000879841
0.000957505
0.00103631
0.000971721
7.07863e-06
0.000915771
0.000873917
0.00096514
0.000987798
0.000817615
0.00106595
0.000474228
0.00106501
0.00107033
0.000901385
0.00101
0.000860782
0.000668131
0.000489708
0.000136748
5.27225e-05
0.00098545
0.0767812
0.0764422
0.0415676
0.0190652
0.00032935
0.00102171
0.000956993
0.000442717
0.119581
0.0635987
0.0408887
0.000187059
0.0009323
0.000408908
0.00100989
0.00133452
0.00133457
0.000251386
0.00059162
0.000528008
0.000807948
0.000901524
0.000801456
0.000830286
0.000589238
0.000349619
0.000337833
0.000587295
0.00100971
1.30661e-05
0.00052455
0.000737284
0.000689738
0.000594218
0.000809643
1.2644
1.27134
1.30445
1.27719
1.32354
1.30937
1.33805
1.32251
1.38143
1.36857
1.33341
1.38622
1.35291
1.40577
1.23264
1.18376
1.20382
1.25404
1.23649
1.20619
1.20893
1.26206
1.26472
1.2412
1.22172
1.27389
1.259
1.26814
1.29249
1.14258
1.1449
1.1438
1.14195
1.15746
1.17908
0.735725
0.673856
0.57814
0.48463
0.391463
0.476976
0.67031
0.652579
0.892222
0.919805
0.800765
0.887741
0.927491
0.974855
1.02227
1.06233
1.0601
1.06142
1.05517
1.0878
1.10115
1.12527
1.11239
1.11536
1.12049
1.13291
1.10543
1.10558
0.296077
0.232495
0.176481
0.166879
0.221721
0.390531
0.373414
0.0967514
0.160033
0.0376578
0.000530481
1.2485
1.26982
1.28672
1.29297
1.29868
1.31127
1.31187
1.34066
1.32578
1.34322
1.34272
1.39613
1.41543
1.44106
1.44048
1.44329
1.45507
1.47587
0.000491662
0.000591549
0.00141023
0.151789
0.0386957
0.206571
0.108172
0.0274903
0.00122977
1.98211e-15
0.00122989
0.00122976
0.000150505
0.000231524
0.000608436
0.000634227
1.56935e-49
6.10001e-120
0.000756256
0.000805344
0.000395231
0.0192644
0.0203811
0.0197476
0.0732395
0.0334328
0.154783
0.104818
0.191688
0.15258
0.197572
0.216891
0.240788
0.261192
0.288924
0.286566
0.296457
0.291061
0.347184
0.334919
0.334021
0.326529
0.377343
0.347228
0.41906
0.382172
0.361173
0.406687
0.457459
0.442687
0.464395
0.500007
0.500328
0.449282
0.554314
0.589022
0.558256
0.543507
0.630335
0.708612
0.785183
0.849356
0.796787
0.817753
0.947212
1.00179
1.04611
1.02743
1.09083
1.1236
1.16297
1.17848
1.17281
1.1904
1.24965
1.23106
1.24171
1.2496
1.24131
1.24001
1.23977
1.2379
1.23821
1.23917
1.23827
0.000973568
2.10033e-05
0.00186219
0.000888565
0.000309689
0.000236059
0.000606232
0.0294891
0.000741564
0.000849374
0.000841991
0.000992538
9.25013e-05
0.000514143
0.00141016
0.000996512
0.000243313
9.59553e-05
4.28478e-05
0.00135957
0.000683747
0.00038011
0.00092364
0.0001026
0.000735431
0.00014751
0.000728231
0.000792481
0.00112506
0.000956431
0.00134058
0.000825827
0.00105063
0.00098241
0.000776109
0.00096702
0.000896738
0.000998449
0.00026155
0.000888291
0.00100984
0.000894905
0.00112474
0.000405973
0.000398457
0.000668916
0.000992443
0.000269368
0.000740386
2.1494e-10
4.5565e-07
0.00239344
0.000384252
0.00102193
0.000694792
0.000545923
0.000997667
0.0003892
0.00100993
0.000972649
0.000977525
0.000963111
0.000999516
0.000713328
0.0010998
0.000810559
0.000766984
0.000994095
0.000845918
0.00109939
0.00089779
0.000955844
0.000631827
0.000258775
0.000775118
0.000964465
0.000941166
0.000838222
0.00101
0.000334973
0.000769708
0.000685233
0.000978177
0.000925692
0.000935309
0.00091428
0.00091709
0.000695524
0.000567275
0.00194436
0.000216324
0.000674617
0.000835469
0.000995696
0.00194343
1.43546
1.40103
1.36307
1.47099
1.50163
1.49998
0.713385
0.713459
0.700643
0.697613
0.618876
0.686122
0.520062
0.435897
0.368148
0.384636
0.352193
0.352393
0.352762
0.352621
0.229848
0.142594
0.237326
0.317723
0.318381
0.00093523
0.000821646
0.000875173
0.000890082
0.00093873
0.0009764
0.000965395
0.000493094
0.000931051
0.000554111
0.00100943
0.00103785
0.000996331
0.000968182
0.000313169
0.000682886
0.00100998
0.000498781
0.000128694
0.000927014
4.59314e-06
0.000274235
0.000921556
0.000785239
0.00052174
0.000783296
0.000978157
0.116724
0.263005
0.373152
0.372917
0.692011
0.609501
0.627436
0.410341
0.499967
0.589581
0.641495
0.645089
0.641091
0.660059
0.68898
0.681665
0.000731936
0.00113252
0.000622457
0.000982796
0.000728292
0.000720222
0.00100904
0.000845157
0.000731416
0.000951909
0.000817811
0.000932446
0.000763197
0.000834556
0.00100996
0.000845504
0.000736869
0.00101084
0.00097287
0.000892783
0.000930784
0.000682923
0.000770427
0.000937995
0.000997599
0.000994338
0.0003406
0.00103343
0.00095767
0.000973622
0.00101
0.000984843
0.000871643
0.000978065
0.000827832
0.00111771
0.000969107
0.076209
0.111793
0.0980634
0.0429832
0.0419153
0.0152336
0.0348955
0.000182089
0.0007164
0.000278868
0.000919076
0.0478665
0.0371505
0.000406768
0.000961184
0.000612942
0.000962556
0.000490688
0.000432878
0.000753925
0.000136085
7.42918e-05
0.00065721
0.000224512
0.00097778
5.79952e-05
0.000680105
0.000702988
0.000420221
0.000653842
0.000551523
0.000693939
9.93495e-05
0.000358069
0.000994303
6.34787e-05
0.000979051
1.26404
1.282
1.30123
1.32302
1.32729
1.3288
1.37272
1.34858
1.196
1.19303
1.17826
1.19918
1.23473
1.19698
1.23826
1.21732
1.13142
1.11858
1.11969
1.14692
1.17514
1.14933
0.740338
0.659403
0.557962
0.650718
0.502481
0.400807
0.662275
0.661554
0.898347
0.906065
0.919627
0.813189
0.891105
1.00715
0.952984
0.89201
0.937338
1.03763
1.05201
1.04325
1.05004
1.05694
1.08039
1.1054
1.09777
1.10294
1.10844
1.10675
1.10494
1.10342
1.1023
0.149152
0.15798
0.289266
0.370054
0.148146
0.234171
0.390278
0.400202
0.142682
0.084735
8.30083e-05
0.0627326
1.27948
1.24023
1.25721
1.30332
1.30291
1.30541
1.313
1.33671
1.35869
1.37078
1.37126
1.37683
1.40336
1.43922
1.42356
1.43767
1.45453
1.50441
1.47379
1.31023
1.32246
1.33807
1.50422
1.49909
1.50128
0.00140964
0.00140955
0.00140976
0.000312401
0.00053602
0.000680931
0.000645886
0.000928091
0.00061952
0.000659527
0.000757232
0.000881632
0.000636162
0.00117599
0.000643264
0.00117595
0.000969713
4.64443e-06
0.000753117
2.53082e-09
0.00179632
0.000935211
0.0226372
0.00091951
0.0974634
0.126094
0.0565297
0.0913685
0.154898
0.121358
0.248964
0.193568
0.268157
0.276728
0.281481
0.26902
0.317556
0.36204
0.39613
0.398151
0.404991
0.395653
0.411734
0.399843
0.449918
0.452765
0.476667
0.470935
0.450831
0.451637
0.576915
0.620269
0.519227
0.577604
0.631238
0.596402
0.692169
0.738708
0.837795
0.876479
0.852309
0.947531
0.997982
1.09865
1.08488
1.14425
1.11561
1.20999
1.21624
1.20895
1.23936
1.26699
1.26522
1.32306
1.28752
1.31492
1.27811
1.27706
1.31221
1.24487
1.28114
1.24184
0.000278737
5.44999e-06
0.000809039
0.000599838
0.000769361
0.000964183
0.00057408
7.33145e-07
0.00101
0.000199154
0.000148471
0.000512431
0.000164456
0.000632165
0.000513211
0.000343263
0.000707786
0.000124347
0.000302915
2.84825e-05
0.000124015
4.98173e-05
5.50518e-07
0.000282753
0.000978557
0.000989512
0.000999883
3.91046e-05
0.0011248
0.00112477
0.000996179
0.000995782
0.000992745
3.82214e-05
0.00101
0.000912008
0.0010004
0.000112849
0.00044385
0.000919656
1.0006e-05
0.000297927
0.0020643
3.74264e-06
0.000984734
6.96658e-05
0.0009581
0.000364482
0.000978222
3.20685e-05
0.00098111
0.00220775
0.000998713
0.000134455
0.000963575
0.00116382
0.00118636
0.000437161
0.00100983
0.000979813
0.000465046
0.000983408
0.000969573
0.000835887
0.0010995
0.00109942
0.000938621
0.000910836
0.00109939
0.0010994
0.000955402
0.000713989
0.000711032
0.000919589
0.00140064
0.000101345
0.00140041
0.000880089
0.00098702
0.000966821
0.000989182
0.00100119
0.00104964
0.00105036
0.00082212
0.000805878
0.000827454
1.22783e-05
9.12481e-06
0
0.000998531
0.000799517
0.000430028
0.000877047
0.00118628
0.000898711
0.00100958
0.00100997
0.000965995
0.000998553
0.000946811
0.000914726
0.00101
1.4097
1.39979
1.40156
1.40395
1.44008
1.55295
1.51968
1.51971
1.55078
1.48547
0.62086
0.60871
0.544743
0.543259
0.503633
0.537398
0.443903
0.399048
0.385638
0.35178
0.326585
0.325699
0.237767
0.249216
0.117284
0.156958
0.157761
0.000529692
0.000965684
0.000913493
0.00101
0.000991321
0.000917688
0.000585991
0.00119069
0.0911982
1.28078e-06
0.000919443
0.000220381
0.000954139
0.000961382
1.54375e-06
0.000368616
0.00101
0.000973131
0.000924496
0.00102223
0.000849804
0.00099284
0.000944045
0.000847483
0.00025022
0.486685
0.49006
0.530354
0.232283
0.374537
0.371584
0.40949
0.533696
0.599143
0.561525
0.474701
0.552687
0.581444
0.585339
0.506581
0.533647
0.000957717
0.000985325
0.00113257
0.00102141
0.000632129
0.000832041
0.00101
0.00118913
0.000989767
0.000995286
0.000160682
0.000884826
0.000827345
0.000936631
0.000510229
0.00148469
0.00148473
0.000990953
0.000658448
0.000985101
0.000795041
0.00101084
0.000850404
0.000970436
0.000928968
0.00101682
0
0
0
0.000939788
0.00105446
0.000971323
0.00100563
0.000960895
0.000473953
0.000983298
0.000981389
0.000963917
0.00097325
0.000338297
0.000895901
0.000914242
0.000953661
0.000987215
0.000970667
0.096697
0.107587
0.114266
0.00022642
0.00522424
0.000681617
0.000963237
0.000973332
0.00075147
0.000931021
0.000479969
0.00104506
0.00204505
0.000514327
0.000499652
0.000406739
0.000492844
0.000242686
0.000584634
0.000389242
0.000912833
0.000270985
0.000575667
0.000666396
0.000877991
0.000910613
6.96644e-07
0.000157889
0.00114053
0.000597243
0.00115137
0.000312228
0.000747328
0.000743731
0.000346646
0.00101
0.000942721
0.000628163
0.00114043
1.27457
1.22402
1.30907
1.26427
1.26826
1.32213
1.29907
1.36808
1.29852
1.39133
1.31957
1.32745
1.3966
1.36471
1.15992
1.15748
1.15075
1.16385
1.17981
1.18933
1.19435
1.20478
1.11003
1.10673
1.12785
1.11497
1.14278
1.15316
0.740562
0.666167
0.582643
0.665733
0.454651
0.548543
0.665426
0.670767
0.889628
0.891886
0.890551
0.821135
0.980641
1.03066
0.939079
0.890613
1.03774
1.03548
1.05126
1.03431
1.07579
1.09656
1.10407
1.10712
1.10613
1.09957
1.10442
1.10542
1.10093
1.09866
0.147123
0.139762
0.304248
0.389629
0.2845
0.204863
0.440792
0.386745
0.115387
0.140338
0.111747
0.0253227
1.28126
1.31537
1.29922
1.32453
1.34244
1.33356
1.36719
1.38033
1.35808
1.3735
1.36118
1.37291
1.37825
1.40193
1.42327
1.43464
1.43956
1.48611
1.46087
1.51469
1.51489
1.39534
1.40756
1.52182
1.52878
0.000415286
0.00011381
0.000696944
0.000551543
0.000525579
9.3846e-05
0.000260243
0.000210422
0.00101
1.00585e-05
0.000927799
0.000258474
0.000644442
0.000657476
5.07035e-06
0.000780461
0.00179626
0.000522169
0.000872027
0.000687083
0.000534261
2.03578e-16
0.016208
3.33677e-186
0.114437
0.1103
0.0749258
0.0300872
0.144147
0.197208
0.242342
0.240289
0.254488
0.239691
0.369063
0.306037
0.415341
0.408514
0.431186
0.440711
0.413943
0.470859
0.514311
0.487893
0.47113
0.493636
0.548879
0.535912
0.513466
0.553811
0.641655
0.645807
0.635058
0.655846
0.789597
0.700992
0.872379
0.899051
0.901169
0.965978
1.04203
1.11826
1.12482
1.13852
1.18496
1.23173
1.268
1.26555
1.30545
1.28113
1.33426
1.34742
1.35042
1.34863
1.35069
1.34939
1.31647
1.35109
1.31672
0.000849894
0.000127491
0.00643455
0.00102552
0.000693696
7.73581e-05
0.000686777
0.000538285
0.00079675
0.000700239
0.00101
0.00128522
0.000602346
0.00128499
0.00128548
0.00128568
0.00128517
0.000996441
0.00128558
0.00625401
0.000981441
0.000638589
0.000184916
0.00204383
0.000431556
0.00204415
0.00204403
0.000406554
0.000253854
0.00100217
0.000993637
0.000687571
0.000856518
0.000791041
0.00101
0.00104136
0.000780531
0.000959982
0.00100986
0.000887496
0.000962023
0.000977761
0.00181867
0.000994076
0.000146754
1.36216e-05
0.000607696
0.00096357
0.000988249
0.000479144
0.000826696
0.000958861
0.00100941
0.00031059
3.98503e-05
0.000987756
0.00100992
0.000817418
0.000560979
0.00081621
0.00101
0.000799183
0.000971931
0.000279366
0.000904827
0.00095865
0.000984126
0.000998751
0.000952709
0.000941374
0.000886752
0.00100949
0.00097168
0.000773375
0.000984106
0.000952799
0.000744687
0.00098992
0.000934564
0.000964099
0.000974876
0.000974485
0.00109014
0.00099449
0.000905098
0.00050853
0
0
0
0
0
0
0
0
0
0
0
0
0
0
0
0
0
0
0
0.00099334
0.000900318
0.000937661
0.000812305
0.000909553
0.000434354
0.000930589
0.00106648
0.000325168
0.000811332
0.00035232
0.000878445
1.57307
1.56912
1.58394
1.56573
1.5806
1.58074
1.42083
1.40614
1.4847
1.4508
1.5365
1.56396
1.55054
1.45031
1.41001
0.486284
0.483027
0.4866
0.474739
0.48578
0.418166
0.460134
0.249298
0.30082
0.168296
0.168152
0.117342
0.118605
0.115642
4.53839e-05
0.000866708
0.000495047
0.000982711
0.000833353
0.113033
0.000307665
0.000961728
0.000977449
0.000687666
0.000686377
0.000984192
0.000961616
0.000962997
0.00097202
0.000717645
0.000335301
0.000983795
0.00101
0.000213894
0.00100974
0.000932938
0.0004632
0.000593692
0.489037
0.486199
0.48682
0.48482
0.488901
0.199853
0.316417
0.260445
0.376785
0.437204
0.465914
0.396742
0.477451
0.432164
0.4271
0.417928
0.000954778
0.00113465
0.000717863
0.000970576
0.000973219
0.000935143
0.000868629
0.00101489
0.000145112
0.000882324
0.00101382
0.000628504
6.92933e-05
0.000527482
0.000989954
0.000516055
0.000763669
0.000753016
0.000999076
0.00101578
0.000821117
0.000952384
0.000740767
0.000726241
0.000621516
0.00100972
0.000684552
0.000984662
0.000351873
2.15212e-05
0
0
0
0
0
0.000928623
0.00105456
0.000978274
0.00105436
0.000956566
0.000918145
0.000786567
0.000898052
0.000952909
0.00100113
0.000949535
0.000953825
0.00102436
0.000998824
0.000787048
0.000895144
0
0
0
0
0
0
0.0918141
0.0232201
0.0109231
0.000583582
0.000778355
0.000680509
0.00078824
0.000960083
0.000791447
0.000311719
0.00100956
0.000875146
0.000375808
0.000550644
0.00033854
0.000760208
0.000752664
0.000795758
0.000905726
0.000971356
0.000983361
6.51335e-05
0.000982258
3.63819e-05
0.000486704
0.00073218
0.000634249
0.000404769
0.000958393
0.00027789
0.000629429
1.31742e-05
0.000467482
0.00184303
0.00184209
0.000684345
0.000959699
0.000281529
0.000798649
0.00100972
0.000818552
1.21784
1.22455
1.23012
1.23313
1.24679
1.23487
1.30958
1.32823
1.30615
1.28772
1.37322
1.3351
1.31853
1.14993
1.15002
1.17592
1.16705
1.18768
1.19306
1.21754
1.20355
1.10895
1.11819
1.1423
1.12282
1.136
1.1435
0.780448
0.707809
0.627232
0.662964
0.609751
0.519115
0.702751
0.666484
0.895343
0.894387
0.859229
0.897606
0.98551
1.03735
0.897018
0.946155
1.03866
1.03853
1.06167
1.03942
1.08142
1.09989
1.10679
1.09424
1.10346
1.0943
1.10369
1.09621
1.09938
1.09456
0.137289
0.201291
0.390614
0.361962
0.284258
0.36594
0.38787
0.465218
0.131694
0.131735
0.125586
0.0382825
5.3971e-05
2.15258e-05
0.00399766
1.348
1.3527
1.38052
1.3715
1.39663
1.40924
1.40779
1.40933
1.4463
1.42647
1.43758
1.40568
1.43704
1.44672
1.46803
1.48844
1.49658
1.49795
1.54559
1.54978
1.57305
1.55182
1.46518
1.47159
1.58669
1.57956
0.00016622
0.000334169
0.00101
8.22958e-06
0.000729054
0.00122759
0.00122738
0.000980377
0.000305007
0.000141301
0.000151808
0.00194323
0.00120244
0.000539737
0.000822227
0.000856699
0.00100232
0.000626775
0.000320397
0.000824137
8.63116e-05
0.000995528
0.000301624
0.000388819
0.000992302
0.0611483
0.127969
0.00730891
0.22791
0.170806
0.234142
0.240083
0.335732
0.274659
0.398692
0.430582
0.424816
0.437038
0.55771
0.518348
0.491678
0.545388
0.569388
0.560133
0.551082
0.546532
0.56672
0.55867
0.641576
0.680813
0.719996
0.67427
0.720704
0.746714
0.885937
0.820699
0.913876
0.899009
0.979948
1.05407
1.14094
1.1357
1.17254
1.20676
1.2825
1.27507
1.29492
1.30248
1.33131
1.34004
1.36045
1.35122
1.36511
1.35894
1.34998
1.36225
1.34926
1.35014
0.000963631
0.000864682
0.00101
0.00067133
0.00095441
0.000657298
0.000566723
0.000789161
0.000642839
0.00128295
0.000345365
0.000777264
0.000295436
0.00128345
0.00129752
0.00127943
0.00129669
0.00128529
0.00128662
0.000311423
0.000371652
0.00100461
0.000689527
0.000938422
0.000788581
0.00100179
0.000928184
0.000997704
0.000180038
0.000954666
0.000624923
0.00101
0.000209386
0.000613088
0.00100863
0.00104138
0.00066333
0.000881619
0.000974615
0.00386636