/*--------------------------------*- C++ -*----------------------------------*\
  =========                 |
  \\      /  F ield         | OpenFOAM: The Open Source CFD Toolbox
   \\    /   O peration     | Website:  https://openfoam.org
    \\  /    A nd           | Version:  8
     \\/     M anipulation  |
\*---------------------------------------------------------------------------*/
FoamFile
{
    version     2.0;
    format      ascii;
    class       volScalarField;
    location    "7380";
    object      Hclip;
}
// * * * * * * * * * * * * * * * * * * * * * * * * * * * * * * * * * * * * * //

dimensions      [0 1 0 0 0 0 0];

internalField   nonuniform List<scalar> 
526318
(
0.705921
0.660069
0.733745
0.643629
0.718987
0.672921
0.688409
0.602765
0.669532
0.541647
0.524921
0.645627
0.589218
0.634758
0.590115
0.618052
0.591099
0.791282
0.699003
0.743122
0.738059
0.692353
0.453298
0.692103
0.582127
0.447943
0.715987
0.715623
0.718996
0.730848
0.759208
0.80488
0.789167
0.669982
0.668566
0.642412
0.643167
0.736812
0.664222
0.605209
0.668733
0.639511
0.306777
0.357157
0.271572
0.317749
0.286971
0.405626
0.58747
0.486462
0.574762
0.573772
0.530124
0.490453
0.001
0.237253
0.223717
0.0310744
0.745359
0.758844
0.776997
0.73144
0.676063
0.803758
0.799634
0.760689
0.747626
0.747465
0.650213
0.64209
0.759342
0.53232
0.589262
0.479948
0.433561
0.429225
0.527022
0.523287
0.437375
0.474951
0.555116
0.554373
0.510676
0.465966
0.491722
0.563744
0.562642
0.545244
0.482559
0.563352
0.465493
0.413247
0.417863
0.336551
0.339929
0.34235
0.341765
0.339119
0.335774
0.330784
0.001
0.001
0.001
0.001
0.001
0.001
0.238173
0.0683807
0.370423
0.340445
0.375546
0.491386
0.71406
0.609002
0.720261
0.729527
0.794204
0.769227
0.815802
0.332316
0.331381
0.336433
0.338286
0.29282
0.331504
0.244889
0.284331
0.196462
0.244966
0.195369
0.195436
0.182031
0.15996
0.152389
0.180508
0.121008
0.174919
0.12331
0.143561
0.0880976
0.0936051
0.116805
0.144374
0.131909
0.0861216
0.0878741
0.104017
0.0888585
0.0871586
0.0938179
0.107537
0.0957798
0.0964006
0.0966648
0.0987815
0.0636392
0.099225
0.0964043
0.0641273
0.021809
0.0984125
0.047574
0.106534
0.597042
0.693401
0.6378
0.624954
0.424601
0.49763
0.426793
0.425038
0.42577
0.42855
0.447936
0.429592
0.364221
0.33361
0.300158
0.237532
0.298594
0.341149
0.341401
0.340502
0.227323
0.279655
0.165906
0.174489
0.184758
0.174493
0.178015
0.1794
0.170181
0.171752
0.167009
0.15486
0.138695
0.161456
0.154802
0.130382
0.106994
0.13132
0.115815
0.112766
0.128521
0.118908
0.119258
0.086581
0.102117
0.133909
0.13087
0.587584
0.601053
0.630946
0.607156
0.589975
0.586058
0.585779
0.458257
0.500835
0.244315
0.229862
0.222468
0.344758
0.483653
0.3561
0.397439
0.393134
0.340803
0.325019
0.001
0.001
0.001
0.166126
0.001
0.001
0.001
0.001
0.001
0.001
0.797405
0.777186
0.823787
0.818991
0.792418
0.78086
0.686209
0.774382
0.617227
0.564819
0.558328
0.562999
0.56207
0.564209
0.554355
0.542753
0.464653
0.524926
0.346879
0.405511
0.334528
0.343738
0.00100536
0.001
0.001
0.00100202
0.001
0.001
0.001
0.001
0.341498
0.162557
0.389407
0.391818
0.500543
0.606184
0.730571
0.728072
0.766664
0.746508
0.809494
0.844948
0.31393
0.308681
0.271166
0.245691
0.14165
0.178972
0.106746
0.118023
0.107332
0.0992369
0.087871
0.0944283
0.0198827
0.0409388
0.0767683
0.114567
0.167014
0.127927
0.100594
0.0992335
0.0330119
0.0227667
0.0734014
0.12371
0.0500548
0.0890838
0.0882776
0.0584649
0.0528521
0.0191501
0.0145522
0.001
0.001
0.001
0.001
0.0955466
0.127538
0.103261
0.130952
0.495767
0.460321
0.358081
0.442919
0.36371
0.419648
0.431157
0.413945
0.429571
0.424731
0.340309
0.250361
0.183427
0.162261
0.241056
0.179308
0.170046
0.279943
0.169386
0.219974
0.155872
0.161027
0.167304
0.158158
0.173945
0.164245
0.163353
0.168419
0.167612
0.165058
0.177417
0.172057
0.1818
0.178128
0.17871
0.161448
0.169675
0.153886
0.126555
0.129723
0.157763
0.187762
0.178379
0.154761
0.145294
0.166105
0.209951
0.209902
0.229367
0.184072
0.220094
0.231646
0.270154
0.232275
0.223469
0.250851
0.272051
0.400081
0.477964
0.404041
0.439224
0.505633
0.569838
0.485738
0.344206
0.465876
0.360732
0.382907
0.117288
0.0580953
0.0943571
0.0712077
0.200668
0.317261
0.25174
0.315565
0.320609
0.337413
0.320242
0.001
0.001
0.001
0.001
0.001
0.001
0.001
0.00100998
0.001
0.00100962
0.001
0.00100889
0.001
0.001
0.001
0.001
0.822324
0.811849
0.844943
0.837482
0.818054
0.787954
0.709971
0.626906
0.56572
0.572063
0.5467
0.548184
0.52935
0.536928
0.51146
0.509654
0.465625
0.504507
0.421269
0.368668
0.311682
0.27444
0.001
0.00112321
0.00112315
0.001
0.001
0.001
0.001
0.001
0.001123
0.0011235
0.001
0.00100984
0.001
0.00100942
0.00122227
0.001
0.001
0.001
0.001
0.001
0.001
0.001
0.001
0.001
0.0473752
0.001
0.245527
0.416573
0.427695
0.524437
0.740883
0.636283
0.759702
0.752043
0.76887
0.798468
0.827607
0.850828
0.228145
0.233066
0.185292
0.211978
0.149859
0.11479
0.10529
0.104071
0.0983691
0.103669
0.0558812
0.0483813
0.00128059
0.00959138
0.0655826
0.0396059
0.011179
0.0591387
0.0565787
0.0727884
0.001
0.001
0.001
0.00455475
0.00631447
0.001
0.001
0.001
0.001
0.001
0.001
0.250611
0.229699
0.223381
0.233242
0.244685
0.352855
0.307015
0.293361
0.167299
0.212664
0.200944
0.206075
0.116429
0.0381067
0.21887
0.337649
0.221564
0.228887
0.206468
0.288874
0.269215
0.345229
0.376581
0.297283
0.279061
0.314134
0.192149
0.164571
0.16243
0.165637
0.0824398
0.132857
0.0564942
0.00930433
0.001
0.111351
0.108953
0.160714
0.155296
0.156964
0.160401
0.157616
0.166889
0.161359
0.168985
0.162392
0.179618
0.168875
0.182246
0.183286
0.211452
0.197159
0.2231
0.224408
0.177402
0.156012
0.218175
0.197302
0.193846
0.204072
0.185056
0.176956
0.226746
0.204497
0.305778
0.321531
0.270575
0.306157
0.31776
0.280434
0.373877
0.352661
0.419843
0.437291
0.465605
0.376187
0.38273
0.380689
0.342658
0.323885
0.29321
0.3823
0.236404
0.208788
0.264493
0.283617
0.001
0.0129426
0.0936705
0.215588
0.250535
0.283016
0.182391
0.148238
0.108016
0.0604
0.001
0.001
0.001
0.001
0.001
0.00100068
0.001
0.001
0.00100979
0.001
0.001
0.001
0.001
0.001
0.001
0.001
0.001
0.001
0.001
0.001
0.001
0.00101
0.001
0.00100015
0.001
0.001
0.00110816
0.001
0.00108465
0.001
0.00110782
0.00110782
0.001
0.001
0.001
0.001
0.001
0.001
0.001
0.001
0.00100959
0.001
0.00100851
0.00100824
0.001
0.001
0.816114
0.826633
0.844598
0.839017
0.816474
0.741428
0.562842
0.647251
0.534161
0.532807
0.505746
0.518318
0.504313
0.502066
0.494651
0.494728
0.444798
0.414324
0.314295
0.354495
0.210319
0.250453
0.001
0.001
0.001
0.001
0.001
0.001
0.001
0.001
0.001
0.001
0.001
0.001
0.001
0.001
0.001
0.001
0.001
0.00100737
0.001
0.001
0.001
0.001
0.001
0.001
0.001
0.001
0.00101
0.001
0.001
0.001
0.001
0.001
0.001
0.001
0.237021
0.0660017
0.442971
0.394943
0.464908
0.569948
0.680965
0.752877
0.765296
0.758186
0.7955
0.828589
0.818822
0.809537
0.00118598
0.001
0.001
0.001
0.001
0.001
0.001
0.001
0.001
0.001
0.001
0.001
0.001
0.001
0.001
0.00101
0.001
0.211349
0.207483
0.215436
0.175276
0.0973926
0.132326
0.0578134
0.0475847
0.0113229
0.00693082
0.001
0.001
0.001
0.001
0.001
0.001
0.001
0.0279571
0.0104239
0.0113707
0.001
0.001
0.001
0.001
0.001
0.001
0.001
0.001
0.001
0.001
0.001
0.001
0.449717
0.416642
0.459031
0.465878
0.420118
0.371529
0.54169
0.561825
0.62294
0.632649
0.177672
0.225367
0.277246
0.354833
0.182591
0.136055
0.159516
0.159419
0.00315206
0.0482663
0.101597
0.001
0.206655
0.210165
0.206836
0.210001
0.230854
0.206512
0.217168
0.237993
0.115387
0.109418
0.00776244
0.0950889
0.0899664
0.0419103
0.00711118
0.0119508
0.001
0.001
0.001
0.043566
0.106667
0.0386266
0.105522
0.154996
0.155182
0.161726
0.160008
0.162975
0.176323
0.176035
0.198895
0.185442
0.20594
0.20548
0.21782
0.217597
0.225227
0.222288
0.227038
0.221796
0.27274
0.234144
0.205994
0.202358
0.278457
0.242152
0.249369
0.286413
0.328292
0.321994
0.326073
0.325375
0.365414
0.412741
0.478972
0.494161
0.504273
0.480017
0.620427
0.562509
0.693773
0.732739
0.719494
0.757604
0.81586
0.679203
0.764373
0.78869
0.862978
0.911025
0.938651
0.959683
0.989433
0.932495
0.988768
0.944035
1.02788
1.02789
1.07442
1.04188
1.10721
1.13487
1.12614
1.07383
1.13874
1.16018
1.12967
1.12487
1.18839
1.16817
1.19678
1.13969
1.13765
1.20006
1.16712
1.1246
1.12475
1.15436
1.18566
0.183416
0.144067
0.316615
0.313431
0.281464
0.273332
0.27357
0.0404719
0.182537
0.001
0.001
0.00889866
0.001
0.001
0.001
0.001
0.108774
0.0189298
0.0177049
0.001
0.001
0.001
0.001
0.001
0.00101
0.001
0.001
0.001
0.001
0.00101
0.001
0.001
0.001
0.001
0.00150421
0.001
0.001
0.001
0.001
0.001
0.001
0.001
0.001
0.00126935
0.001
0.001
0.001
0.001
0.001
0.001
0.001
0.001
0.001
0.00100929
0.001
0.001
0.001
0.001
0.00106728
0.00114851
0.001
0.001
0.00106769
0.001
0.001
0.00101
0.001
0.001
0.00104318
0.00100714
0.001
0.00104299
0.001
0.00101151
0.00101223
0.001
0.001
0.00101
0.001
0.001
0.001
0.001
0.001
0.00100983
0.00100977
0.001
0.001
0.001
0.001
0.001
0.001
0.001
0.00112344
0.001
0.001
0.80555
0.792777
0.768609
0.762249
0.680022
0.758535
0.579218
0.51122
0.501229
0.502638
0.504253
0.506195
0.443593
0.44935
0.293203
0.251701
0.208667
0.383349
0.383597
0.332163
0.335323
0.333338
0.001
0.001
0.00104564
0.00104562
0.001
0.001
0.001
0.001
0.00104564
0.001
0.001
0.00100893
0.001
0.001
0.001
0.001
0.001
0.001
0.001
0.001
0.001
0.001
0.00127584
0.00127605
0.001
0.001
0.001
0.00101
0.0621227
0.001
0.230956
0.404122
0.432554
0.4604
0.5439
0.649605
0.717354
0.700544
0.73943
0.674318
0.722814
0.769026
0.719178
0.724443
0.00122173
0.001
0.00101
0.001
0.001
0.00119842
0.001
0.001
0.00119843
0.001
0.001
0.00100941
0.001
0.001
0.001
0.001
0.001
0.001
0.001
0.001
0.001
0.001
0.001
0.001
0.00119708
0.00100884
0.18223
0.184331
0.105581
0.124876
0.00109051
0.0222073
0.001
0.001
0.001
0.00154052
0.001
0.001
0.001
0.001
0.001
0.001
0.00258722
0.001
0.00309743
0.00297378
0.001
0.001
0.001
0.001
0.001
0.001
0.001
0.001
0.001
0.001
0.00123446
0.001
0.673712
0.669449
0.504438
0.411789
0.403418
0.387089
0.663852
0.583941
0.827961
0.902244
0.799001
0.723533
0.917578
0.896212
0.96171
1.01518
1.04558
1.04155
1.07369
1.04292
1.09985
1.12709
1.12202
1.12354
1.13645
1.12407
1.12441
1.16865
1.11651
1.11053
0.234479
0.156776
0.30982
0.370838
0.172576
0.108977
0.161371
0.156183
0.001
0.0438578
0.001
0.0463129
0.001
0.204308
0.145284
0.207423
0.202321
0.208481
0.100745
0.00313791
0.001
0.001
0.001
0.00100717
0.001
0.001
0.001
0.001
0.001
0.001
0.001
0.001
0.0511449
0.001
0.105124
0.0535154
0.095304
0.146392
0.186516
0.157952
0.195856
0.20016
0.20384
0.198735
0.226109
0.24426
0.243778
0.256698
0.264833
0.25838
0.296044
0.303542
0.295748
0.295986
0.29535
0.285942
0.307012
0.32602
0.367718
0.3628
0.338145
0.363929
0.355724
0.392159
0.423934
0.484558
0.509803
0.512958
0.525189
0.590964
0.678505
0.74978
0.762034
0.889694
0.763749
0.81581
0.966591
0.989705
0.991541
1.02612
1.07731
1.1235
1.13616
1.13646
1.16391
1.1893
1.21681
1.21646
1.21614
1.21674
1.21825
1.19951
1.13795
1.20116
1.16876
1.12403
1.12531
1.15663
1.18979
1.20149
1.12561
1.18661
1.14815
0.001
0.001
0.0324486
0.110931
0.00239385
0.0672311
0.208467
0.136
0.166007
0.00346766
0.001
0.001
0.001
0.00220004
0.001
0.001
0.001
0.001
0.001
0.00132383
0.00132371
0.001
0.001
0.001
0.001
0.001
0.001
0.001
0.001
0.00133659
0.00133663
0.001
0.001
0.001
0.00150394
0.001
0.001
0.001
0.001
0.001
0.00101
0.001
0.00126904
0.001
0.00101
0.001
0.001
0.001
0.001
0.001
0.001
0.00105247
0.001
0.001
0.001
0.001
0.001
0.001
0.001
0.001
0.001
0.001
0.001
0.001
0.001
0.001
0.00104576
0.001
0.001
0.001
0.001
0.001
0.00121855
0.001
0.00102476
0.001
0.00100962
0.001
0.001
0.001
0.001
0.001
0.001
0.001
0.001
0.719929
0.711001
0.695577
0.701246
0.631338
0.698608
0.505593
0.562504
0.464325
0.464012
0.406322
0.390365
0.336634
0.333821
0.249408
0.144647
0.122889
0.292734
0.334852
0.33406
0.334354
0.334285
0.00104573
0.001
0.00104573
0.001
0.001
0.001
0.001
0.001
0.00100548
0.001
0.001
0.001
0.001
0.001
0.001
0.00100999
0.001
0.001
0.001
0.001
0.001
0.001
0.001
0.00101
0.001
0.001
0.001
0.001
0.125257
0.001
0.269072
0.403502
0.378025
0.485238
0.649972
0.557718
0.631679
0.632243
0.622846
0.653828
0.709735
0.705592
0.713137
0.67925
0.001
0.001
0.001
0.001
0.001
0.001
0.001
0.001
0.001
0.001
0.001
0.00102981
0.001
0.001
0.001
0.001
0.001
0.001
0.001
0.00100999
0.001
0.001
0.00121793
0.001
0.00101
0.001
0.001
0.001
0.001
0.001
0.001
0.0572653
0.0582382
0.0241931
0.00466309
0.001
0.001
0.001
0.001
0.104543
0.0451033
0.0262936
0.001
0.001
0.001
0.00100989
0.00132757
0.00132762
0.001
0.001
0.001
0.001
0.001
0.001
0.001
0.001
0.001
0.001
0.001
0.00100971
0.001
0.001
0.001
0.001
0.001
0.001
1.24876
1.25874
1.28272
1.26257
1.30249
1.28895
1.30984
1.30501
1.36295
1.35049
1.3135
1.36713
1.33033
1.38528
1.21367
1.16529
1.18889
1.23675
1.21682
1.18563
1.18973
1.24219
1.2492
1.22639
1.20469
1.25536
1.24119
1.24634
1.27214
1.12444
1.12412
1.12318
1.12303
1.14307
1.1657
0.719399
0.659994
0.56531
0.462239
0.377605
0.451858
0.650633
0.635384
0.873414
0.898314
0.783668
0.866508
0.903321
0.954494
0.998684
1.04522
1.03942
1.04465
1.04054
1.07274
1.08312
1.11213
1.09833
1.09963
1.10194
1.1113
1.08998
1.0898
0.290231
0.213054
0.162283
0.146585
0.202333
0.376062
0.357094
0.0802743
0.142949
0.0157832
0.001
1.23047
1.25308
1.26691
1.27438
1.28064
1.29017
1.29543
1.32172
1.30691
1.32551
1.32522
1.37174
1.3993
1.41875
1.42011
1.42301
1.43624
1.46161
0.001
0.001
0.00142123
0.134755
0.0196399
0.189965
0.0940185
0.0105287
0.00124402
0.001
0.00124412
0.001244
0.001
0.001
0.001
0.001
0.001
0.001
0.001
0.001
0.001
0.00144892
0.00236045
0.00178959
0.0541238
0.0141442
0.13866
0.0870913
0.172068
0.140654
0.167526
0.196189
0.226671
0.252161
0.261064
0.258067
0.276467
0.267695
0.324076
0.31151
0.306239
0.303623
0.356282
0.327751
0.399927
0.360979
0.341107
0.385559
0.428488
0.417545
0.442786
0.482414
0.481478
0.422453
0.532289
0.561924
0.533712
0.520321
0.607739
0.689323
0.761564
0.831644
0.777675
0.796027
0.926785
0.985022
1.03012
1.0082
1.07605
1.10253
1.1422
1.16222
1.15311
1.17062
1.22711
1.20809
1.22012
1.22979
1.22166
1.21819
1.21888
1.22097
1.22014
1.22088
1.22162
0.001
0.001
0.00192973
0.001
0.001
0.001
0.001
0.00899119
0.001
0.001
0.001
0.001
0.001
0.001
0.00142116
0.001
0.001
0.001
0.001
0.0013226
0.001
0.001
0.001
0.001
0.001
0.001
0.001
0.001
0.0011265
0.001
0.00133608
0.001
0.0010472
0.001
0.001
0.001
0.001
0.001
0.001
0.001
0.00100984
0.001
0.00112578
0.001
0.001
0.001
0.001
0.001
0.001
0.001
0.001
0.00240844
0.001
0.00102183
0.001
0.001
0.001
0.001
0.00100993
0.001
0.001
0.001
0.001
0.001
0.00108645
0.001
0.001
0.001
0.001
0.0010875
0.001
0.001
0.001
0.001
0.001
0.001
0.001
0.001
0.00101
0.001
0.001
0.001
0.001
0.001
0.001
0.001
0.001
0.001
0.001
0.00195029
0.001
0.001
0.001
0.001
0.00195028
1.40888
1.38074
1.36421
1.4519
1.48836
1.48011
0.691679
0.696468
0.682915
0.676058
0.6037
0.666058
0.499025
0.420752
0.352157
0.364654
0.334563
0.335502
0.336089
0.332968
0.211085
0.130983
0.221045
0.297332
0.298402
0.001
0.001
0.001
0.001
0.001
0.001
0.001
0.001
0.001
0.001
0.00100943
0.001
0.001
0.001
0.001
0.001
0.00100998
0.001
0.001
0.001
0.001
0.001
0.001
0.001
0.001
0.001
0.001
0.0997093
0.240741
0.354715
0.354118
0.675572
0.598604
0.60689
0.389351
0.483547
0.569637
0.62337
0.624757
0.622147
0.642651
0.671901
0.662065
0.001
0.00113536
0.001
0.001
0.001
0.001
0.00100904
0.001
0.001
0.001
0.001
0.001
0.001
0.001
0.00100996
0.001
0.001
0.0010126
0.001
0.001
0.001
0.001
0.001
0.001
0.001
0.001
0.001
0.001
0.001
0.001
0.00101
0.001
0.001
0.001
0.001
0.00108607
0.001
0.0599057
0.0921846
0.0847401
0.0255561
0.0244152
0.0010218
0.0152194
0.001
0.001
0.001
0.001
0.0311315
0.017133
0.001
0.001
0.001
0.001
0.001
0.001
0.001
0.001
0.001
0.001
0.001
0.001
0.001
0.001
0.001
0.001
0.001
0.001
0.001
0.001
0.001
0.001
0.001
0.001
1.24896
1.2607
1.28339
1.30629
1.3201
1.31473
1.35109
1.31996
1.18109
1.17755
1.16274
1.18501
1.21696
1.1785
1.22782
1.19938
1.11074
1.1002
1.0975
1.12726
1.1578
1.13271
0.72218
0.642281
0.542258
0.633435
0.475429
0.391883
0.639448
0.640497
0.879846
0.883412
0.898783
0.794982
0.871652
0.987515
0.930079
0.87326
0.918133
1.01706
1.03418
1.02103
1.03184
1.03724
1.06333
1.091
1.07861
1.08995
1.0867
1.08644
1.08402
1.08816
1.08801
0.130075
0.131783
0.270277
0.357869
0.131215
0.20943
0.367011
0.38897
0.125401
0.0638779
0.001
0.0447298
1.26142
1.22041
1.23987
1.28521
1.28355
1.28568
1.29593
1.3181
1.33975
1.35197
1.35064
1.35677
1.37785
1.42033
1.40248
1.41559
1.43669
1.47409
1.45775
1.29162
1.30351
1.31953
1.48296
1.48758
1.48746
0.00142075
0.00142066
0.00142084
0.001
0.001
0.001
0.001
0.001
0.001
0.001
0.001
0.001
0.001
0.0011491
0.001
0.00114907
0.001
0.001
0.001
0.001
0.00180503
0.001
0.00507305
0.001
0.0738135
0.0992915
0.0315395
0.0759912
0.134636
0.101436
0.224896
0.178921
0.242376
0.25069
0.268489
0.258811
0.29355
0.344631
0.379477
0.382592
0.382079
0.370839
0.40013
0.381748
0.425433
0.429749
0.455892
0.460276
0.431336
0.43655
0.553301
0.600501
0.498372
0.565214
0.612704
0.572114
0.673438
0.718137
0.816377
0.857476
0.834999
0.927947
0.983264
1.08417
1.06771
1.1246
1.10354
1.19695
1.19898
1.19054
1.222
1.24823
1.24816
1.30262
1.26913
1.29574
1.25872
1.25744
1.29413
1.22426
1.2621
1.2248
0.001
0.001
0.001
0.001
0.001
0.001
0.001
0.001
0.00101
0.001
0.001
0.001
0.001
0.001
0.001
0.001
0.001
0.001
0.001
0.001
0.001
0.001
0.001
0.001
0.001
0.001
0.00126755
0.001
0.00112641
0.00112618
0.001
0.001
0.001
0.001
0.00101
0.001
0.0010004
0.001
0.001
0.001
0.001
0.001
0.00206714
0.001
0.001
0.001
0.001
0.001
0.001
0.001
0.001
0.00220117
0.001
0.001
0.001
0.00115932
0.00119789
0.001
0.00100983
0.001
0.001
0.001
0.001
0.001
0.00108643
0.00108679
0.001
0.001
0.00108736
0.00108703
0.001
0.001
0.001
0.001
0.00142239
0.001
0.00142217
0.001
0.001
0.001
0.001
0.00100578
0.00103393
0.00103383
0.001
0.001
0.001
0.001
0.001
0.001
0.001
0.001
0.001
0.001
0.00119781
0.001
0.00100958
0.00100997
0.001
0.001
0.001
0.001
0.00101
1.36761
1.39061
1.39117
1.38735
1.41723
1.52184
1.49779
1.50724
1.52775
1.46708
0.602992
0.589259
0.526621
0.529877
0.486334
0.5203
0.423636
0.38454
0.370373
0.333171
0.306273
0.312947
0.216884
0.234363
0.0966341
0.142952
0.13759
0.001
0.001
0.001
0.00101
0.0010359
0.001
0.001
0.00118056
0.0702909
0.001
0.001
0.001
0.001
0.001
0.001
0.001
0.00101
0.001
0.001
0.00102217
0.001
0.001
0.001
0.001
0.001
0.469238
0.470674
0.513463
0.213367
0.354168
0.351293
0.390122
0.51529
0.583688
0.546928
0.448423
0.530153
0.562784
0.565215
0.486908
0.515638
0.001
0.001
0.0011354
0.00101306
0.001
0.001
0.00101
0.00118863
0.001
0.001
0.001
0.001
0.001
0.001
0.001
0.00125987
0.001
0.001
0.001
0.001
0.001
0.0010126
0.001
0.001
0.001
0.00101
0.001
0.001
0.001
0.001
0.00105666
0.001
0.00100563
0.001
0.001
0.001
0.001
0.001
0.001
0.001
0.001
0.001
0.001
0.001
0.001
0.0780087
0.0893282
0.0975436
0.001
0.001
0.001
0.001
0.001
0.001
0.001
0.001
0.0010262
0.0020262
0.001
0.001
0.001
0.001
0.001
0.001
0.001
0.001
0.001
0.001
0.001
0.001
0.001
0.001
0.001
0.00114577
0.001
0.00113574
0.001
0.001
0.001
0.001
0.00101
0.001
0.001
0.00114574
1.25191
1.20908
1.27419
1.24203
1.25392
1.2844
1.30184
1.34127
1.32692
1.36577
1.3427
1.30518
1.36154
1.34226
1.1433
1.14549
1.13434
1.14882
1.16243
1.17486
1.17553
1.17978
1.0833
1.08673
1.10696
1.09512
1.12358
1.1283
0.72179
0.642444
0.570415
0.644597
0.435145
0.527559
0.642475
0.647623
0.872276
0.873133
0.874415
0.801055
0.959838
1.0106
0.921001
0.871277
1.01617
1.01233
1.03045
1.01449
1.04916
1.0783
1.08641
1.0855
1.08348
1.08663
1.08571
1.08683
1.08523
1.08116
0.125665
0.122817
0.290885
0.368542
0.268255
0.189266
0.425293
0.361825
0.0952349
0.127863
0.0901914
0.00960798
1.2613
1.29762
1.28096
1.30536
1.3248
1.31425
1.3495
1.36249
1.33812
1.35133
1.34169
1.35145
1.35618
1.37855
1.40327
1.41789
1.41578
1.46888
1.44435
1.49479
1.50069
1.37471
1.38858
1.502
1.51203
0.001
0.001
0.001
0.001
0.001
0.001
0.001
0.001
0.00101
0.001
0.001
0.001
0.001
0.001
0.001
0.001
0.00180497
0.001
0.001
0.001
0.001
0.001
0.00183772
0.001
0.0936137
0.0928059
0.0563376
0.00778204
0.124478
0.177953
0.233222
0.215257
0.235797
0.226084
0.352183
0.295332
0.401294
0.388413
0.423416
0.423218
0.403414
0.459436
0.497662
0.47288
0.456827
0.487394
0.537063
0.515355
0.501399
0.547785
0.631914
0.627392
0.626208
0.642565
0.771471
0.687464
0.856904
0.881828
0.883426
0.951206
1.02851
1.10344
1.11331
1.12192
1.1703
1.2151
1.25263
1.25182
1.29056
1.26392
1.31605
1.33335
1.33153
1.33326
1.33071
1.33155
1.29832
1.3297
1.29818
0.001
0.001
0.00631743
0.00102546
0.001
0.001
0.001
0.001
0.001
0.001
0.00101
0.00128674
0.001
0.00128675
0.00128719
0.00128774
0.00128631
0.001
0.00128657
0.00645653
0.001
0.001
0.001
0.00171935
0.001
0.00171799
0.00171809
0.001
0.001
0.00100217
0.001
0.001
0.001
0.001
0.00101
0.00104046
0.001
0.001
0.00100986
0.001
0.001
0.001
0.00182342
0.001
0.001
0.001
0.001
0.001
0.001
0.001
0.001
0.001
0.00100941
0.001
0.001
0.001
0.00100992
0.001
0.001
0.001
0.00101
0.001
0.001
0.001
0.001
0.001
0.001
0.00104223
0.00102836
0.001
0.001
0.00100949
0.001
0.001
0.001
0.001
0.001
0.001
0.001
0.001
0.001
0.001
0.00106844
0.001
0.001
0.001
0.001
0.001
0.001
0.001
0.001
0.001
0.001
0.001
0.001
0.001
0.001
0.001
0.001
0.001
0.001
0.001
0.001
0.001
0.001
0.001
0.001
0.001
0.001
0.001
0.001
0.001
0.00106596
0.001
0.001
0.001
0.001
1.55845
1.54273
1.56441
1.55756
1.56539
1.56825
1.3958
1.40976
1.46747
1.43901
1.52929
1.55531
1.52517
1.40431
1.35626
0.469882
0.466651
0.46634
0.460538
0.465991
0.39885
0.447814
0.227326
0.28843
0.149683
0.151779
0.097928
0.0989652
0.0994824
0.001
0.001
0.001
0.001
0.001
0.0988488
0.001
0.001
0.001
0.001
0.001
0.001
0.001
0.001
0.001
0.001
0.001
0.001
0.00101
0.001
0.00100974
0.001
0.001
0.001
0.471485
0.470329
0.469151
0.469343
0.471444
0.18517
0.296747
0.238592
0.362001
0.420155
0.448073
0.371819
0.465728
0.411096
0.411682
0.398719
0.001
0.00113164
0.001
0.001
0.001
0.001
0.001
0.00101484
0.001
0.001
0.0010138
0.001
0.001
0.001
0.001
0.001
0.001
0.001
0.001
0.00101575
0.001
0.001
0.001
0.001
0.001
0.00100957
0.001
0.001
0.001
0.001
0.001
0.001
0.001
0.001
0.001
0.001
0.00105693
0.001
0.00105651
0.00106649
0.001
0.001
0.001
0.001
0.00100113
0.001
0.001
0.001
0.001
0.001
0.001
0.001
0.001
0.001
0.001
0.001
0.001
0.0744829
0.00587701
0.001
0.001
0.001
0.001
0.001
0.001
0.001
0.001
0.00100956
0.001
0.001
0.001
0.001
0.001
0.001
0.001
0.001
0.001
0.001
0.001
0.001
0.001
0.001
0.001
0.001
0.001
0.001
0.001
0.001
0.001
0.001
0.00183861
0.00183732
0.001
0.001
0.001
0.001
0.00100972
0.001
1.23081
1.19578
1.23607
1.23603
1.21494
1.26252
1.24191
1.25469
1.28376
1.29915
1.37084
1.33074
1.28496
1.13271
1.13238
1.16063
1.14634
1.17466
1.17426
1.19967
1.18242
1.08448
1.08986
1.11115
1.10016
1.11382
1.12189
0.763552
0.685352
0.612329
0.644641
0.590287
0.487901
0.683166
0.65081
0.876683
0.878685
0.837773
0.882838
0.969141
1.01756
0.880721
0.928323
1.01812
1.01532
1.03826
1.02011
1.06182
1.08148
1.07646
1.08801
1.08397
1.08475
1.08133
1.08131
1.08236
1.08115
0.12048
0.179488
0.363636
0.345671
0.269221
0.349811
0.367597
0.44637
0.114251
0.111242
0.102478
0.0203729
0.001
0.001
0.001
1.33001
1.33498
1.36176
1.3532
1.37939
1.39108
1.39138
1.39195
1.42711
1.40752
1.41981
1.38482
1.41313
1.42538
1.44738
1.46555
1.47664
1.47376
1.52742
1.52921
1.55359
1.5337
1.44785
1.45103
1.57154
1.56743
0.001
0.001
0.00101
0.001
0.001
0.00123127
0.00123077
0.001
0.001
0.001
0.001
0.00195691
0.00118444
0.001
0.001
0.001
0.00100232
0.001
0.001
0.001
0.001
0.001
0.001
0.001
0.001
0.0400892
0.107482
0.001
0.20832
0.151953
0.227035
0.218239
0.317758
0.25462
0.377078
0.406891
0.399952
0.413404
0.532344
0.491818
0.464188
0.51809
0.544289
0.535143
0.534962
0.530722
0.539839
0.53366
0.625175
0.664342
0.702652
0.658229
0.701694
0.725516
0.868107
0.804925
0.896618
0.883035
0.964121
1.03945
1.12681
1.12
1.15614
1.19159
1.2669
1.2575
1.2813
1.28683
1.31578
1.32615
1.3438
1.33841
1.34639
1.34368
1.33169
1.34289
1.33021
1.33004
0.001
0.001
0.00101
0.001
0.001
0.001
0.001
0.001
0.001
0.00128664
0.001
0.001
0.001
0.00128777
0.0012873
0.00128816
0.00128777
0.0012865
0.0012877
0.001
0.001
0.00100461
0.001
0.001
0.001
0.00100179
0.001
0.001
0.001
0.001
0.001
0.00101
0.001
0.001
0.00100863
0.00104043
0.001
0.001
0.001
0.0036463
0.001
0.001
0.001
0.00100994
0.001
0.001
0.001
0.00100983
0.001
0.001
0.00100647
0.001
0.00100976
0.001
0.001
0.001
0.001
0.001
0.00361619
0.001
0.001
0.001
0.001
0.001
0.00117036
0.00117024
0.00117026
0.001
0.001
0.001
0.001
0.001
0.001
0.001
0.001
0.001
0.001
0.001
0.001
0.001
0.001
0.001
0.001
0.001
0.001
0.001
0.001
0.001
0.001
0.001
0.001
0.001
0.001
0.001
0.001
0.001
0.001
0.001
0.001
0.001
0.001
0.001
0.001
0.001
0.001
0.001
0.00101
0.001
0.0011642
0.001
0.00115125
0.001
0.001
0.0010969
0.001
0.00108704
1.58146
1.603
1.60479
1.56159
1.57385
1.55584
1.56455
1.45863
1.46301
1.47833
1.49987
1.50501
1.5374
1.56182
1.41538
1.45502
1.36993
1.39015
1.38746
0.463649
0.463683
0.36974
0.325365
0.42867
0.354766
0.368501
0.231166
0.268066
0.123446
0.0991677
0.0972775
0.101483
0.0745599
0.001
0.001
0.0167851
0.126212
0.001
0.001
0.001
0.00116477
0.001
0.001
0.001
0.001
0.001
0.001
0.001
0.001
0.001
0.00102126
0.001
0.001
0.00101765
0.001
0.001
0.001
0.425375
0.470088
0.444391
0.422397
0.191498
0.190528
0.209226
0.283602
0.396426
0.397858
0.350149
0.399573
0.399083
0.00100999
0.001
0.001
0.001
0.001
0.001
0.00132272
0.00132323
0.001
0.001
0.00101352
0.00100946
0.001
0.001
0.00100978
0.001
0.00100974
0.00380806
0.001
0.001
0.001
0.001
0.001
0.001
0.001
0.001
0.001
0.001
0.00122432
0.001
0.001
0.001
0.001
0.001
0.001
0.001
0.001
0.001
0.001
0.001
0.001
0.001
0.001
0.001
0.001
0.00101924
0.001
0.001
0.001
0.001
0.001
0.00187376
0.001
0.001
0.001
0.001
0.001
0.001
0.001
0.001
0.001
0.001
0.001
0.001
0.001
0.001
0.001
0.001
0.001
0.001
0.001
0.0011666
0.001
0.001
0.001
0.001
0.001
0.001
0.001
0.001
0.001
0.001
0.001
0.001
0.001
0.001
0.001
0.001
0.001
0.001
0.001
0.001
0.001
0.001
0.001
0.001
0.001
0.001356
0.00101
0.001
0.001
0.001
0.001
0.00100999
0.001
0.001
1.19309
1.2256
1.17596
1.24981
1.2467
1.25173
1.28006
1.25132
1.26361
1.32854
1.28128
1.35709
1.32246
1.39606
1.11376
1.13488
1.13266
1.15455
1.13782
1.16099
1.19917
1.1534
1.08111
1.09145
1.09763
1.1012
1.10164
1.10563
0.818077
0.741453
0.621613
0.646342
0.540625
0.636379
0.651611
0.710033
0.884939
0.884453
0.883485
0.863566
0.977593
1.02168
0.941966
0.895909
1.02542
1.02114
1.02691
1.04698
1.07073
1.06777
1.07035
1.08779
1.08078
1.082
1.0767
1.07456
1.0865
1.08569
0.19977
0.102709
0.37512
0.375268
0.288514
0.387957
0.379566
0.484468
0.106294
0.104091
0.0770392
0.0687467
0.00575393
0.102414
1.34432
1.36445
1.38526
1.42071
1.4144
1.43571
1.44804
1.45694
1.46431
1.44894
1.4562
1.4789
1.49675
1.50812
1.50857
1.5201
1.54192
1.56334
1.57547
1.57461
1.58982
1.46113
1.45005
1.6089
1.62821
0.001
0.001
0.001
0.001
0.001
0.001
0.001
0.001
0.001
0.00195679
0.001
0.001
0.001
0.001
0.001
0.00106031
0.00106031
0.001
0.001
0.001
0.001
0.001
0.001
0.001
0.001
0.0392526
0.0452792
0.130964
0.194587
0.161731
0.240341
0.184461
0.376017
0.298589
0.402129
0.405969
0.418182
0.481158
0.605558
0.618049
0.555173
0.580851
0.618095
0.56022
0.669529
0.601562
0.57438
0.608939
0.7428
0.756452
0.823105
0.872856
0.757343
0.846716
0.99582
0.94259
1.01307
0.982541
1.17496
1.14148
1.20505
1.22251
1.29272
1.30288
1.3673
1.33237
1.38365
1.36522
1.38588
1.41937
1.39124
1.42114
1.42781
1.38699
1.37439
1.41732
1.4154
1.38681
0.001
0.001
0.00101
0.001
0.001
0.001
0.001
0.001
0.001
0.001
0.001
0.001
0.001
0.001
0.001
0.001
0.00100968
0.00128794
0.001
0.001
0.00128666
0.00100329
0.001
0.001
0.00131657
0.001
0.001
0.001
0.001
0.001
0.00137224
0.00100982
0.001
0.001
0.001
0.001
0.001
0.00100967
0.001
0.001
0.001
0.001
0.001
0.001
0.001
0.001
0.0010203
0.00102038
0.00102059
0.001
0.001
0.001
0.001
0.00111201
0.001
0.001
0.00111191
0.001
0.001
0.001
0.00100996
0.00116412
0.001
0.00109725
0.001
0.001
0.001
0.001
0.00101
0.001
0.001
0.001
0.001
0.001
0.001
0.001
0.001
0.001
0.001
0.001
0.001
0.001
0.001
0.001
0.001
0.001
0.001
0.001
0.001
0.001
0.001
0.001
0.001
0.001
0.001
0.001
0.001
0.001
0.001
0.001
0.001
0.001
0.001
0.001
0.001
0.001
0.001
0.001
0.001
0.001
0.001
0.001
0.001
0.001
0.001
0.001
0.001
0.00115125
0.001
0.001
0.001
0.00109741
0.001
0.001
1.62871
1.61702
1.63244
1.60742
1.58789
1.6254
1.60695
1.58306
1.60365
1.45582
1.48383
1.49027
1.48865
1.55689
1.60135
1.63067
1.52431
1.39348
1.42088
1.40433
1.4031
1.39445
1.43015
1.32619
0.230781
0.323617
0.228869
0.2662
0.270487
0.176148
0.176835
0.178025
0.178198
0.179118
0.152658
0.0707969
0.0444343
0.001
0.00108795
0.0751192
0.18893
0.001
0.001
0.00113247
0.001
0.001
0.00102477
0.001
0.001
0.001
0.001
0.001
0.001
0.001
0.001
0.001
0.00123906
0.001
0.00104638
0.001
0.001
0.334428
0.257559
0.233604
0.324305
0.182409
0.213164
0.347066
0.279088
0.320975
0.398631
0.395099
0.00111183
0.001
0.001
0.00116145
0.001
0.001
0.00132319
0.00132283
0.001
0.001
0.00100995
0.001
0.001
0.001
0.001
0.001
0.00380513
0.00380076
0.001
0.001
0.00381222
0.001
0.00187402
0.001
0.001
0.001
0.001
0.00320086
0.001
0.00122442
0.00315948
0.001
0.001
0.001
0.001
0.001
0.001
0.001
0.001
0.001
0.001
0.001
0.001
0.00101
0.001
0.001
0.001
0.001
0.001
0.0011155
0.001
0.001
0.001
0.00131737
0.001
0.001
0.001
0.001
0.001
0.001
0.001
0.001
0.001
0.001
0.001
0.001
0.001
0.001
0.001
0.001
0.001
0.001
0.001
0.001
0.001
0.001
0.00116186
0.00116185
0.001
0.001
0.001
0.001
0.001
0.001
0.001
0.001
0.00155373
0.001
0.001
0.001
0.001
0.001
0.001
0.00155373
0.001
0.001
0.001
0.001
0.001
0.001
0.001
0.001
0.001
0.001
0.001
0.001
0.001
0.00101
0.0010568
0.001
0.00101
0.001
0.001
0.001
0.001
0.001
0.001
0.001
1.16619
1.21612
1.16497
1.19698
1.20195
1.2205
1.20231
1.23313
1.25293
1.28612
1.29211
1.28958
1.32593
1.29444
1.39642
1.10613
1.10916
1.11128
1.11737
1.11747
1.11834
1.12716
1.14296
1.13734
1.08231
1.08896
1.10287
1.10462
1.10718
0.791086
0.861887
0.66168
0.661039
0.578623
0.68206
0.743347
0.670382
0.895828
0.90447
0.912019
0.903693
1.02286
0.986903
0.952297
0.988083
1.0338
1.02771
1.06081
1.08028
1.07769
1.10071
1.09434
1.08663
1.08327
1.09125