/*--------------------------------*- C++ -*----------------------------------*\
  =========                 |
  \\      /  F ield         | OpenFOAM: The Open Source CFD Toolbox
   \\    /   O peration     | Website:  https://openfoam.org
    \\  /    A nd           | Version:  8
     \\/     M anipulation  |
\*---------------------------------------------------------------------------*/
FoamFile
{
    version     2.0;
    format      ascii;
    class       surfaceScalarField;
    location    "7380";
    object      phi;
}
// * * * * * * * * * * * * * * * * * * * * * * * * * * * * * * * * * * * * * //

dimensions      [0 3 -1 0 0 0 0];

internalField   nonuniform List<scalar> 
788991
(
-0.0512078
-0.00504761
-0.0436186
-0.0379362
0.00817042
-0.0348393
0.00606221
0.0066839
-0.0750156
0.0552075
-0.033644
0.0571451
-0.0123107
-0.0708971
-0.0387954
-0.0364562
0.0534066
0.00276606
-0.0503892
0.0286451
0.0189792
0.0274243
-0.0421512
0.0177701
-0.0291753
0.0497523
-0.0400222
0.0460516
-0.0283437
0.0613762
0.0213802
0.0394263
0.0572496
-0.0106088
0.068343
0.00654958
-0.0130713
-0.0432012
-0.0429319
0.00204674
-0.0305515
0.0333372
0.0174998
-0.0376613
0.062755
-0.0225427
-0.024982
0.0246772
-0.00165437
-0.0559001
-0.0274627
0.0336721
-0.0421544
0.0141217
0.0230603
0.0441122
-0.00364189
-0.0151783
0.0537669
-0.0240161
0.030624
0.00578047
-0.0242338
-0.0093381
-0.0128101
0.00720839
-0.00289592
0.00384666
-0.00613122
-0.0127242
-0.0141586
0.00642646
0.0897946
0.129159
0.0484103
0.0576146
-0.123454
-0.0515734
0.0135615
0.0217098
0.0290746
-0.0527651
0.0584048
-0.0381454
-0.00153773
-0.0497457
0.0229971
-0.0322161
-0.044705
-0.00866925
0.0318714
0.00960588
-0.0412748
-0.041251
-0.00339925
0.0383891
-0.00597305
0.0313468
-0.0482127
-0.00270632
0.0156333
0.00483665
-0.0194383
-0.0214721
0.014178
0.0364219
0.0144726
0.00427037
-0.0247654
-0.0218942
0.0149233
0.0286482
0.0204785
-0.00103593
0.0232371
0.00476225
0.0189376
0.0123716
0.00747117
-0.00547134
-0.0119802
0.0185509
-0.00698063
-0.00946701
0.063233
0.0433014
0.0212067
0.0340045
-0.010016
-0.000590627
0
0
0
0
0
0
0.058234
0
0.10196
-0.137195
0.0627962
0.0806225
0.0789069
0.0461588
-0.00627326
-0.0641431
0.0555481
-0.008674
0.0513747
0.016217
0.00775465
-0.0512009
-0.00120976
-0.021147
0.056068
0.00726672
-0.0310441
-0.0236736
0.0205068
-0.0411645
0.040103
-0.0139958
-0.0558151
0.0201651
-0.0655816
0.0286988
0.00461181
-0.0178453
0.033084
-0.0472844
0.0490551
-0.0193219
9.29191e-05
0.023216
0.0198196
0.0295391
0.0277772
0.0117595
0.0444816
0.0309565
0.0381802
-0.0348434
0.028247
0.044631
-0.0215328
0.00524509
-0.0384247
-0.0112445
0.0241678
0.0180952
0.0163834
0.046245
0.0166434
0.0273153
-0.0363268
0.021058
0.00551873
-0.008076
0.0537913
-0.0141104
0.0537175
0.0546372
0.0268193
0.0334344
0.0368458
-0.015158
-0.00316746
0.0190366
-0.047221
0.00181623
0.00321602
0.0287792
-0.0105817
0.0306127
0.0289009
-0.0144043
0.0197658
0.0234961
0.0172778
-0.0194344
0.0274808
0.027205
-0.00945931
-0.00731289
0.0227878
0.00641069
-0.00356188
-0.0029182
0.0223311
-0.0106944
-0.00449021
0.0421896
0.0412297
0.00594299
0.034309
-0.0278526
0.02104
0.0257724
0.0251973
0.00317406
-0.0208051
0.0284607
-0.0660876
0.0190684
-0.089981
-0.0176457
0.0466856
0.0738524
0.00713076
0.0342752
-0.0331372
0.0327069
0.0299979
-0.0176924
0.0305831
0.0355509
-0.021194
0.0352668
0.0408224
0.0091519
0.0316516
0.060666
-0.00422829
-0.00745276
0.0311012
0.0269414
-0.0201995
0.0280465
-0.0143584
-0.0378404
0.000252126
-0.0419427
-0.0137613
0.0257735
0.0252728
0.00562486
0.0247035
-0.0103826
0.0187131
0.0232299
0.0186964
-0.0182736
-0.0154779
0.0170241
-0.0340125
0.00140029
-0.00591283
-0.0122447
0.00395001
-0.0106347
-0.0140418
0.0190711
-0.00733802
-0.00341966
0.0142337
0.035922
-0.014777
-0.0141627
0.024652
0.0503944
-0.0266476
0.0297385
-0.0549887
-0.0111002
0.00131378
0.0220824
-0.000306034
0.00905352
0.00329785
-0.0577608
0
0
0.04421
0
0.0398558
0
0
0
0
0
0
0
0
-0.0475753
-0.0256879
-0.0209409
-0.0350771
-0.0340055
-0.0224858
-0.0221841
-0.0415527
-0.00147709
-0.0495696
-0.0376491
0.0012609
-0.0293375
-0.0344775
0.0150985
-0.0374303
-0.0238314
0.00780741
-0.0261592
-0.0178108
0.0333992
0.00435248
-0.0299539
-0.0152499
0.0183632
-0.0192851
0.0516723
-0.011962
0.00377877
-0.0237895
0.0436715
-0.00394834
0.0225865
0
0
0
0
0
0
0
0
-0.0676945
0
0
0.0661907
0.162959
0.0233747
0.0348889
0.0183923
0.0415991
0.0569929
-5.72667e-05
-0.0465958
0.0489323
0.0229457
-0.0370241
0.0069379
0.0143515
0.0326988
-0.00587817
0.00211485
-0.0136835
0.0301506
0.0192364
0.00675748
0.0435674
0.0163633
-0.00974021
0.015741
0.0412647
-0.0162697
-0.00122218
0.0567569
-0.0088653
0.00482761
0.0317614
0.0153438
0.00496081
0.0435901
-0.0119567
0.0438581
0.000631193
0.0170915
0.0159831
0.0284733
0.00740489
-0.131285
-0.0437716
-0.00684112
-0.0320801
-0.0162142
0.00974504
0.0285046
0.00402127
0.00360016
0.0128566
0.00791257
0.0163571
0.0295221
0.023979
-0.0124858
0.00619285
-0.0268807
0.0112727
0.015119
-0.0254637
-0.014797
0.00644857
0
-0.021249
0
0
-0.00326149
-0.0360181
-0.0169585
0.0307812
0.0170475
-0.0108412
0.00766426
-0.0515821
0.0344857
0.0208338
-0.00737155
0.0302356
-0.0111567
-0.0132345
0.0228392
0.0111623
0.00777825
0.00452074
0.0217171
-0.0305354
-0.012606
0.0221073
0.0328891
0.0143162
0.0314152
-0.0259178
0.0169332
0.0334755
-0.0149857
0.0213402
0.0327958
-0.108145
0.123026
-0.088531
0.110586
-0.0203235
0.0594224
0.0688078
-0.00968531
0.0191934
0.00161034
0.0232397
0.0193639
-0.0250905
0.0434409
0.0471598
0.00422393
0.0305358
0.0397333
0.0029189
-0.00314969
0.0372916
-0.0125242
0.0155569
0.0164864
-0.044873
0.0398542
0.0675536
0.0264397
0.0427689
0.076157
0.0224255
0.0445238
0.0443553
-0.0117902
0.0688847
0.0183496
-1.23415e-05
-0.01672
0.0309155
0.0122133
0.00456217
0.00541764
-0.0303468
0.0217744
-0.0056646
-0.00714634
0.00916061
0.0504726
0.0429517
0.0226556
-0.00831576
0.00176257
-0.045558
0.0293926
-0.0240388
-0.0220672
0.0440362
0.0435945
-0.0302927
-0.0173593
-0.0113334
0.000369876
0.0354777
-0.0381051
-0.00985842
0.00836343
0.00151499
0.034618
0.016792
0.0195367
0.043327
0.00389649
0.0148678
-0.000560724
-0.00899084
0.0300672
-0.0487046
-0.118122
-0.0138185
0.0202797
0.0104696
0.00438802
-0.0271225
-0.0312624
-0.0179396
-0.0157781
0.0260694
-0.0045571
-0.0109065
0.0171592
0
0
0
-0.0218181
0
0
-0.0593951
0
0
0
0
0
0
0
0
0
0
0
0
0
0
0
0
-0.0381616
-0.0374705
0.00597587
-0.0191503
-0.0552236
0.0145688
-0.0396545
-0.0337022
0.0107695
-0.0574668
-0.0322122
0.0131457
-0.0275356
-0.0283589
-0.0216642
-0.0409008
-0.0170945
-0.00548018
-0.00244248
-0.00719706
-0.00780997
-0.00807296
-0.0158458
-0.0142639
-0.0098078
0.00276352
-0.0153098
0.0162478
-0.0143579
-0.028677
0.0340267
0.00196419
-0.0409305
6.72073e-06
0
4.3377e-05
0
0
4.01718e-05
-3.666e-05
1.62893e-05
-1.91889e-05
0.000105403
0
-6.1889e-05
0
0
0
0
5.80973e-05
0
0
-3.68872e-06
0
0
0
0
0
0
0
0
0
0
0.0587094
0
-0.222779
0.0518974
0.367281
-0.0115167
0.0560016
0.0273437
-0.0217124
0.0579468
0.0383855
0.0220781
0.0339337
0.030969
-0.0169976
0.00115611
0.0227455
-0.0102095
-0.0343683
0.00291524
0.0189973
0.0280742
0.0180856
-0.028167
0.0336607
0.00751377
0.00544258
0.00282147
0.0305982
0.026439
0.00969668
0.0101661
-0.0547984
-0.00337004
0.00248087
-0.044452
0.00106243
0.0251845
-0.0047153
0.0208402
0.00346804
0.054423
0.0174602
-0.0077719
0.0203486
-0.0007411
0.0287124
0.11371
-0.0353652
-0.00196319
0.0261563
0
-0.0112828
0
0
-0.0361154
-0.0474578
-0.00874147
-0.0190546
0.000609358
0
0
0
0
0
0
0
-0.0540094
-0.0593488
-0.0655531
-0.0680493
-0.0563471
0.034281
0.0781273
-0.136452
-0.0776132
0.0363744
-0.0309898
-0.00307298
0.0562666
-0.0502593
-0.0374856
0.00543984
-0.034861
-0.000817128
0.0428429
-0.00953443
0.0464336
-0.0226964
0.0470928
-0.00069513
-0.0265993
0.00146467
-0.00914833
-0.0125737
0.0165978
0.0095433
-0.00284473
-0.01312
0.0140943
-0.0194005
-0.00504228
0.0189723
-0.0175043
0.0310853
0.0167702
0.0139316
0.0123214
0.0335152
0.033213
-0.148607
0.0424153
-0.100087
-0.0884775
-0.0810277
0.0189947
-0.147575
0.000654406
-0.0504095
0.0114529
-0.0336374
-0.0414023
0.0258839
-0.00876944
-0.0294246
0.000982234
0.0538189
0.00848238
0.000876381
-0.0129246
-0.0214086
0.00918511
0.0179889
-0.0320128
0.0788689
0.0902909
-0.00718825
0.0586344
0.0731977
0.0175884
0.0280456
0.0225664
-0.0408269
-0.0240321
0.0197282
-0.00649828
-0.0134482
-0.0299426
0.00671135
0.0231355
-0.00932531
0.0156828
-0.00153976
-0.0227212
0.000376171
0.0156719
0.0404937
-0.0150744
0.0315667
0.0293372
0.0174456
0.0202304
0.0213278
-0.025614
0.00538788
0.0568853
-0.0263907
0.0920539
-0.0177514
-0.0609949
0.11627
0.00678537
0.0721464
0.127083
0.0525613
0.00179096
0.0913784
0.00500933
0.0144829
-0.00356789
0.0182095
-0.0277839
-0.020873
-0.0247669
-0.00572195
-0.026323
5.86418e-05
0.0385388
-0.0599304
-0.0374915
0.00871279
0.0105899
0.010433
-0.184193
0
0.0730654
-0.0140573
-0.0378968
0.0696894
-3.87132e-05
0.0159987
0.00229036
-0.0112034
0.0217863
-0.0139912
0.0028668
-0.0823951
0.0350969
0
0
0
0
0
0
0
0
0
0
0
0
0
0
0
0
0
0
0
0
0
0
0
0
0
0
0
0
0
0
0
0
0
-8.16621e-06
0
8.23803e-06
0
9.46468e-06
-5.32984e-07
5.12598e-06
1.2701e-05
-2.55938e-05
2.66932e-05
0
0
-4.59487e-06
0
0
0
0
0
0
0
0
0
0
0
0
0
0
0
0
0
-0.0290946
-0.0512761
-0.0293695
-0.0117258
-0.0644258
0.0439195
-0.060484
-0.0318074
0.0319043
-0.0405974
-0.0243044
-0.0172843
-0.0247721
-0.0244432
-0.0206906
-0.00104976
-0.0289738
-0.0015245
-0.0171484
-0.0188649
-0.00608749
-0.0133678
-0.0171189
-0.0119812
0.00671765
-0.0230955
-0.0221043
0.0327115
-0.0180926
0.0463755
0.0304267
0.0359587
0.00105975
0
1.33707e-05
0
0
0
0
0
0
0
0
0
0
0
0
0
0
0
0
0
0
0
0
0
0
0
0
0
0
0
0
0
0
0
0
0
0
0
0
0
0
0
0
0
0
0
0
0
0
0
0
0.0638858
0.0036658
0.0104551
0.0884281
0.111235
-0.00323092
0.0691145
0.0661862
0.0107836
0.0496307
0.0623786
0.000370707
0.0168626
0.0369008
-0.00405849
-0.0180071
0.0334119
0.0228759
-0.0500293
0.015659
-0.0536647
2.45389e-05
0
0
9.74715e-06
-2.52404e-06
0
0
2.90041e-05
0
0
0
0
0
0
0
0
0
0
0
0
0
0
0.0192515
-0.00678789
-0.0240319
0.0300659
0.0045336
-0.0066286
-0.0266155
0.00310714
-0.023022
-0.035278
0.0222159
-0.053206
-0.0310359
0.000532478
-0.0327081
-0.00477177
-0.0193079
0
-0.0130953
0
0
-0.0363039
0
0
-0.00416904
0
0.033464
-0.0523425
0.0322785
0.013213
0
0
0
0
0
0
0
0
0
0
0
0
0
0
0
0
0
0
-0.105042
0.149748
0.0322104
-0.108532
0.0504956
-0.0708315
-0.149415
-0.0486465
0.0389978
-0.0922301
0.135835
-0.108332
0.0378839
-0.0802693
-0.0653087
0.0212337
-0.144072
-0.074757
0.0457032
-0.0843278
-0.0601824
-4.18937e-05
-0.124105
-0.0332609
-0.0552099
-0.0385352
-0.0235506
0.115488
0.0259487
-0.01378
-0.0365063
-0.0462904
0.00542863
0.0037151
0.0100097
0.0169682
0.0138918
-0.00173391
0.009451
0.000234449
0.000520839
0.0151963
0.0323355
-0.0304564
-0.00514703
0.00295395
-0.0141036
-0.050695
0.136419
-0.0295924
0.0032593
-0.0782041
-0.136772
-0.00248241
-0.0662709
0
-0.0988145
0
0
-0.0024879
0.0611092
0.0080123
0.0449465
-0.0490313
-0.0117424
-0.00822188
0.0167129
-0.00985365
-0.0105452
0.00281454
0.0345262
0.0363194
0.0570111
0.0145415
0.0769595
-0.0563978
-0.0403605
0.0317598
0.000575218
-0.00771464
0.0214232
-0.0313584
0.033514
0.0714643
0.0584665
0.0268325
0.0346366
0.0232561
0.058008
0.0742494
0.0146031
0.0837089
0.023327
-0.00203435
0.0431263
0.0288128
-0.00792684
0.0407067
-0.00172802
-0.0130004
0.00961584
-0.0158339
-0.0142104
0.00540299
0.0901107
-0.0520609
0.00554085
0.0621961
-0.0273698
0.096663
0.0118605
-0.0823735
0.0735597
-0.023725
-0.0838996
0.112495
-0.016588
-0.0926213
0.157862
0.0142243
0.0950609
0.129889
0.030129
0.0458211
-0.0970689
0.0918238
-0.0882189
0.120706
-0.0401084
0.0454664
0.1215
0.0152187
0.130158
0.0217689
-0.105371
0.0939191
-0.102516
0.0089836
0.00901621
-0.10663
0.0845794
-0.104725
-0.0108511
-0.0154467
-0.0984554
0.0602985
-0.0937639
-0.0127822
-0.0178306
0.0775085
-0.00105203
-0.07174
-0.0434698
-0.0177631
-0.0367526
-0.0398019
-0.0370858
-0.0522392
-0.0301092
0.008382
-0.0574701
-0.00553238
0.05536
-0.0223958
0.024618
0.00864181
-0.0782444
0.052235
-0.0267227
-0.0440775
-0.000408696
-0.0109797
0.00181258
0.0371064
-0.00832675
0.0145156
-0.00984723
0.00505624
-0.0169112
0.00927831
0.00458902
-0.00365372
0.0460187
0
-0.00560915
0
-0.0461017
-0.0157933
-0.0121753
-0.112031
0
0
0.0206893
0
0.0349242
-0.0380309
-0.0326321
0.0113574
-0.0443831
-0.0288214
0
0
0
0
0
0
0
0
0
0
0
0
0
0
0
0
0
0
0
0
3.44394e-05
9.30484e-05
0
0
0
0
0
0
0
0
0
0
0
0
0
-2.66552e-05
-0.000118466
0
0
0
0
0
0
0
0
0
0
0
0
1.83793e-06
0
0
0
0
0
-1.07124e-05
1.94756e-05
0
-2.18512e-05
-2.56389e-05
-7.63845e-06
0
0
0
-1.37546e-05
0
0
0
-4.33869e-05
-1.96974e-05
-1.38052e-05
0
0
-8.71332e-05
-4.29465e-05
-5.90267e-06
-5.86269e-05
6.03535e-05
0
0
0
-8.65985e-05
0
0
0
0
0
0
0
0
0
0
0
0
0
0
0
0
0
0
-0.000103992
0
4.81965e-05
0
-5.59455e-05
0
-0.0189872
-0.0635398
0.0515954
0.00689953
-0.0669898
-0.0616263
-0.0597961
-0.0248171
-0.0370824
-0.0427205
-0.0118733
-0.00605453
-0.011222
-0.0170961
0.00266699
-0.023428
0.00108022
-0.0216067
-0.0182391
-0.0131641
-0.00332446
0.0196282
0.0166154
-0.0291029
-0.0152558
-0.000318529
-0.0210369
0.0152847
0.0130079
-0.034259
0.0344362
0.028519
-0.0148487
0
0
0
-2.99514e-05
3.38152e-05
6.15611e-05
0
0
0
0
0
0
4.32066e-05
0
-1.58579e-05
0
0
0
0
0
0
0
0
0
0
0
0
0
0
0
0
0
0
5.67134e-05
5.86632e-05
2.98871e-05
0
-5.37149e-05
0
0
0
0
0.0382511
0
-0.0649589
0.099628
-0.0123777
-0.02457
0.11023
0.0879331
0.0307517
0.0674265
0.102766
0.0466417
0.0264015
0.0781417
-0.0321049
-0.00563649
0.0570518
-0.0385689
-0.028816
0.0546652
0.0608667
-0.0473614
0.0718978
0.0395976
2.64949e-05
0
0
-4.50109e-07
0
2.69839e-05
0
-8.04239e-07
0
2.41077e-07
0
8.25296e-07
-8.6774e-07
0
0
0
0
0
0
1.65642e-05
0
0
-5.14692e-06
0
0
0
0
0
0
0
0
0
0
0
0
0.0013793
0
0.00318537
0.00110815
-0.019586
0.00744396
0.00335824
-0.00734295
0.00531409
-0.064585
-0.00861935
-0.00330435
-0.0149371
-0.00885975
0
0
-0.000478614
0.000331264
0
0
0
0
0
0
0
0
0
-0.0386614
0
-0.00301921
-0.0203304
-0.0189165
-0.0100781
0
0
0
0
0
0
0
0
0
0
0
0
0
0
0
-1.25353e-05
0
-1.28037e-05
-0.081393
-0.110659
-0.0232104
-0.105078
-0.146916
-0.0372609
-0.0770451
-0.135809
-0.0216491
-0.122373
-0.109205
-0.0520492
-0.0889137
-0.102927
0.000461929
-0.0746165
-0.0967322
-0.0207242
-0.0979799
-0.104604
0.00862812
-0.0834092
-0.0991782
-0.000511523
-0.0225249
-0.079016
0.0453162
0.0307192
-0.0622564
0.0758527
0.0569213
-0.0343804
-0.0806254
0.0713362
-0.0237639
-0.0769452
0.0265111
-0.0316025
-0.0616289
0.0962482
-0.0476379
-0.00469906
0.076821
0.0670608
-0.129485
-0.0684372
-0.0859617
-0.145737
-0.116146
0.0561976
-0.0901499
0.0530862
0.062261
-0.125074
-0.0589314
-0.0158626
-0.00863773
-0.0936609
0.120386
0.0261137
0
0
-0.039499
-0.0146323
0.0199108
-0.052316
0.00213885
0.033006
-0.0223861
0.00620282
-0.0130345
-0.0592288
-0.0115094
-0.0114688
-0.0878093
-0.00841989
0
-0.0554384
0
0
-0.321163
0
0
0
0
0
0
0
0
0
-0.0204815
0
-0.0102262
0
-0.0165191
-0.0133317
-0.0438872
-0.0191201
0.0158976
0.0277445
0.032542
0.039324
0.100153
-0.0473478
0.020886
0.0172414
-0.000429047
0.010373
-0.0258656
-0.0384572
0.0485505
0.103051
0.0435925
0.0272381
0.033171
-0.0386079
0.0301881
0.0436384
0.0467209
-0.00580109
-0.0476692
0.0171755
0.0152923
0.025043
-0.0053308
-0.0237055
0.00185317
0.00195157
0.0213769
0.0350442
-0.00672684
0.0358803
0.0163394
-0.000419048
0.00682186
0.0675693
-0.0731839
0.0246335
0.0992794
0.064133
0.0742201
0.0289855
-0.110644
0.0778883
-0.00156825
0.0957141
0.122883
-0.0156794
-0.0817655
0.130868
0.0357126
-0.0881973
0.098897
0.0526249
0.14137
0.139622
0.0349441
0.119362
0.116387
0.0205764
-0.113191
0.084678
0.0026269
-0.104082
0.0587301
-0.0209115
-0.080594
0.0265438
-0.0231499
-0.0514599
-0.0287459
-0.0184743
0.00774212
-0.0461938
-0.0172863
0.0441326
-0.0671922
-0.00829091
-0.0636506
-0.096154
-0.00829767
0.0865528
-0.115247
-0.0340208
-0.0150471
0.0895718
-0.109996
0.0781892
-0.0227975
-0.024566
-0.0931686
0.100848
0.0824969
-0.0226866
0.0893677
-0.0146467
-0.00977313
-0.00952663
0
0.0839815
0.0220443
0.038978
-0.0529487
-0.0230937
0.0418631
0.0589574
0.0203462
0.00473213
0.0151854
0
-0.0358017
-0.00750005
0
0
0
0
0.00187767
-0.00294539
0
0
0
-0.010661
0
0
-0.0002265
0.000214141
0.000329049
0
-4.70913e-05
0
0
0
0
0
0
0
0
0
0
0.000103889
5.39799e-05
0.000161797
0
0
0
-2.63429e-05
0
0.000110013
0
-4.3776e-05
0
0
0
0
0
0
0
0
2.46222e-06
-5.49404e-05
0
0
0
0
-0.000144652
0
0
0
0
0
0
0
0
-5.40295e-07
-1.66432e-06
0
0
0
0
0
0
0
0
0
0
0
0
0
0
0
0
0
0
6.65073e-06
-1.63243e-05
-1.70755e-05
0
0
0
0
0
0
-0.000127638
0
7.2564e-05
-5.49185e-05
0
5.36132e-06
0
-4.94706e-05
0
0
0
0
0
0
0
0
1.12499e-06
0
0
0
0
-0.00243102
-0.0546209
0.0506322
0.0273001
-0.053201
-0.0547146
-0.0358311
-0.0124233
-0.0237183
-0.0146022
-0.0132276
0.00417457
-0.0139334
-0.00407608
-0.0128465
-0.0173864
-0.00810116
0.00958989
-0.00936199
-0.0187867
-0.0141559
0.0202291
-0.00733656
-0.0343032
-0.000529465
0.0092584
0.0169999
0.0137858
0.00455132
-0.0207386
0.0297919
0.0124602
-0.02694
-3.49865e-05
0
-1.42517e-05
6.88124e-05
-9.52097e-06
-8.47645e-07
0
0
0
0
0
0
0
0
0
0
0
0
0
0
0
0
0
0
0
0
0
0
0
0
-8.15837e-05
0
0
0
0
0
0
0
0
0
0
0
-0.0585674
0
-0.0881768
0.0872321
-0.00983138
0.00422925
0.0800158
0.0609785
0.0322659
0.03664
0.101471
-0.0448664
0.00894264
0.0706294
0.0501138
-0.0153685
0.0726326
0.0599158
-0.0181668
-0.0363465
0.0676875
-0.0440549
0.0664741
-0.0685355
0
0
0
0
0
0
0
0
0
0
1.13649e-06
0
0
0
0
0
0
2.75976e-05
3.49815e-06
-0.00182319
0
0
0
-6.3874e-05
0
0
0
0
0
0
-0.00286315
0
0.000952579
0
0
0
0
0
0
0
0
0
0
-0.00191785
0
-0.0415011
-0.0309346
-0.0107929
-0.0392243
-0.0162303
0.0107803
0
-0.0183902
0
-0.00014767
0
0
0.00157059
-0.0761969
-0.029676
-0.00369908
0
0
0
0
0
0
-1.29027e-05
-1.85632e-05
2.75903e-06
0
-6.36278e-06
0
-0.00542315
0
0
0
0
0
0
2.43341e-07
0
-9.26219e-06
0
0
0
0
0
0
0
0
0
0
0
0
0
0
-0.0376849
-0.0636772
0.00555547
-0.0635439
0.0492077
-0.0166623
-0.011974
0.0216575
0.0539215
0.0545688
-0.0401362
0.0406884
-0.0532267
0.00495217
0.0478133
0.0505596
0.0949404
0.0780975
-0.00744149
-0.0842202
-0.0252552
0.0604572
-0.00355318
-0.0847126
0.0762481
0.00876115
0.0407195
0.0238037
-0.075017
0.0731185
-0.0327403
0.0317281
-0.0718894
0.0109799
0.0680576
0.0317789
0.0953514
0.0491306
-0.0267442
0.0950505
0.0630235
0.0169002
0.0960104
0.0679347
-0.0263837
-0.081667
-0.090435
-0.0130073
-0.0845622
-0.131484
-0.0115145
-0.0936676
-0.111425
0.0247085
-0.117344
-0.0884156
-0.0421135
-0.074213
-0.105009
-0.00430551
-0.0688492
-0.0746147
-0.00289686
-0.106242
-0.105082
0.0194846
-0.0304868
-0.082776
-0.045517
0.0206121
-0.0744785
-0.0807049
0.0478382
-0.0620977
-0.0887759
0.0601553
-0.0480878
-0.0930876
0.0658849
-0.0323915
-0.0778324
0.0183896
0.0743219
-0.0435997
-0.00789739
0.0706538
-0.0534538
-0.0585595
-0.156783
-0.0473888
-0.0734478
-0.0348477
-0.114014
0.0663349
-0.137119
-0.104709
-0.0503437
-0.00273247
-0.00697493
-0.033693
0
-0.122085
-0.0823071
-0.0828723
-0.0982221
0.011091
0.0966361
-0.0849331
0.0146157
-0.0935096
-0.0549627
0.0102432
0.086944
-0.0403276
0.0327222
0.0795079
-0.0496696
0.0395802
0.0710197
-0.0324519
0.0223541
0.0645006
-0.00766731
0.0241528
0.0558758
0.0413621
0.0151514
0.0538451
0.0493075
0
2.0847e-05
3.18951e-05
0
0.00430526
-0.00307561
0.0299006
0.0103052
0.00804485
-0.026809
-0.00379272
0.0207984
1.43701e-05
0.00583895
-1.18592e-05
3.53952e-05
-2.78112e-05
-1.85431e-05
0
-5.1229e-05
0
0
0
0
0
0
0
0
0
0
0
0.00145381
0.00205374
-0.0496031
0.01138
0.00860355
0.010673
0.0452981
-0.100724
0.0161591
-0.0457334
0.0432742
-0.0308842
-0.00538968
0.0296579
0.0612581
0.0733846
0.0417411
-0.0410464
0.0108589
0.00278307
-0.00808963
0.026525
-0.0209405
0.00829849
0.05663
-0.0440243
0.0348491
0.091869
-0.0303256
0.0381274
0.0103218
0.01807
0.0639685
0.0494346
0.0273807
0.0215631
0.0518811
0.0105614
0.0540857
0.0577369
-0.00283893
0.0906989
0.0426046
-0.0388709
0.0656931
0.164396
-0.101944
0.0549368
0.155206
0.0779933
0.130193
0.0616463
0.117453
0.0960933
-0.00315731
-0.119632
0.114867
-0.00847536
-0.0766324
0.100304
0.0470531
0.164644
0.132057
0.0193365
0.13149
0.131723
0.0290792
-0.119034
0.106395
0.00646134
-0.109766
0.0643586
-0.00972675
-0.0856311
0.0338372
-0.0212141
0.0578153
-0.0239949
-0.0185218
-0.00410987
-0.0599595
-0.0221277
-0.0481527
-0.0716148
-0.0166094
-0.0863182
-0.0941989
0.0033116
0.114086
-0.107187
0.0141144
-0.11711
-0.119368
0.00492158
-0.110952
-0.105238
-0.00513686
0
-0.00337063
0.011154
0
-0.0208837
0
0
-0.0285718
0
0
-0.0361281
0
-0.00264144
-0.0116936
-0.00365236
0
0
0
0
7.45322e-06
0
0.00013783
0
0.0029895
0
0
-0.000122665
0
-0.000204584
0
-0.000255556
0
-1.28664e-05
0
0
0
0
0
0
0
0
5.26871e-05
-2.98454e-06
0
0.000108119
0
0.000103505
8.03221e-06
1.56014e-05
1.16383e-05
0
0
0
0
0
0
0
0
0
0
0
0
6.21315e-06
0
-0.000155973
0
0
0
0
0
0
0
0
0
0
0.0030885
0.00193636
0
-3.30228e-06
-3.86468e-07
0
0
0
0
0
0
0
0
0
0
0
0
0
0
0
0
-2.75496e-05
-2.88613e-05
-3.4189e-05
0
0
0
-6.81866e-05
1.00962e-05
0
0
0
0
0
0
0
0
0
0
0
0
0
0
0
0
0
0
0
0
0
0
0
0
0
0
0
-1.08519e-05
0
-1.54486e-05
0
0
0
-6.91725e-05
0
2.04622e-05
0.0363613
0.0286122
-0.0514464
-0.00262583
0.0651596
-0.0500171
0.0731161
0.0244444
0.0112042
-0.0249593
-0.0312815
0.0263345
-0.0323165
0.040772
-0.0128773
-0.00350977
-0.0119817
-0.0203298
-0.00995866
-0.0175702
-0.00981683
-0.000748185
-0.0123379
-0.000635178
-0.0147187
-0.00254951
0.00465602
-0.00823849
-0.0252651
0.00127827
6.02232e-05
0.00542092
0.014987
0.00553152
0.0265814
-0.014895
0.0285678
4.04852e-06
0
0
0
0
0
0
0
0
0
0
0
0
0
0
0
0
0
0
0
0
0
0
0
0
0
0
0
0
0
0
0
0
0
0
0
0
0
0
0
0
-0.0625592
0.0149776
0.052755
-0.00261648
-0.00857694
-0.0117697
-0.0148392
-0.025275
0.0557072
0.0187249
0.0151718
0.0374019
0.0386487
0.0132034
0.0470635
0.040735
0.00751641
0.0588621
-0.0487577
-0.0106879
0.0466157
0.0464214
-0.0510837
0.0407874
0
0
1.02741e-05
3.72052e-07
0
0
0
0
0
0
0
0
0
0
2.40196e-05
0
0
0
0
0
0
0
0
0
0
0
0
0
8.63984e-06
1.24724e-05
0
0
0
0
0
0
0
0
0
0
0
0
0
0
0
0
0
0
0
0
0
0.000207507
0
-0.000277026
0.0012314
-0.0529515
-0.020151
0.0135683
-0.0111891
0.0129172
0.006891
0.00885974
0.0134726
0.0773156
0
-0.00868153
0
0
0
0
0.0172223
-0.00266993
0.0020638
0
0
0
0
0
0
0
0
0
0
0
0
0
0
0
0
0
0
0
0
0
0
0
0
0
0
0
0
0
0
0
0
0
0
0
0
0.0349727
0.0490122
0.00950265
0.00878372
0.0471781
0.0359577
-0.00344194
0.0317859
-0.0334513
-0.034835
0.0458725
-0.0263234
0.0655281
0.0669347
0.0079283
0.0390394
0.0594621
0.0206975
0.0336896
0.0603483
-0.0220786
0.0387419
0.0534512
-0.00539987
0.0736909
0.0402429
0.0246733
0.0794932
0.054132
-0.0169589
0.0637215
0.0598156
0.00288592
-0.0828236
-0.0666805
0.00516089
-0.0807461
-0.0953257
-0.0229426
-0.106428
-0.097649
-0.0315811
-0.0884366
-0.0787941
0.0129838
-0.0747874
-0.132152
0.0203703
-0.0640708
-0.0618119
-0.00849542
-0.0226333
-0.108984
-0.0411665
0.0472261
-0.0884401
-0.0643791
-0.0301952
3.84327e-05
-0.090465
-0.0712705
0.0295942
-0.0794196
-0.0853957
0.0427677
-0.0637225
-0.0884713
0.0497474
-0.0523811
0.0749686
0.0526655
-0.0307391
0.0655002
0.0107401
0.0687787
0.0285499
0.0102458
0.0564757
-0.0526555
-0.0743501
-0.0434029
0.0117866
-0.0678759
-0.11611
0.0101259
-0.0575623
-0.154876
0.0567193
-0.113893
-0.0942196
0.0230687
0.0475668
-0.0507319
-0.0656019
0
-0.0503782
0.0613962
-0.082302
-0.109079
0.021096
-0.117293
-0.0735693
0.032217
-0.106239
-0.0807268
0.0995293
0.0309466
-0.0469163
0.0173918
0.0908064
-0.0343942
0.0446591
-0.0823825
-0.0537437
0.0466003
0.0801126
-0.0347383
0.023386
-0.0681836
0.00273543
0.0368393
0.0614511
0.0207677
0.0677707
-0.0557079
-0.070588
0.041263
-0.0753454
0.102842
0.0323303
0.0630627
0.0767988
0.0385123
-4.5367e-05
3.72306e-05
0.00013551
-0.000124474
-0.000527305
6.16447e-05
0
-0.0453698
0
0
0
0
-0.000159049
0
0
0
0
0
-9.64874e-05
0
3.70078e-05
0
-1.66328e-05
-2.15584e-05
0
0
0
0
4.21168e-05
3.50903e-05
0
-0.000931378
0
0.0215209
0
-0.0286819
0.0313264
-0.00429686
0.0237772
0.144563
0.0472544
0.0866661
0.0158904
0.0555455
-0.0617976
-0.0292264
-0.0418216
0.0105151
0.00793867
0.0179995
0.0562485
0.00753457
0.0166274
-0.036791
0.0525029
0.0781637
0.0702916
0.0445679
0.0513753
-0.00166563
0.0604734
0.0452112
-0.0278333
0.062065
-7.88644e-05
-0.0171119
0.0497391
0.0709641
-0.0269513
0.0468886
0.0383208
0.00524965
0.111707
0.0384205
-0.0541339
0.0605082
0.155115
-0.0888743
0.0342733
0.139409
-0.0745014
0.11058
0.0348414
-0.10062
0.0672549
0.0200579
-0.0990437
0.101758
-0.0414956
0.152269
0.0450364
-0.12515
0.142787
0.0129066
-0.112597
0.106549
0.00984828
-0.101738
0.0786689
-0.00727349
0.083664
0.041882
-0.00635436
-0.0535225
-0.00734323
-0.00693943
0.00123557
-0.0743581
-0.00682768
0.0453325
-0.104213
-0.0320481
0.0941657
-0.107518
-0.0133505
0.141255
-0.0988401
0.0321577
-0.144384
-0.106091
0.0493551
-0.136262
-0.127693
0.0344476
0
0
0
0
0
0
0
0
0
0
0
0
0
0
0
0
0
0
0
0
0
0
-0.000258527
0
0
0
0
0
0
-3.60132e-06
0
0
0
0
0
0
0
-0.000481894
0
0.000334355
0
-0.000185545
-1.69993e-05
5.1877e-05
3.58742e-05
0
1.5048e-05
0
0
0
0
0
0
0
0
0
0
0
0
0
0
0
0
0
0.0031171
-0.00255616
-6.1676e-05
0
0
0
0
0
-3.68586e-06
0
0
-0.00459743
0
-0.00224624
0
-0.0118799
0
0
3.16183e-05
-5.53551e-05
6.79693e-06
0
-3.32054e-05
0
0
0
0
0
0
0
0
0
2.74406e-05
1.42512e-05
8.77578e-05
0
-2.68994e-05
0
-6.2985e-05
0.000120088
-0.000121642
0
5.24662e-05
0
0
0
0
1.23696e-05
0
-7.22231e-05
0
-2.43912e-05
-3.1047e-05
0
0
0
-1.50461e-06
-9.49245e-06
0
0
-2.84074e-05
0
-1.10625e-05
0
0
0
0
0
9.46417e-06
0
0
0
0
0
-7.70978e-06
0
9.1137e-06
0
0
0
-5.33799e-05
0
0
0
0
0
0
0
0
0.0551851
0.0230475
0.0744146
0.0339754
0.0395644
0.0466888
0.0425659
0.036492
0.0679646
0.0399363
0.0351262
-0.0787102
0.0671881
-0.0393986
0.0116315
-0.0142854
0.017446
0.00224446
-0.0162181
-0.0138428
-0.0102644
0.00317051
0.00846481
0.00410144
-0.00820917
-0.0010222
0.00908591
-0.00422049
-0.00325947
0.00137914
-0.00749736
0.015762
-0.00384704
-0.0209112
0.0185656
0.0118743
0.00446134
0.0357068
-0.0274309
0.00349597
0
0
0
0
0
0
0
0.017398
0.0131986
0
0
5.59179e-06
-0.0122891
-0.0349958
1.72832e-05
0
0
0
0.00392229
0
0
0
-1.1674e-05
0
0
0
0
-7.69752e-07
0
1.50792e-06
0
7.36453e-07
0
0
0
0
0
0
-0.000799412
0.00838841
0.00683342
0.00928373
-0.0592537
-0.0153333
0.0306281
-0.036817
-0.0116026
0.0123426
-0.014479
0.00591546
-0.0155896
-0.0108568
0.0106855
-0.00494209
0.0166188
0.0167663
0.0098688
0.00667845
0.0177884
-0.00334446
-0.00323672
-0.00147566
2.12853e-07
0
0
9.91232e-07
6.30097e-05
-8.70024e-06
8.16063e-05
0
-1.86514e-05
0
1.92888e-07
0
-4.6853e-06
0
4.88785e-06
0
0
0
0
0
0
0
8.57663e-05
0
0.000109225
0.000485482
-2.33897e-05
0
1.06145e-05
0
0
-3.16873e-05
0
-2.6859e-06
0
0
0
0
0
0
0
0
0
0
-2.66411e-05
0.0001124
0
0
0
0
0
0
0
0
0
0
0
0
0
0
0
0
0
0
0
0
-0.00204
0.00381915
0.0247769
0.0182779
0.00418482
-0.0281149
0
0.016057
-0.025809
0
0
0
0
0
0
0
-3.53261e-05
-2.06844e-05
2.32985e-05
0
0
0
0
-2.25013e-05
0
0
0
0
0
0
0
0
0
0
0
0
0
0
0
0
0
1.96001e-05
1.21347e-05
-6.61831e-05
0
7.22982e-05
0
0
0
0
0
0
0
0
0
-7.28785e-06
0
2.9314e-05
0.0138816
0.035942
-0.00369691
-0.00829979
0.0342659
-0.0235943
0.000182436
0.0244757
0.0569773
-0.0044464
-0.00786887
0.0444269
0.0124221
0.0183463
0.0736562
-0.0258933
0.0256984
-0.0233394
-0.0569727
-0.00835435
0.0438503
0.0526079
0.00913116
0.0415985
0.0579795
0.0119004
0.0543465
0.0546548
-0.00271944
0.0396264
0.0554215
0.00426984
0.0728889
0.0343887
0.0218221
0.0529916
0.0490933
0.00144161
0.0420813
0.0593032
0.00809147
-0.0687997
-0.0413054
0.00719614
-0.0793694
-0.0628115
-0.0476048
-0.0870349
-0.0719943
0.0355645
-0.0648088
-0.0710507
-0.0209771
-0.0350689
-0.0565773
0.00177396
-0.0513132
-0.0378393
-0.00616019
-0.0915117
-0.0228087
-0.0509214
-0.0579029
-0.0317864
0.031684
0.007217
-0.0763813
0.0739992
0.0176279
-0.0704286
0.0671019
0.0266264
-0.054628
-0.0630579
0.0461016
-0.0280332
-0.0586869
0.0468727
-0.022435
0.0154758
0.0342077
0.0678901
-0.0365708
-0.0173214
0.0632728
0.0127863
-0.135711
-0.0882778
-0.036903
-0.0896723
-0.0999323
-0.00552101
-0.057044
-0.145362
-0.0217937
-0.0959692
-0.080901
0.0227983
0.0137378
-0.0592633
-0.0183828
0.00717521
-0.0536956
-0.0320856
-0.0919938
-0.0867357
0.0495054
0.133792
-0.0754332
0.0403596
-0.127487
-0.113808
0.0493883
-0.065378
-0.0695845
0.0554875
0.113731
-0.0407415
0.0249336
-0.0926406
-0.0288654
0.0525796
0.0848103
-0.0418193
0.0616511
0.0767214
-0.0205904
0.0360389
0.0718264
0.0184367
0.0577041
-0.0552882
0.023939
0.0752991
-0.0538354
0.0490757
-0.0653567
-0.0975229
0.0252174
0.0628564
0.0379201
-8.43714e-05
0
0
0
0
0
0
0
0
0
0
0
0
0
0
0
0
0
2.15691e-05
0
0
0
0
0
-1.2326e-05
0
-5.19915e-05
0
-2.87593e-05
0
0
0
0
-0.00558145
0
-0.11119
0.0510746
-0.00150252
-0.0158131
0.112308
0.00984804
-0.0928038
-0.0583758
0.0347283
-0.00935079
-0.00274927
-0.0304883
-0.0373434
-0.0176718
-0.0362153
-0.0805235
0.0115766
0.0569287
-0.0365453
0.0217637
0.00333762
0.0210194
0.00994512
0.0669629
0.0146259
0.0410513
0.0121252
0.00647945
0.00165764
-0.0228218
0.00733548
0.00990255
0.0554387
0.0364093
0.00802353
0.0398438
-0.0233258
0.104548
0.0180984
-0.057008
0.0382681
0.121838
-0.0873655
0.0291664
0.126801
-0.0817052
0.098169
0.0409361
0.0827109
0.155407
0.000479162
-0.103782
0.119678
0.0453028
-0.0946652
0.103768
0.0134398
-0.0931872
0.0799382
0.0029056
-0.0798145
0.0525617
0.00372957
-0.0486049
-0.0059517
0.00615223
0.00742155
-0.0539873
0.00468058
-0.0478547
-0.131291
-0.0108795
0.0996196
-0.151508
-0.0391927
0.1575
-0.111518
0.00440925
0.172595
-0.08338
0.0608808
-0.180535
-0.132159
0.101972
0
0.00538067
0.0036842
0
0
-9.58767e-07
9.46485e-07
0
0
0
0
0
0
0
0
0
3.31075e-05
0
-9.27745e-05
2.55053e-05
0.00024714
-0.000100453
2.15852e-05
-1.1274e-05
-0.000122142
0
-0.000204713
2.80132e-05
0
0.00991707
-0.00110956
0
0
0
5.88331e-05
0
-8.89662e-06
-0.000439115
0.000182805
0.000229898
0
-0.000275356
0
0
0
0
0
0
0
0
0
0
0
-8.91104e-07
2.65838e-07
0
0
0
0
0
0
0.00613617
0
0.00381489
0
0.00408775
0
0
0
0
0
0
0
0
-2.37135e-05
0
0
0
0
0
0
0
0
0
0
0
-3.8565e-05
0
0
0
0
0
0
0
0
0
0
0
-0.000284692
5.4372e-06
9.98326e-05
-0.000257881
-0.00018443
-3.90301e-05
0
0
0
0
0
0
0
0
0
-9.1352e-05
0
0
0
0
0
0
0
0
0
-9.06299e-05
7.95599e-05
0
0
0
-0.00016421
0
0
0
0
0
0
0
0
0
0
0
0
0
0
0
0
0
0
0
0
0
0
0
0
0
0
0
0