/*--------------------------------*- C++ -*----------------------------------*\
  =========                 |
  \\      /  F ield         | OpenFOAM: The Open Source CFD Toolbox
   \\    /   O peration     | Website:  https://openfoam.org
    \\  /    A nd           | Version:  8
     \\/     M anipulation  |
\*---------------------------------------------------------------------------*/
FoamFile
{
    version     2.0;
    format      ascii;
    class       volScalarField;
    location    "15240";
    object      Hclip;
}
// * * * * * * * * * * * * * * * * * * * * * * * * * * * * * * * * * * * * * //

dimensions      [0 1 0 0 0 0 0];

internalField   nonuniform List<scalar> 
526318
(
0.95807
0.918871
1.00348
0.906513
0.979448
0.913396
0.943288
0.862611
0.928993
0.80138
0.787524
0.902097
0.855265
0.896235
0.854828
0.880329
0.858898
1.04401
0.971977
0.994331
1.00624
0.958677
0.711146
0.949721
0.846381
0.706759
0.971907
0.975414
0.978907
0.993582
1.01616
1.05842
1.05083
0.931045
0.934868
0.887176
0.901345
1.00844
0.928695
0.852604
0.951695
0.894806
0.55919
0.623036
0.526408
0.568678
0.548645
0.6651
0.847294
0.752981
0.82932
0.832038
0.79085
0.742725
0.241766
0.497668
0.484166
0.293826
1.0089
1.01822
1.03207
0.990721
0.937215
1.05042
1.05808
1.02257
1.01554
0.996996
0.911762
0.912414
1.01064
0.790744
0.852884
0.739872
0.692907
0.698847
0.784434
0.788006
0.692547
0.739024
0.814868
0.812378
0.770486
0.721281
0.764224
0.822574
0.82137
0.792672
0.756777
0.822854
0.729275
0.672182
0.670909
0.602729
0.597142
0.600002
0.604811
0.596842
0.595767
0.594567
0.0233409
0.001
0.064698
0.0952501
0.153036
0.001
0.50124
0.320677
0.627818
0.597462
0.636672
0.745609
0.981641
0.865889
0.980672
0.990433
1.06501
1.02031
1.0654
0.59125
0.591678
0.593837
0.59901
0.552254
0.590851
0.504193
0.546437
0.455009
0.504562
0.455425
0.454278
0.445672
0.420007
0.413015
0.439835
0.383415
0.437985
0.38589
0.404251
0.349137
0.354815
0.374949
0.406541
0.391355
0.348192
0.348114
0.363931
0.352045
0.348908
0.35496
0.369037
0.354587
0.358661
0.357917
0.358849
0.325124
0.359184
0.358789
0.324026
0.281698
0.358852
0.309529
0.366726
0.858263
0.950215
0.898898
0.876111
0.686472
0.748375
0.690649
0.691378
0.69631
0.690003
0.709806
0.683999
0.621857
0.591952
0.556781
0.504204
0.562464
0.599188
0.603966
0.599462
0.487271
0.541896
0.428003
0.436916
0.446625
0.436282
0.438532
0.442858
0.429214
0.434332
0.42888
0.416225
0.399865
0.423305
0.416234
0.386706
0.366058
0.395389
0.377694
0.370877
0.389808
0.379751
0.382847
0.344752
0.365453
0.39378
0.394696
0.835898
0.840724
0.872078
0.89005
0.85204
0.833239
0.851809
0.729687
0.742861
0.50659
0.489357
0.481678
0.604626
0.748734
0.615581
0.653395
0.665301
0.606872
0.577353
0.086471
0.001
0.228918
0.424155
0.001
0.001
0.001
0.001
0.001
0.001
1.0641
1.02743
1.09542
1.07925
1.06367
1.04097
0.932118
1.03048
0.879593
0.836145
0.82254
0.82131
0.826081
0.832716
0.804155
0.80729
0.731106
0.789193
0.606533
0.666203
0.592203
0.605133
0.00100536
0.001
0.001
0.00100202
0.0701029
0.0168215
0.072408
0.221002
0.603057
0.416767
0.655651
0.655625
0.766958
0.867641
0.986355
0.995969
1.03138
1.00339
1.07145
1.09937
0.572227
0.571401
0.531235
0.503549
0.401801
0.43712
0.36737
0.373852
0.365984
0.358881
0.347112
0.3534
0.280178
0.304639
0.340198
0.37551
0.431749
0.397117
0.363125
0.355517
0.29484
0.284043
0.335229
0.387758
0.312228
0.347985
0.34772
0.317292
0.314916
0.282763
0.278422
0.241486
0.238619
0.244522
0.233153
0.360234
0.395809
0.354128
0.394873
0.749216
0.732934
0.610022
0.710988
0.627135
0.674745
0.685688
0.672238
0.687229
0.682096
0.599898
0.512254
0.441253
0.423695
0.499265
0.442276
0.424204
0.542576
0.429242
0.476101
0.418949
0.417945
0.427672
0.41838
0.432402
0.426478
0.426721
0.428861
0.427078
0.427715
0.43685
0.431934
0.443805
0.442551
0.444363
0.422475
0.437582
0.420041
0.393753
0.393816
0.419786
0.450073
0.442517
0.419152
0.400733
0.425681
0.467736
0.467696
0.48194
0.443815
0.476909
0.493374
0.531979
0.480835
0.48787
0.513744
0.54464
0.666517
0.768614
0.663243
0.670546
0.781334
0.823088
0.736778
0.614445
0.71818
0.614812
0.643656
0.379114
0.316977
0.355473
0.333411
0.458771
0.58237
0.503112
0.586026
0.571643
0.601756
0.575714
0.001
0.0012088
0.151227
0.001
0.23051
0.11997
0.001
0.00100998
0.001
0.00100962
0.001
0.00100889
0.001
0.001
0.001
0.001
1.08932
1.05944
1.10646
1.10094
1.0783
1.04961
0.972498
0.893414
0.811378
0.831213
0.819595
0.810247
0.789993
0.788296
0.774594
0.769932
0.718597
0.763876
0.688398
0.628336
0.573676
0.532331
0.001
0.0010738
0.00107381
0.001
0.001
0.001
0.001
0.00107381
0.00107385
0.00107381
0.00100999
0.00100984
0.001
0.00100942
0.001
0.001
0.001
0.001
0.001
0.001
0.0361689
0.001
0.139098
0.107253
0.307747
0.155647
0.516577
0.674216
0.690096
0.774747
1.00296
0.904652
1.01251
1.00954
1.03267
1.05916
1.08718
1.11054
0.489338
0.492033
0.444853
0.469819
0.408042
0.375444
0.367009
0.36553
0.359857
0.366195
0.316127
0.310308
0.257333
0.273853
0.329089
0.302939
0.275075
0.320623
0.318029
0.337209
0.241244
0.232239
0.255747
0.265687
0.266756
0.224837
0.228883
0.224324
0.231501
0.215576
0.210021
0.51228
0.486107
0.485524
0.486976
0.506703
0.613971
0.571818
0.551149
0.433259
0.480035
0.462084
0.468082
0.367336
0.304204
0.474202
0.608473
0.478421
0.492721
0.469531
0.551246
0.530619
0.609315
0.641215
0.559633
0.543586
0.574752
0.450882
0.427814
0.422086
0.427221
0.338526
0.392466
0.320025
0.270687
0.252331
0.369988
0.370574
0.417515
0.417393
0.417372
0.420289
0.4179
0.423798
0.419883
0.430833
0.423612
0.443092
0.437689
0.444712
0.443366
0.468078
0.454301
0.480724
0.482381
0.43075
0.414521
0.47891
0.46392
0.451607
0.466589
0.451301
0.439001
0.491135
0.469148
0.570583
0.581283
0.531779
0.57368
0.577581
0.546587
0.639565
0.607849
0.678062
0.70116
0.72243
0.63209
0.62717
0.644136
0.600759
0.574929
0.551891
0.649016
0.491328
0.46888
0.519324
0.536575
0.215892
0.270289
0.342848
0.479142
0.497708
0.548408
0.452518
0.40425
0.37004
0.309966
0.001
0.001
0.0361888
0.001
0.158903
0.220068
0.001
0.001
0.00100979
0.001
0.001
0.001
0.001
0.001
0.001
0.001
0.001
0.001
0.001
0.001
0.001
0.00101
0.001
0.001
0.001
0.001
0.00119373
0.001
0.001
0.001
0.00119354
0.00119353
0.001
0.001
0.001
0.001
0.001
0.001
0.001
0.001
0.00100959
0.001
0.00100965
0.001
0.001
0.001
1.07205
1.07735
1.10124
1.10201
1.07334
1.01488
0.818041
0.914777
0.796703
0.791415
0.76773
0.772066
0.761184
0.76927
0.755816
0.758022
0.702651
0.670444
0.572871
0.616141
0.471939
0.510299
0.001
0.001
0.001
0.001
0.001
0.001
0.001
0.001
0.00101
0.001
0.001
0.001
0.001
0.001
0.001
0.001
0.001
0.00100737
0.001
0.001
0.001
0.001
0.001
0.001
0.001
0.001
0.00101
0.001
0.001
0.001
0.174035
0.001
0.197347
0.197039
0.490275
0.321035
0.702019
0.65869
0.724381
0.828505
0.935277
1.01367
1.0253
1.01798
1.05372
1.09251
1.0673
1.07558
0.00115197
0.001
0.001
0.001
0.001
0.001
0.001
0.001
0.001
0.001
0.001
0.001
0.001
0.001
0.001
0.00101
0.001
0.470468
0.472986
0.471315
0.435905
0.357293
0.391152
0.318175
0.309899
0.277199
0.269071
0.224149
0.22301
0.25389
0.248486
0.209523
0.247311
0.241665
0.291453
0.273221
0.273942
0.193601
0.161171
0.161499
0.210522
0.215473
0.214933
0.191139
0.196739
0.15442
0.143678
0.109325
0.11541
0.712082
0.679819
0.720174
0.730849
0.677364
0.634576
0.804247
0.825001
0.889126
0.898855
0.442973
0.488876
0.534371
0.622659
0.443707
0.388236
0.424056
0.422473
0.267197
0.315133
0.365395
0.251194
0.469571
0.471084
0.465214
0.469334
0.489978
0.464131
0.481789
0.497078
0.376843
0.372662
0.266573
0.356707
0.344854
0.308021
0.255643
0.277337
0.218613
0.239557
0.216119
0.303776
0.365984
0.302424
0.367734
0.418405
0.417862
0.418614
0.419736
0.422939
0.442987
0.436889
0.454855
0.448336
0.469749
0.463451
0.485798
0.485473
0.486622
0.48652
0.49428
0.490053
0.531129
0.501218
0.467803
0.467054
0.533621
0.501857
0.509796
0.549486
0.588851
0.588884
0.590108
0.58924
0.617678
0.675179
0.734662
0.757221
0.76535
0.744597
0.887436
0.822195
0.949904
0.989393
0.982264
1.02024
1.07665
0.941843
1.02681
1.05004
1.12373
1.17347
1.19956
1.21955
1.2487
1.19405
1.24882
1.2064
1.28594
1.2867
1.33536
1.30381
1.36596
1.39627
1.38617
1.33574
1.40119
1.42374
1.38965
1.38714
1.45343
1.4297
1.46431
1.4022
1.40182
1.46499
1.42654
1.38683
1.38479
1.41998
1.45176
0.437448
0.403986
0.580263
0.581976
0.530016
0.525152
0.54073
0.304462
0.433641
0.142799
0.166209
0.268845
0.248123
0.129213
0.211219
0.185926
0.374556
0.282577
0.273551
0.185544
0.173961
0.190343
0.206762
0.001
0.00101
0.011141
0.001
0.00964629
0.001
0.00101
0.001
0.001
0.001
0.001
0.00170422
0.001
0.001
0.001
0.001
0.001
0.001
0.001
0.001
0.00137636
0.001
0.001
0.001
0.001
0.001
0.001
0.001
0.001
0.001
0.00100829
0.001
0.001
0.001
0.00100928
0.001
0.001
0.00104572
0.001
0.00100665
0.001
0.001
0.00101
0.001
0.00103588
0.001
0.00103587
0.001
0.00100234
0.001
0.00101
0.00101
0.001
0.001
0.001
0.001
0.001
0.001
0.001
0.001
0.0010078
0.001
0.001
0.001
0.001
0.001
0.001
0.001
0.001
0.00101
0.001
0.001
1.06462
1.05154
1.02728
1.03522
0.933635
1.01885
0.840855
0.779238
0.772424
0.755829
0.764133
0.766375
0.702003
0.70432
0.550835
0.513959
0.472576
0.640928
0.648475
0.591407
0.593448
0.593533
0.001
0.001
0.00117758
0.00117689
0.001
0.001
0.001
0.001
0.00117644
0.001
0.001
0.00100893
0.001
0.001
0.001
0.001
0.001
0.001
0.001
0.001
0.001
0.001
0.00140734
0.00140746
0.001
0.001
0.0411131
0.19556
0.322997
0.19313
0.488304
0.654369
0.688554
0.716597
0.798084
0.914929
0.981915
0.953355
1.00792
0.934212
0.977722
1.0247
0.995005
0.970229
0.00101894
0.001
0.00100993
0.001
0.001
0.00119312
0.001
0.001
0.00119312
0.001
0.001
0.001
0.001
0.001
0.001
0.001
0.001
0.001
0.00101
0.001
0.001
0.001
0.001
0.001
0.00205636
0.00101122
0.446412
0.44562
0.364818
0.381966
0.256938
0.282526
0.219799
0.219771
0.216367
0.21804
0.18933
0.193128
0.170964
0.169576
0.145799
0.182035
0.259199
0.226656
0.265952
0.261346
0.0837626
0.106415
0.14484
0.122936
0.13335
0.137382
0.080711
0.0736908
0.0616411
0.076625
0.0852696
0.0798749
0.931922
0.933691
0.761131
0.675908
0.661275
0.649607
0.930916
0.843704
1.08969
1.16383
1.06023
0.985998
1.17658
1.16018
1.2249
1.27227
1.30295
1.30258
1.33251
1.30439
1.35855
1.38525
1.38239
1.38223
1.39635
1.38558
1.38624
1.43296
1.37688
1.36975
0.497163
0.421766
0.563753
0.638873
0.42317
0.371434
0.423404
0.422481
0.256017
0.30512
0.135945
0.30459
0.193576
0.467465
0.409787
0.468596
0.461678
0.46739
0.363206
0.265709
0.186328
0.171099
0.183829
0.218081
0.145229
0.146098
0.06628
0.149089
0.232641
0.222533
0.142872
0.245188
0.313788
0.261422
0.366201
0.314191
0.355304
0.4105
0.446763
0.423241
0.457174
0.457796
0.469633
0.458742
0.492909
0.502586
0.503425
0.516603
0.522338
0.524787
0.554766
0.568352
0.558708
0.552442
0.55479
0.548865
0.565218
0.58146
0.628599
0.620993
0.589054
0.622524
0.619052
0.64874
0.682957
0.746756
0.776866
0.775111
0.785187
0.857342
0.936721
1.01237
1.02444
1.15036
1.02541
1.07444
1.22333
1.24859
1.2489
1.28659
1.33694
1.38636
1.39714
1.40135
1.42793
1.4569
1.48253
1.47448
1.49141
1.48469
1.48139
1.45089
1.4003
1.46498
1.43198
1.38314
1.38488
1.415
1.44917
1.45847
1.38487
1.44569
1.40587
0.221787
0.221282
0.291693
0.371897
0.261181
0.322006
0.467563
0.403427
0.421891
0.255745
0.165621
0.128893
0.13099
0.233976
0.22062
0.001
0.00816535
0.18006
0.0789065
0.184203
0.181734
0.184519
0.186197
0.191432
0.233541
0.001
0.001
0.001
0.001
0.00149371
0.0014978
0.001
0.001
0.001
0.0017041
0.001
0.001
0.001
0.001
0.001
0.00101
0.001
0.00137602
0.001
0.00101
0.001
0.001
0.001
0.001
0.001
0.001
0.00105195
0.001
0.001
0.001
0.001
0.001
0.001
0.001
0.001
0.001
0.001
0.001
0.001
0.001
0.001
0.00102285
0.001
0.001
0.001
0.001
0.001
0.001
0.001
0.00101
0.001
0.00100962
0.001
0.001
0.001
0.001
0.001
0.001
0.001
0.001
0.98465
0.960622
0.960923
0.95792
0.882998
0.950481
0.757017
0.82356
0.73096
0.715622
0.674409
0.64575
0.592821
0.593331
0.508881
0.405607
0.38647
0.550895
0.591643
0.591501
0.596985
0.594877
0.00117841
0.001
0.00117905
0.001
0.001
0.001
0.001
0.001
0.00100548
0.001
0.001
0.001
0.001
0.001
0.001
0.00100999
0.001
0.001
0.001
0.001
0.001
0.001
0.001
0.00101
0.001
0.00509802
0.159644
0.192687
0.384714
0.220165
0.530151
0.658806
0.637642
0.739122
0.914405
0.814858
0.88632
0.8901
0.883806
0.914037
0.962927
0.967693
0.96859
0.935748
0.001
0.001
0.001
0.001
0.001
0.001
0.001
0.001
0.001
0.001
0.001
0.001
0.001
0.001
0.001
0.001
0.001
0.001
0.001
0.00100999
0.001
0.001
0.00193393
0.001
0.00101
0.001
0.001
0.001
0.001
0.001
0.001
0.322731
0.321011
0.285032
0.263258
0.220541
0.242271
0.206878
0.208101
0.365742
0.305293
0.28751
0.133843
0.144486
0.0766169
0.0740959
0.143523
0.146922
0.13426
0.174683
0.236117
0.190797
0.226971
0.208641
0.101658
0.0836324
0.10079
0.114751
0.047343
0.044952
0.0462102
0.0548261
0.0706409
0.0591025
0.0228721
0.0316077
1.50589
1.51532
1.54343
1.51814
1.56374
1.54993
1.57674
1.56458
1.62134
1.60694
1.57478
1.62636
1.59198
1.64611
1.47653
1.42651
1.44517
1.49508
1.47899
1.44566
1.4504
1.50319
1.50773
1.48204
1.46617
1.51522
1.50065
1.50847
1.5337
1.38464
1.386
1.38481
1.38423
1.40242
1.42356
0.978044
0.924438
0.819797
0.72341
0.635892
0.709682
0.914889
0.897277
1.13721
1.15843
1.04637
1.12713
1.16733
1.21371
1.26277
1.30289
1.3004
1.30127
1.29938
1.32911
1.34048
1.36887
1.35451
1.35895
1.36232
1.37448
1.34945
1.3479
0.546415
0.473923
0.417531
0.406107
0.466041
0.636486
0.614871
0.346893
0.401325
0.276323
0.209721
1.49247
1.51153
1.52863
1.53637
1.54064
1.55187
1.55707
1.58272
1.5677
1.58402
1.58305
1.6344
1.65593
1.68161
1.68089
1.68579
1.69918
1.71986
0.184129
0.13254
0.13099
0.391774
0.282373
0.450682
0.357976
0.270171
0.169628
0.174972
0.166765
0.172337
0.0276385
0.0965712
0.001
0.001
0.0513464
0.001
0.238081
0.164908
0.0667279
0.259081
0.261301
0.260537
0.315222
0.276127
0.398978
0.347234
0.433679
0.397886
0.433092
0.459326
0.482987
0.505123
0.527784
0.528843
0.53824
0.531199
0.588477
0.575707
0.566601
0.565756
0.618111
0.592048
0.663836
0.623086
0.602727
0.64872
0.692127
0.686574
0.70849
0.745381
0.747361
0.690505
0.798484
0.826937
0.797364
0.78741
0.868425
0.953726
1.02471
1.09181
1.04121
1.05547
1.18305
1.24346
1.28567
1.26826
1.33297
1.36433
1.40568
1.42248
1.41666
1.43665
1.49082
1.47242
1.49243
1.4954
1.4812
1.45934
1.49506
1.48711
1.47179
1.47934
1.48148
0.186915
0.198315
0.232899
0.147617
0.176697
0.188812
0.127252
0.276645
0.178893
0.102298
0.132562
0.104175
0.001
0.112576
0.12998
0.001
0.001
0.001
0.00234685
0.182518
0.0802185
0.0763294
0.0651447
0.001
0.001
0.001
0.001
0.001
0.00112758
0.00112757
0.00149002
0.001
0.00101
0.001
0.001
0.001
0.001
0.001
0.001
0.001
0.00100984
0.001
0.00112751
0.001
0.001
0.001
0.00101
0.001
0.001
0.001
0.001
0.00241488
0.001
0.001
0.001
0.001
0.001
0.001
0.00100993
0.001
0.001
0.001
0.001
0.001
0.00101007
0.001
0.001
0.001
0.001
0.00101037
0.001
0.001
0.001
0.001
0.001
0.001
0.001
0.001
0.00101
0.001
0.001
0.001
0.001
0.001
0.001
0.001
0.001
0.001
0.001
0.00210397
0.001
0.001
0.001
0.001
0.00210393
1.67687
1.64095
1.60681
1.71501
1.747
1.74475
0.961311
0.954999
0.931793
0.935455
0.875408
0.927309
0.767895
0.676106
0.611308
0.619038
0.593937
0.598446
0.595118
0.593038
0.470268
0.390154
0.478887
0.556223
0.560397
0.001
0.001
0.001
0.001
0.001
0.001
0.001
0.001
0.001
0.001
0.00100943
0.001
0.001
0.159397
0.194847
0.215803
0.00100998
0.001
0.001
0.001
0.001
0.001
0.001
0.001
0.001
0.001
0.001
0.366107
0.49808
0.611532
0.619022
0.937953
0.861514
0.86234
0.653062
0.744015
0.83112
0.877726
0.879216
0.881261
0.905723
0.928058
0.915619
0.001
0.00116223
0.001
0.001
0.001
0.001
0.00100904
0.001
0.001
0.001
0.001
0.001
0.001
0.001
0.001
0.001
0.001
0.00100504
0.001
0.001
0.001
0.001
0.001
0.001
0.001
0.001
0.001
0.001
0.001
0.001
0.00101
0.001
0.001
0.001
0.001
0.001
0.001
0.321126
0.355564
0.344424
0.285973
0.284702
0.258332
0.277075
0.14662
0.17263
0.0864882
0.0853952
0.291244
0.277943
0.0405819
0.0361637
0.0385888
0.0447183
0.0946324
0.0763182
0.111727
0.061542
0.184275
0.13717
0.182426
0.196436
0.0204319
0.001
0.00479593
0.0305398
0.00181694
0.012585
0.001
0.001
0.001
0.001
0.001
0.001
1.50832
1.52076
1.54445
1.56293
1.56949
1.57065
1.61484
1.59072
1.43913
1.43611
1.4228
1.44157
1.47511
1.43628
1.47909
1.46059
1.37316
1.36025
1.35746
1.3908
1.41774
1.39335
0.983638
0.907673
0.798828
0.889402
0.734516
0.648239
0.903594
0.904406
1.14348
1.14533
1.16015
1.05833
1.13447
1.24652
1.19421
1.1375
1.17751
1.28049
1.2912
1.28389
1.2895
1.29639
1.31952
1.34552
1.33746
1.35149
1.34594
1.34812
1.34699
1.3438
1.35153
0.391095
0.391778
0.531502
0.613914
0.390318
0.475786
0.629132
0.644356
0.380156
0.328591
0.240149
0.302866
1.52091
1.49274
1.49908
1.54804
1.54515
1.54672
1.55737
1.57855
1.60086
1.61125
1.61224
1.61683
1.64046
1.67989
1.66442
1.68208
1.69896
1.74576
1.72208
1.55169
1.56456
1.57981
1.74907
1.74779
1.74903
0.130765
0.130506
0.124506
0.100212
0.202541
0.209002
0.0214306
0.0571293
0.0884584
0.001
0.0172711
0.0173177
0.001
0.00100062
0.001
0.00100987
0.001
0.0125233
0.122149
0.041955
0.0445751
0.188201
0.265406
0.181303
0.33629
0.364432
0.298555
0.335376
0.400374
0.364603
0.491277
0.432074
0.503955
0.517771
0.526657
0.516313
0.566106
0.606023
0.641929
0.642158
0.646925
0.63247
0.658888
0.641824
0.690658
0.69797
0.719097
0.71738
0.69661
0.701178
0.817628
0.864652
0.76292
0.828043
0.872672
0.836359
0.935284
0.982629
1.07941
1.11835
1.09496
1.18432
1.24032
1.33842
1.32518
1.38489
1.35948
1.45445
1.4619
1.45464
1.48148
1.51052
1.51115
1.56472
1.53101
1.55398
1.50247
1.54635
1.56171
1.45966
1.5148
1.49064
0.001
0.001
0.001
0.001
0.154021
0.129833
0.114093
0.121028
0.142777
0.001
0.001
0.001
0.001
0.001
0.001
0.001
0.001
0.001
0.001
0.001
0.001
0.001
0.001
0.001
0.001
0.0010299
0.001
0.001
0.00112756
0.00112756
0.001
0.001
0.001
0.001
0.00101
0.001
0.0010004
0.001
0.001
0.001
0.001
0.001
0.00219447
0.001
0.001
0.001
0.001
0.001
0.00101
0.001
0.001
0.0021988
0.001
0.001
0.001
0.00100982
0.00131348
0.001
0.00100983
0.001
0.001
0.001
0.00101
0.001
0.00101008
0.00101013
0.001
0.001
0.00101004
0.00101006
0.001
0.001
0.001
0.001
0.00161233
0.001
0.00161221
0.001
0.001
0.001
0.001
0.00100984
0.00101
0.00100994
0.001
0.001
0.001
0.001
0.001
0.001
0.001
0.001
0.001
0.001
0.00131342
0.001
0.00100958
0.00100997
0.001
0.001
0.001
0.001
0.00101
1.64893
1.64261
1.64536
1.64923
1.68238
1.79081
1.76379
1.76536
1.79203
1.7303
0.870364
0.846675
0.779837
0.801494
0.744178
0.762998
0.695407
0.646913
0.625585
0.593233
0.569497
0.570729
0.476642
0.491592
0.358233
0.400448
0.400582
0.001
0.001
0.001
0.00101
0.001
0.001
0.001
0.191698
0.328125
0.190582
0.001
0.001
0.001
0.001
0.0574814
0.001
0.00101
0.001
0.001
0.00102145
0.001
0.001
0.001
0.001
0.001
0.732427
0.721925
0.77247
0.478123
0.611912
0.616574
0.646033
0.782764
0.836596
0.80553
0.711827
0.793032
0.829825
0.831944
0.740102
0.777239
0.001
0.001
0.00116226
0.00101
0.001
0.001
0.00101
0.00117435
0.001
0.001
0.001
0.001
0.001
0.001
0.001
0.00102891
0.001
0.00102902
0.00102894
0.00101
0.001
0.001
0.001
0.001
0.001
0.00100577
0.001
0.001
0.001
0.001
0.00109099
0.001
0.00100563
0.001
0.001
0.001
0.001
0.001
0.001
0.001
0.001
0.001
0.001
0.001
0.00102897
0.338702
0.349932
0.358176
0.225345
0.246274
0.207789
0.205425
0.132553
0.129746
0.0378072
0.0473733
0.0378667
0.0367918
0.140654
0.132584
0.001
0.001
0.001
0.001
0.0241638
0.0186996
0.0444005
0.100541
0.174132
0.141143
0.209038
0.16739
0.001
0.00120339
0.001
0.0194872
0.001
0.001
0.001
0.001
0.00101
0.001
0.001
0.00120337
1.51455
1.46448
1.55156
1.50599
1.51515
1.56366
1.53687
1.60178
1.56185
1.62769
1.58105
1.56563
1.63195
1.59536
1.40376
1.40395
1.3931
1.4076
1.4214
1.43376
1.43291
1.44445
1.34736
1.34789
1.37042
1.35597
1.38158
1.39384
0.987149
0.910414
0.825324
0.901097
0.698049
0.787302
0.904346
0.909951
1.13511
1.13412
1.13673
1.06544
1.22514
1.26998
1.18043
1.13445
1.27554
1.27632
1.28959
1.27757
1.31238
1.33828
1.3414
1.34205
1.33442
1.34345
1.34579
1.34909
1.34263
1.3452
0.384544
0.387181
0.548339
0.627679
0.529448
0.446478
0.681924
0.625457
0.361042
0.380163
0.354013
0.270703
1.54978
1.55516
1.52646
1.57274
1.58702
1.57473
1.60529
1.62131
1.6007
1.61252
1.60133
1.61217
1.61697
1.64104
1.66321
1.68091
1.6807
1.73251
1.70945
1.75833
1.76305
1.63469
1.64895
1.76401
1.77477
0.001
0.0285239
0.001
0.001
0.001
0.001
0.001
0.001
0.00101
0.001
0.001
0.001
0.001
0.001
0.001
0.001
0.046742
0.001
0.0555748
0.0528356
0.0442614
0.119391
0.264283
0.168417
0.354869
0.355721
0.320375
0.270037
0.390158
0.43595
0.493482
0.477463
0.504947
0.490392
0.612632
0.557758
0.65951
0.653189
0.67565
0.683418
0.656014
0.711862
0.758455
0.73123
0.718484
0.742487
0.791443
0.780617
0.760884
0.806237
0.887618
0.888652
0.882611
0.903623
1.03234
0.945706
1.11552
1.14232
1.1405
1.20891
1.28489
1.36221
1.3694
1.38183
1.42864
1.47576
1.51353
1.51389
1.55153
1.52272
1.57571
1.59024
1.59089
1.59159
1.59419
1.60219
1.53096
1.58367
1.5768
0.001
0.001
0.00725655
0.00102492
0.001
0.001
0.001
0.001
0.001
0.001
0.001
0.00132244
0.0011035
0.00135536
0.0013305
0.0013694
0.00137399
0.001
0.00137883
0.00717816
0.001
0.001
0.001
0.00103009
0.001
0.00102992
0.0010299
0.001
0.001
0.00100217
0.001
0.001
0.001
0.001
0.00101
0.00148767
0.001
0.001
0.00100986
0.001
0.001
0.001
0.00186876
0.001
0.001
0.001
0.001
0.001
0.001
0.001
0.001
0.001
0.00100941
0.001
0.001
0.001
0.00100992
0.001
0.001
0.001
0.00101
0.001
0.001
0.001
0.001
0.001
0.001
0.0010008
0.001
0.001
0.001
0.00100949
0.001
0.001
0.001
0.001
0.001
0.001
0.001
0.001
0.001
0.001
0.00101
0.001
0.001
0.001
0.001
0.001
0.001
0.001
0.001
0.001
0.001
0.001
0.001
0.001
0.001
0.001
0.001
0.001
0.001
0.001
0.001
0.001
0.001
0.001
0.001
0.001
0.001
0.001
0.001
0.001
0.00106359
0.001
0.001
0.001
0.001
1.81732
1.80648
1.8249
1.81289
1.82438
1.82367
1.66251
1.65791
1.73163
1.69755
1.78674
1.81421
1.7864
1.68155
1.63955
0.718934
0.741605
0.718476
0.713134
0.724505
0.662725
0.701278
0.491537
0.543252
0.409944
0.411977
0.358624
0.357636
0.357135
0.001
0.001
0.001
0.001
0.16344
0.355941
0.189088
0.001
0.001
0.14592
0.0334965
0.001
0.001
0.001
0.001
0.001
0.001
0.00103904
0.00103914
0.001
0.00103906
0.001
0.001
0.001
0.72274
0.728233
0.73867
0.737933
0.731307
0.443919
0.557124
0.501184
0.621017
0.681154
0.698444
0.632353
0.717728
0.670649
0.666505
0.657215
0.001
0.00109373
0.001
0.001
0.001
0.001
0.001
0.00101455
0.001
0.001
0.00101251
0.001
0.001
0.001
0.00101996
0.001
0.001
0.001
0.001
0.001
0.001
0.001
0.001
0.001
0.001
0.00100955
0.001
0.001
0.001
0.001
0.001
0.001
0.001
0.001
0.001
0.001
0.00109093
0.001
0.00109062
0.001
0.001
0.001
0.001
0.001
0.00100037
0.001
0.001
0.001
0.001
0.001
0.00101
0.001
0.001
0.001
0.001
0.001
0.001
0.335185
0.264802
0.252582
0.182259
0.174682
0.092558
0.0785751
0.0699126
0.0694635
0.0566583
0.0680511
0.00110846
0.0110454
0.001
0.001
0.0710844
0.0747171
0.001
0.001
0.001
0.001
0.137388
0.206784
0.123492
0.0154521
0.00158796
0.0795878
0.00625084
0.0920717
0.001
0.001
0.001
0.001
0.00183857
0.00183827
0.001
0.001
0.001
0.001
0.00100972
0.001
1.4606
1.4627
1.47403
1.4762
1.4883
1.48876
1.55503
1.5649
1.54374
1.52701
1.62692
1.58023
1.55774
1.39332
1.39435
1.42062
1.40725
1.43185
1.43462
1.4607
1.44267
1.34647
1.35561
1.37548
1.36252
1.37806
1.38633
1.02599
0.947743
0.867441
0.901693
0.849302
0.758322
0.941095
0.904622
1.13939
1.13739
1.10086
1.14379
1.23079
1.27718
1.14002
1.186
1.27948
1.27839
1.29946
1.2788
1.32298
1.33996
1.33983
1.35655
1.32755
1.35125
1.34447
1.34199
1.33504
1.33923
0.38195
0.439404
0.627024
0.603238
0.525628
0.60965
0.628605
0.703379
0.3733
0.370333
0.364274
0.283487
0.120186
0.160318
0.244818
1.61134
1.58724
1.63042
1.60664
1.64352
1.65483
1.64752
1.64826
1.68634
1.67011
1.68007
1.64528
1.67617
1.68724
1.71207
1.73188
1.74488
1.74117
1.79207
1.79468
1.81655
1.79679
1.70673
1.71321
1.82962
1.82426
0.001
0.001
0.00101
0.001
0.001
0.00125061
0.00124995
0.001
0.001
0.001
0.001
0.00208612
0.00101448
0.001
0.001
0.001
0.00100232
0.001
0.105081
0.0661491
0.001
0.156249
0.198589
0.219702
0.198882
0.303959
0.373759
0.250998
0.476785
0.41249
0.482277
0.489303
0.577662
0.515458
0.636679
0.67184
0.668461
0.670066
0.796529
0.759006
0.728628
0.782055
0.809314
0.804482
0.797331
0.786829
0.801205
0.804142
0.884214
0.927676
0.964614
0.919038
0.965089
0.990419
1.1301
1.06124
1.15371
1.14269
1.22175
1.29886
1.38482
1.38009
1.41761
1.4537
1.52967
1.51737
1.54137
1.54653
1.57314
1.58434
1.60289
1.59323
1.60569
1.59965
1.59531
1.60609
1.59129
1.5879
0.001
0.001
0.00101
0.001
0.001
0.001
0.001
0.001
0.001
0.00127253
0.001
0.001
0.001
0.00130526
0.00134239
0.00135599
0.0013695
0.00137837
0.00138142
0.001
0.001
0.00100982
0.001
0.001
0.001
0.00100179
0.001
0.001
0.001
0.001
0.001
0.00101
0.001
0.001
0.00100863
0.00146269
0.001
0.001
0.001
0.00385001
0.001
0.001
0.001
0.00100989
0.001
0.001
0.001
0.00100983
0.001
0.001
0.00100647
0.001
0.00100976
0.001
0.001
0.001
0.001
0.001
0.00330292
0.001
0.001
0.001
0.001
0.001
0.00126328
0.0012632
0.00126322
0.001
0.001
0.001
0.001
0.001
0.001
0.001
0.001
0.001
0.001
0.001
0.001
0.001
0.001
0.001
0.001
0.001
0.001
0.001
0.001
0.001
0.001
0.001
0.001
0.001
0.001
0.001
0.001
0.001
0.001
0.001
0.001
0.001
0.001
0.001
0.001
0.001
0.001
0.001
0.00101
0.001
0.00146431
0.001
0.00110571
0.001
0.00109859
0.001
0.001
0.001
1.83827
1.86153
1.87099
1.82486
1.83069
1.81408
1.82483
1.70955
1.73091
1.74787
1.7612
1.7619
1.80032
1.82583
1.66443
1.69346
1.61822
1.66279
1.65851
0.726373
0.721378
0.623329
0.587227
0.68227
0.621674
0.620401
0.495168
0.518031
0.382996
0.357176
0.355413
0.358874
0.335825
0.001
0.001
0.273869
0.385544
0.167266
0.001
0.001
0.111146
0.112356
0.001
0.001
0.001
0.001
0.001
0.001
0.001
0.001
0.00101
0.001
0.001
0.001
0.001
0.001
0.001
0.686132
0.728769
0.706301
0.680593
0.446653
0.449445
0.470426
0.540995
0.660797
0.659191
0.607537
0.659873
0.654495
0.00100999
0.001
0.001
0.001
0.001
0.001
0.00113641
0.00113559
0.001
0.001
0.00101
0.00100946
0.001
0.001
0.00100846
0.001
0.0010099
0.00384707
0.001
0.001
0.001
0.001
0.001
0.001
0.001
0.00109077
0.001
0.001
0.00103852
0.001
0.001
0.001
0.001
0.001
0.001
0.001
0.001
0.001
0.001
0.001
0.001
0.001
0.001
0.001
0.001
0.001
0.001
0.001
0.001
0.001
0.001
0.00204243
0.001
0.001
0.001
0.001
0.001
0.001
0.001
0.001
0.001
0.001
0.001
0.251359
0.169155
0.168429
0.110748
0.110694
0.0888953
0.0993568
0.0685817
0.11056
0.0373948
0.0352201
0.001
0.001
0.001
0.001
0.001
0.001
0.001
0.001
0.001
0.001
0.001
0.001
0.0621105
0.104369
0.001
0.001
0.001
0.105777
0.170086
0.125308
0.001
0.001
0.001
0.00121257
0.00101
0.001
0.001
0.001
0.001
0.00100999
0.001
0.001
1.5193
1.47136
1.51493
1.49554
1.45428
1.51523
1.5271
1.52592
1.53783
1.58695
1.53066
1.6183
1.58681
1.65123
1.37235
1.39544
1.39306
1.41584
1.39652
1.42326
1.43891
1.41579
1.34551
1.35702
1.35609
1.36532
1.37222
1.36938
1.07948
0.999348
0.887024
0.903318
0.809998
0.898389
0.910099
0.968265
1.14482
1.14664
1.14646
1.12464
1.2345
1.28117
1.20191
1.15499
1.28005
1.28162
1.29168
1.31079
1.32379
1.31987
1.31776
1.35272
1.3529
1.33512
1.33677
1.34191
1.34339
1.33654
0.461634
0.366264
0.635499
0.638181
0.548339
0.645009
0.640985
0.739539
0.361893
0.364558
0.34362
0.328203
0.264057
0.36201
1.60576
1.62603
1.64718
1.68137
1.67698
1.69574
1.71185
1.7184
1.72471
1.71315
1.72045
1.74195
1.76276
1.7744
1.77466
1.78463
1.80572
1.82412
1.8378
1.83612
1.84981
1.72398
1.71323
1.86703
1.88764
0.001
0.001
0.001
0.001
0.001
0.001
0.001
0.001
0.001
0.00208605
0.001
0.001
0.001
0.001
0.001
0.00105193
0.00105194
0.001
0.001
0.0724292
0.001
0.152958
0.241674
0.227858
0.142455
0.30327
0.301707
0.391543
0.454239
0.426012
0.501256
0.441778
0.637201
0.560052
0.668757
0.672001
0.685
0.747522
0.874154
0.880342
0.82118
0.849936
0.880713
0.828042
0.937364
0.863574
0.840656
0.877223
1.00959
1.02143
1.08368
1.13792
1.02117
1.11179
1.25517
1.20636
1.27604
1.24368
1.43905
1.40354
1.47
1.48416
1.55627
1.56872
1.62666
1.59531
1.64163
1.62375
1.64269
1.67784
1.64851
1.68209
1.68878
1.6473
1.6366
1.67855
1.67715
1.6484
0.001
0.001
0.00101
0.001
0.001
0.001
0.001
0.001
0.001
0.001075
0.001
0.001
0.001
0.001
0.001
0.001
0.001
0.00138773
0.001
0.001
0.00138038
0.00100976
0.001
0.001
0.00118198
0.001
0.001
0.001
0.001
0.001
0.00147895
0.00100993
0.001
0.001
0.001
0.001
0.001
0.001
0.001
0.001
0.001
0.001
0.001
0.001
0.001
0.001
0.0010141
0.00101413
0.00101424
0.001
0.001
0.001
0.001
0.00121934
0.001
0.001
0.00121926
0.001
0.001
0.001
0.00100996
0.00146425
0.001
0.00117089
0.001
0.001
0.001
0.001
0.00101
0.001
0.001
0.001
0.001
0.001
0.001
0.001
0.001
0.001
0.001
0.001
0.001
0.001
0.001
0.001
0.001
0.001
0.001
0.001
0.001
0.001
0.001
0.001
0.001
0.001
0.001
0.001
0.001
0.001
0.001
0.001
0.001
0.001
0.001
0.001
0.001
0.001
0.001
0.001
0.001
0.001
0.001
0.001
0.001
0.001
0.001
0.001
0.001
0.00110571
0.001
0.001
0.001
0.0011709
0.001
0.001
1.89188
1.87608
1.89151
1.86416
1.85325
1.87936
1.86468
1.84466
1.86295
1.72136
1.74673
1.74881
1.74706
1.81762
1.86357
1.88305
1.78057
1.66222
1.69161
1.6578
1.65499
1.65397
1.69821
1.58132
0.489702
0.582215
0.484455
0.529857
0.529197
0.433331
0.436268
0.435568
0.439821
0.435312
0.412207
0.330753
0.303586
0.222722
0.224543
0.337137
0.447199
0.001
0.001
0.114463
0.114501
0.001
0.00100999
0.047975
0.001
0.00100155
0.001
0.00102821
0.001
0.001
0.001
0.001
0.00102432
0.001
0.00102114
0.001
0.00101959
0.591999
0.521419
0.497849
0.58277
0.44771
0.468943
0.608651
0.537662
0.582589
0.658267
0.652737
0.00109962
0.001
0.001
0.00114966
0.001
0.001
0.00113672
0.001
0.001
0.001
0.00100995
0.001
0.001
0.001
0.001
0.001
0.00384791
0.00384807
0.001
0.001
0.00384668
0.001
0.00204246
0.001
0.001
0.001
0.001
0.00365283
0.001
0.00103856
0.00359266
0.001
0.001
0.001
0.001
0.001
0.001
0.001
0.001
0.001
0.001
0.001
0.001
0.00101
0.001
0.001
0.001
0.001
0.001
0.0011878
0.001
0.001
0.001
0.00101
0.001
0.001
0.001
0.001
0.001
0.001
0.001
0.001
0.001
0.001
0.001
0.001
0.001
0.001
0.001
0.001
0.001
0.001
0.001
0.110828
0.110591
0.139255
0.103246
0.108373
0.105935
0.106441
0.001
0.001
0.0103709
0.0234648
0.001
0.001
0.00162709
0.001
0.001
0.001
0.001
0.001
0.001
0.00162709
0.001
0.001
0.001
0.001
0.0346922
0.001