/*--------------------------------*- C++ -*----------------------------------*\
  =========                 |
  \\      /  F ield         | OpenFOAM: The Open Source CFD Toolbox
   \\    /   O peration     | Website:  https://openfoam.org
    \\  /    A nd           | Version:  8
     \\/     M anipulation  |
\*---------------------------------------------------------------------------*/
FoamFile
{
    version     2.0;
    format      ascii;
    class       volScalarField;
    location    "18540";
    object      Hclip;
}
// * * * * * * * * * * * * * * * * * * * * * * * * * * * * * * * * * * * * * //

dimensions      [0 1 0 0 0 0 0];

internalField   nonuniform List<scalar> 
526318
(
1.72483
1.69178
1.76429
1.66112
1.73196
1.70256
1.71581
1.62876
1.68671
1.57243
1.55282
1.67278
1.61951
1.65834
1.61222
1.63643
1.61655
1.80855
1.72318
1.76577
1.76235
1.71041
1.4813
1.72751
1.60586
1.46866
1.7436
1.7453
1.74074
1.75864
1.78224
1.82706
1.812
1.68942
1.69691
1.65042
1.66293
1.76805
1.68996
1.61908
1.68862
1.66274
1.32674
1.38046
1.29245
1.33422
1.31413
1.43771
1.62696
1.52681
1.60745
1.59694
1.55088
1.51682
1.00535
1.25605
1.24317
1.05641
1.77421
1.77865
1.79366
1.75871
1.70717
1.82472
1.826
1.77703
1.77599
1.77
1.67457
1.64821
1.7787
1.55787
1.61051
1.49969
1.46402
1.44925
1.55287
1.55308
1.45947
1.496
1.57776
1.57694
1.53417
1.49606
1.52572
1.58392
1.59195
1.55852
1.51007
1.58651
1.48897
1.4394
1.43704
1.36466
1.36516
1.36711
1.36605
1.36246
1.36158
1.36124
0.799708
0.734902
0.824332
0.859151
0.92318
0.708483
1.27064
1.07873
1.39658
1.35636
1.39519
1.51942
1.7456
1.63703
1.74629
1.75437
1.82491
1.80014
1.83975
1.3596
1.36088
1.36216
1.36663
1.3182
1.35641
1.27057
1.31323
1.21933
1.27127
1.21973
1.22164
1.2095
1.18334
1.17478
1.20331
1.14513
1.19832
1.14758
1.16658
1.11503
1.11757
1.13878
1.16975
1.15837
1.11161
1.11475
1.12866
1.11788
1.11221
1.12141
1.13477
1.11953
1.12435
1.12572
1.12328
1.09125
1.12174
1.12435
1.08951
1.04632
1.12339
1.07518
1.13081
1.63409
1.70653
1.66633
1.65315
1.44663
1.52196
1.45356
1.4489
1.45929
1.44956
1.47499
1.45747
1.38965
1.35746
1.32192
1.26465
1.32391
1.36297
1.36652
1.36832
1.25253
1.30874
1.19447
1.20326
1.21064
1.20282
1.20271
1.20533
1.19313
1.19572
1.1944
1.18058
1.1649
1.19048
1.18149
1.15452
1.13383
1.15712
1.14086
1.13554
1.15293
1.13951
1.1478
1.10736
1.12978
1.15833
1.15595
1.60282
1.60952
1.65708
1.61705
1.61493
1.60523
1.6052
1.4931
1.51788
1.26603
1.26061
1.25525
1.36995
1.51084
1.38427
1.43061
1.41824
1.36332
1.34535
0.84756
0.651111
0.997474
1.18235
0.443916
0.28633
0.585015
0.69655
0.670742
0.646257
1.83356
1.79615
1.84886
1.85066
1.81295
1.81114
1.71227
1.80114
1.63419
1.5883
1.57986
1.58557
1.58589
1.58767
1.57334
1.569
1.49505
1.55306
1.37373
1.42878
1.36032
1.37052
0.173062
0.0978618
0.554877
0.333126
0.836379
0.780826
0.836923
0.98743
1.36842
1.18047
1.41969
1.41771
1.52783
1.62927
1.74912
1.75254
1.79415
1.77833
1.83781
1.87176
1.3351
1.33945
1.29608
1.26601
1.16341
1.20134
1.1288
1.13647
1.12814
1.12522
1.11485
1.11824
1.0444
1.07038
1.10183
1.13844
1.19316
1.16121
1.12171
1.11935
1.05855
1.04625
1.09508
1.1532
1.07358
1.11198
1.1139
1.0827
1.07612
1.04901
1.04064
1.00697
1.00282
1.01069
0.996333
1.11821
1.15511
1.11923
1.16108
1.52471
1.48335
1.38143
1.47404
1.389
1.44344
1.45417
1.44211
1.44905
1.45331
1.36866
1.27271
1.20253
1.19177
1.26254
1.20683
1.1892
1.30849
1.19603
1.24211
1.1862
1.18531
1.19362
1.18771
1.20022
1.19109
1.1893
1.19387
1.19088
1.19073
1.19921
1.1983
1.20804
1.20989
1.2099
1.18851
1.20005
1.18558
1.15619
1.15725
1.18458
1.21219
1.2054
1.18465
1.16669
1.19006
1.2321
1.23126
1.24309
1.20272
1.23517
1.25263
1.29367
1.24386
1.25027
1.27396
1.30786
1.43052
1.51679
1.41864
1.45974
1.55426
1.60304
1.52154
1.38276
1.48322
1.38408
1.39881
1.13916
1.08384
1.12238
1.10605
1.22723
1.34945
1.27361
1.34691
1.34215
1.36023
1.34446
0.614584
0.759362
0.906062
0.761491
0.988286
0.887964
0.0219827
0.172734
0.109233
0.0334374
0.001
0.174299
0.4054
0.662657
0.524597
0.560774
1.8524
1.83282
1.86434
1.86834
1.83916
1.79881
1.7398
1.6505
1.58085
1.59318
1.57096
1.58153
1.55587
1.55088
1.53116
1.53908
1.49075
1.52757
1.45099
1.39566
1.33794
1.2963
0.001
0.00107224
0.00107225
0.001
0.001
0.001
0.001
0.00107225
0.00107224
0.00107224
0.0117075
0.00100984
0.001
0.001
0.001
0.001
0.065296
0.16688
0.180435
0.345328
0.801743
0.591224
0.907256
0.875097
1.06952
0.924933
1.28478
1.43816
1.45657
1.54436
1.76869
1.66319
1.7804
1.77854
1.7956
1.82343
1.86065
1.87777
1.256
1.25197
1.20495
1.23426
1.17265
1.13719
1.13163
1.12855
1.12602
1.13053
1.08283
1.07587
1.02452
1.03835
1.09186
1.06464
1.03711
1.08358
1.07772
1.09654
1.00696
0.996567
1.01974
1.03021
1.03185
0.987882
0.99465
0.988704
0.997419
0.978996
0.975547
1.27726
1.24967
1.24942
1.2511
1.2716
1.37747
1.33647
1.31618
1.19814
1.24025
1.22768
1.23031
1.12875
1.06687
1.23798
1.36706
1.25499
1.24437
1.23003
1.32241
1.28362
1.36803
1.39927
1.32215
1.30511
1.34111
1.21978
1.18492
1.192
1.18492
1.10102
1.16218
1.08781
1.03897
1.01371
1.13362
1.14064
1.18331
1.18742
1.18315
1.18606
1.18363
1.18786
1.1813
1.19251
1.18821
1.20367
1.20343
1.21149
1.20661
1.23329
1.22165
1.24471
1.24813
1.19594
1.17912
1.24472
1.2274
1.21597
1.23179
1.21545
1.20429
1.25528
1.23085
1.33272
1.342
1.2923
1.33606
1.34442
1.3095
1.40082
1.37477
1.44212
1.46186
1.48703
1.4063
1.40471
1.40992
1.36685
1.33476
1.30938
1.40025
1.24583
1.23932
1.28334
1.30553
0.985151
1.03356
1.11725
1.24566
1.26806
1.31458
1.21491
1.16937
1.13754
1.07413
0.443006
0.530329
0.791601
0.605668
0.918142
0.977456
0.001
0.001
0.001
0.001
0.0904363
0.001
0.451072
0.241638
0.398467
0.390984
0.001
0.001
0.001
0.001
0.001
0.00101
0.001
0.001
0.001
0.001
0.00113799
0.001
0.001
0.00113782
0.00113782
0.00113783
0.001
0.001
0.001
0.001
0.001
0.001
0.001
0.001
0.00100959
0.001
0.00100965
0.001
0.001
0.001
1.8433
1.8504
1.87281
1.86802
1.83784
1.76006
1.59049
1.67206
1.5582
1.56029
1.53012
1.54157
1.53289
1.52652
1.52734
1.5181
1.46364
1.43897
1.34012
1.3814
1.23227
1.27461
0.001
0.001
0.001
0.001
0.001
0.001
0.001
0.001
0.00101
0.001
0.001
0.001
0.001
0.001
0.001
0.001
0.001
0.00100737
0.001
0.001
0.001
0.001
0.001
0.001
0.001
0.10818
0.263161
0.242866
0.306753
0.489175
0.941373
0.745125
0.963963
0.955852
1.25093
1.09265
1.45769
1.42434
1.49189
1.58957
1.707
1.77955
1.79209
1.78261
1.82247
1.85493
1.84302
1.85122
0.00113687
0.001
0.001
0.001
0.001
0.001
0.001
0.001
0.001
0.001
0.001
0.001
0.001
0.001
0.001
0.00101
0.001
1.23504
1.23214
1.23368
1.19917
1.12391
1.1556
1.08423
1.07459
1.03856
1.03523
0.989974
0.984658
1.01823
1.01505
0.975318
1.00966
1.00497
1.05386
1.03485
1.03547
0.955725
0.927613
0.928359
0.969346
0.97764
0.979096
0.956493
0.959904
0.921526
0.911041
0.873311
0.87878
1.47324
1.44301
1.48201
1.4929
1.44189
1.3998
1.56832
1.58743
1.65215
1.6641
1.2096
1.25062
1.30263
1.38644
1.20583
1.15286
1.18857
1.18873
1.02692
1.07918
1.12767
1.00868
1.22394
1.24349
1.22366
1.23281
1.25908
1.2224
1.23709
1.26117
1.1362
1.12881
1.03583
1.1141
1.10793
1.07487
1.01873
1.04391
0.983357
1.00473
0.982396
1.06961
1.13465
1.06529
1.13318
1.18401
1.18474
1.17838
1.18189
1.18527
1.20316
1.19886
1.21919
1.2096
1.23288
1.23087
1.2529
1.24939
1.25377
1.24948
1.26113
1.2532
1.29283
1.26769
1.23258
1.23317
1.30028
1.26628
1.27139
1.3141
1.35263
1.3528
1.35226
1.35432
1.38412
1.43479
1.49849
1.5164
1.52708
1.50478
1.65045
1.58573
1.71565
1.75516
1.74865
1.78579
1.84388
1.70805
1.79281
1.81731
1.8907
1.93946
1.96694
1.98484
2.01522
1.96096
2.01616
1.97321
2.05057
2.0518
2.10176
2.0697
2.13
2.16174
2.14991
2.09929
2.16463
2.18859
2.15446
2.15068
2.21704
2.19358
2.22504
2.16532
2.16347
2.22978
2.19601
2.15034
2.14755
2.17968
2.21452
1.20813
1.16874
1.33937
1.34296
1.30668
1.30316
1.3224
1.08011
1.20235
0.911073
0.929385
1.03758
1.01394
0.895066
0.981476
0.962078
1.14711
1.04734
1.03977
0.951005
0.941476
0.949258
0.97777
0.502077
0.372327
0.769839
0.562233
0.771172
0.725944
0.00101
0.001
0.001
0.001
0.001
0.001
0.112551
0.340557
0.242906
0.273634
0.001
0.001
0.001
0.001
0.00137246
0.001
0.001
0.001
0.001
0.001
0.001
0.001
0.001
0.001
0.00100829
0.001
0.001
0.001
0.0010095
0.001
0.001
0.00102099
0.001
0.00101575
0.001
0.001
0.00101
0.001
0.001
0.001
0.00102382
0.00102389
0.001
0.00102408
0.00102361
0.00102376
0.001
0.001
0.001
0.001
0.001
0.001
0.001
0.001
0.0010078
0.001
0.001
0.001
0.001
0.001
0.001
0.001
0.001
0.00101
0.001
0.001
1.82861
1.83687
1.79555
1.79503
1.71558
1.77928
1.59352
1.54716
1.52104
1.53148
1.53401
1.52809
1.46763
1.47027
1.31564
1.27589
1.23386
1.41327
1.40993
1.35454
1.35623
1.35957
0.001
0.001
0.00114661
0.00114659
0.001
0.001
0.001
0.001
0.0011466
0.001
0.001
0.00100893
0.001
0.001
0.001
0.001
0.001
0.001
0.001
0.001
0.331105
0.160254
0.371122
0.358036
0.608591
0.399722
0.796608
0.960325
1.08399
0.958852
1.25854
1.41634
1.45831
1.4784
1.55971
1.66887
1.7392
1.72258
1.76841
1.70467
1.74695
1.79489
1.74065
1.75009
0.00101
0.001
0.00100993
0.001
0.001
0.00119172
0.001
0.001
0.00119171
0.001
0.001
0.001
0.001
0.001
0.00101
0.001
0.001
0.001
0.00101
0.001
0.001
0.001
0.001
0.001
0.00221126
0.00100857
1.20925
1.20813
1.13206
1.14543
1.02811
1.04709
0.986277
0.985566
0.981722
0.986687
0.955793
0.959418
0.932069
0.933204
0.909939
0.950453
1.02893
0.989125
1.02817
1.02743
0.84706
0.866231
0.907815
0.888152
0.897122
0.901872
0.846514
0.843092
0.828447
0.84136
0.847882
0.845821
1.69779
1.69926
1.52501
1.44133
1.42808
1.41701
1.69449
1.60836
1.8555
1.92912
1.82547
1.75126
1.94162
1.92555
1.99072
2.03756
2.06784
2.06803
2.09593
2.0682
2.12233
2.15004
2.14361
2.14618
2.16081
2.14696
2.15021
2.196
2.14049
2.1325
1.26097
1.1888
1.33244
1.40462
1.18733
1.13481
1.18905
1.1882
1.01685
1.07006
0.909091
1.06416
0.965127
1.22229
1.17754
1.2387
1.22687
1.2251
1.11649
1.02551
0.943794
0.930117
0.952874
0.982067
0.913264
0.902158
0.824594
0.915305
0.997512
0.990615
0.908164
1.01302
1.08117
1.02681
1.13433
1.0755
1.11775
1.17448
1.21046
1.18268
1.2198
1.22004
1.23323
1.22388
1.25847
1.26731
1.26686
1.28221
1.28775
1.28734
1.32323
1.33095
1.32152
1.31898
1.32191
1.31377
1.33384
1.34725
1.39239
1.38729
1.35305
1.38301
1.38059
1.41236
1.44528
1.50529
1.53659
1.53776
1.54917
1.61836
1.70251
1.77693
1.79048
1.91729
1.79086
1.84149
1.99151
2.01589
2.01532
2.05254
2.10119
2.15066
2.16154
2.16491
2.1931
2.22092
2.24705
2.24639
2.24522
2.24651
2.24596
2.22614
2.16358
2.22746
2.19312
2.14648
2.1492
2.17876
2.21284
2.22258
2.14792
2.20905
2.16982
0.991447
0.991615
1.05776
1.13587
1.02834
1.08959
1.22719
1.16194
1.1824
1.0226
0.9311
0.904462
0.894805
1.00077
0.98095
0.652054
0.764959
0.945854
0.841799
0.953997
0.941611
0.953714
0.947082
0.955739
0.98306
0.171846
0.33957
0.421461
0.6028
0.621621
0.618145
0.001
0.001
0.001
0.00101
0.001
0.001
0.001
0.001
0.0802578
0.001
0.001
0.00137226
0.001
0.00101
0.001
0.001
0.001
0.001
0.001
0.001
0.00105181
0.001
0.001
0.001
0.001
0.001
0.001
0.001
0.001
0.001
0.001
0.001
0.001
0.001
0.001
0.001002
0.001
0.001
0.001
0.001
0.001
0.001
0.001
0.00101
0.001
0.00100962
0.001
0.001
0.001
0.001
0.001
0.001
0.001
0.001
1.74367
1.74925
1.71588
1.72988
1.65336
1.72294
1.5305
1.59988
1.49397
1.49186
1.429
1.41653
1.35989
1.35463
1.27275
1.16944
1.14828
1.31562
1.35599
1.35924
1.36196
1.35759
0.00114667
0.001
0.00114667
0.001
0.001
0.001
0.001
0.001
0.00100548
0.001
0.001
0.001
0.001
0.001
0.001
0.00100999
0.001
0.001
0.001
0.0437553
0.217102
0.369496
0.436769
0.374756
0.575759
0.778831
0.912944
0.961182
1.14992
0.984337
1.292
1.42155
1.40208
1.50772
1.67701
1.57999
1.65287
1.65279
1.65395
1.679
1.73004
1.74058
1.73361
1.70106
0.001
0.001
0.001
0.001
0.001
0.001
0.001
0.001
0.001
0.001
0.001
0.001
0.001
0.001
0.001
0.001
0.001
0.001
0.001
0.00100999
0.001
0.001
0.0020732
0.001
0.00101
0.001
0.001
0.001
0.001
0.001
0.001
1.08789
1.08356
1.04855
1.03063
0.985797
1.00689
0.972912
0.971581
1.13031
1.07099
1.0526
0.900309
0.909498
0.8401
0.843225
0.910461
0.909324
0.90234
0.944513
1.00323
0.956354
0.990792
0.975753
0.867535
0.846411
0.860629
0.881208
0.806428
0.807643
0.809457
0.81928
0.839002
0.824297
0.786476
0.798006
2.26908
2.27996
2.30691
2.28266
2.32943
2.31292
2.34043
2.33093
2.38432
2.37416
2.33835
2.39139
2.3578
2.4078
2.23701
2.18896
2.20957
2.25873
2.24109
2.20999
2.21295
2.26585
2.271
2.24557
2.22797
2.27871
2.26391
2.27071
2.29664
2.14702
2.15006
2.14958
2.1466
2.16663
2.18799
1.74356
1.68927
1.58456
1.49033
1.40381
1.47867
1.67836
1.66132
1.90137
1.92374
1.81072
1.89205
1.93161
1.97842
2.02686
2.0674
2.06498
2.06648
2.0622
2.09358
2.10484
2.13295
2.11804
2.12345
2.12492
2.13771
2.11288
2.11485
1.31207
1.24017
1.18222
1.17225
1.23076
1.40503
1.38287
1.11048
1.16758
1.04042
0.973247
2.25348
2.27554
2.29083
2.29841
2.30392
2.31538
2.31904
2.34615
2.33159
2.34889
2.34732
2.39833
2.42079
2.44463
2.44495
2.44965
2.46396
2.48967
0.95888
0.896043
0.911942
1.15512
1.05004
1.22234
1.1118
1.038
0.931938
0.925606
0.928065
0.933005
0.786002
0.865603
0.714812
0.739084
0.820551
0.736161
1.00653
0.934747
0.832904
1.02814
1.02711
1.0297
1.08162
1.03784
1.16498
1.10926
1.19769
1.1602
1.19494
1.2248
1.2461
1.2708
1.29263
1.29216
1.30133
1.29499
1.35205
1.34058
1.33612
1.33115
1.38498
1.35782
1.42943
1.39069
1.37289
1.414
1.4575
1.4484
1.46994
1.50415
1.50654
1.45263
1.55849
1.58928
1.56007
1.54829
1.63281
1.71598
1.78988
1.85722
1.80434
1.82082
1.95032
2.00925
2.05266
2.03326
2.09882
2.1295
2.17087
2.18692
2.18118
2.20015
2.25709
2.23822
2.24827
2.25746
2.24788
2.24548
2.24445
2.24509
2.24371
2.24468
2.24444
0.979532
0.968379
0.991106
0.916112
0.935778
0.958175
0.889782
1.04213
0.927946
0.861275
0.894884
0.86709
0.77475
0.890635
0.887974
0.677548
0.660686
0.623503
0.721981
0.935332
0.854737
0.833461
0.855916
0.637197
0.529726
0.323254
0.339767
0.254364
0.0819249
0.0783185
0.620333
0.44576
0.595775
0.595562
0.001
0.001
0.001
0.001
0.001
0.001
0.00100984
0.001
0.072302
0.001
0.001
0.001
0.00101
0.001
0.001
0.001
0.001
0.00241149
0.001
0.001
0.001
0.001
0.001
0.001
0.00100993
0.001
0.001
0.001
0.001
0.001
0.00101295
0.001
0.001
0.001
0.001
0.00101382
0.001
0.001
0.001
0.001
0.001
0.001
0.001
0.001
0.00101
0.001
0.001
0.001
0.001
0.001
0.001
0.001
0.001
0.001
0.001
0.00215493
0.001
0.001
0.001
0.001
0.00215489
2.44115
2.40172
2.37731
2.48651
2.50585
2.50447
1.71774
1.71875
1.70592
1.71527
1.64367
1.6944
1.51927
1.44414
1.37072
1.39533
1.36179
1.36549
1.35418
1.35398
1.23539
1.15604
1.24463
1.32106
1.32604
0.001
0.001
0.001
0.001
0.001
0.001
0.001
0.001
0.001
0.001
0.00100943
0.001
0.001
0.928253
0.950144
0.986645
0.00100998
0.001
0.001
0.001
0.218553
0.0971204
0.385845
0.413418
0.584413
0.444096
0.747901
1.12763
1.26615
1.37747
1.38322
1.69344
1.62037
1.63333
1.41604
1.50731
1.60219
1.65226
1.64287
1.64385
1.67467
1.69525
1.69955
0.001
0.0011727
0.001
0.001
0.001
0.001
0.00100904
0.001
0.001
0.001
0.001
0.001
0.001
0.001
0.001
0.001
0.001
0.00100504
0.001
0.001
0.001
0.001
0.001
0.001
0.001
0.001
0.001
0.001
0.001
0.001
0.00101
0.00100979
0.001
0.001
0.001
0.001
0.001
1.08652
1.12109
1.1116
1.05185
1.04877
1.02075
1.04267
0.907988
0.939725
0.850214
0.84927
1.05703
1.04483
0.805238
0.801449
0.802043
0.806266
0.861207
0.839291
0.879174
0.824016
0.948822
0.899849
0.948398
0.958952
0.788315
0.74341
0.76649
0.797629
0.77288
0.771735
0.716286
0.754449
0.737767
0.714264
0.693445
0.691193
2.27259
2.28398
2.30998
2.32731
2.32929
2.33451
2.37946
2.36253
2.20237
2.20161
2.18626
2.20516
2.23812
2.20255
2.24188
2.22252
2.13745
2.1239
2.12394
2.15462
2.18277
2.15867
1.74797
1.67061
1.56521
1.65457
1.50358
1.41448
1.66581
1.66673
1.90683
1.91
1.92455
1.82104
1.89855
2.01128
1.95763
1.9003
1.94238
2.04302
2.05628
2.04639
2.0534
2.06019
2.08479
2.11225
2.10059
2.11279
2.11146
2.11292
2.11206
2.11273
2.11289
1.15397
1.15962
1.2985
1.38123
1.15745
1.24062
1.39549
1.41251
1.14771
1.0894
1.00039
1.06799
2.2851
2.24429
2.26324
2.30955
2.30785
2.31037
2.32005
2.34271
2.36401
2.37575
2.37611
2.38009
2.40457
2.44411
2.42679
2.44464
2.46121
2.50806
2.48588
2.31567
2.3279
2.34341
2.51724
2.51573
2.52364
0.906846
0.902481
0.888988
0.87021
0.971554
0.98308
0.778116
0.823265
0.85071
0.731951
0.777967
0.779298
0.711462
0.717026
0.716252
0.716587
0.748913
0.777546
0.884315
0.81047
0.812471
0.957156
1.03308
0.943381
1.09907
1.12895
1.05716
1.10191
1.16355
1.12567
1.25542
1.19528
1.26729
1.28231
1.29094
1.27984
1.3298
1.36987
1.40721
1.40649
1.41337
1.40108
1.42499
1.40789
1.45752
1.46073
1.4834
1.48455
1.46002
1.46146
1.58004
1.62512
1.52553
1.58806
1.63569
1.59709
1.69884
1.74397
1.84316
1.88177
1.85937
1.95066
2.0056
2.10548
2.09084
2.15039
2.12515
2.2205
2.22598
2.21926
2.24855
2.27641
2.27531
2.32979
2.2948
2.32077
2.28399
2.28199
2.31766
2.24858
2.28546
2.24818
0.34516
0.663709
0.352344
0.630385
0.909378
0.895102
0.888563
0.877501
0.883597
0.739446
0.65291
0.637577
0.529114
0.729981
0.625572
0.642265
0.753364
0.0290731
0.0284077
0.415707
0.518888
0.514558
0.316846
0.201852
0.199061
0.001
0.001
0.0101413
0.0701578
0.0740577
0.001
0.155034
0.0780168
0.333853
0.110348
0.0377953
0.0010004
0.001
0.001
0.001
0.001
0.001
0.00224671
0.001
0.001
0.001
0.001
0.001
0.00101
0.001
0.001
0.00220231
0.001
0.001
0.001
0.00100982
0.00135271
0.001
0.00100983
0.001
0.001
0.001
0.00101
0.001
0.00101306
0.00101298
0.001
0.001
0.00101317
0.00101317
0.001
0.001
0.001
0.001
0.00166701
0.001
0.00166692
0.001
0.001
0.001
0.001
0.00100984
0.00101
0.00100994
0.001
0.001
0.001
0.001
0.001
0.001
0.001
0.001
0.001
0.001
0.00135266
0.001
0.00100958
0.00100997
0.001
0.001
0.001
0.001
0.00101
2.40822
2.40562
2.40317
2.42199
2.46611
2.56921
2.52364
2.51757
2.54807
2.4772
1.6314
1.62221
1.54311
1.55151
1.50359
1.54462
1.45886
1.41433
1.3836
1.3512
1.33399
1.34197
1.24474
1.25103
1.12614
1.16566
1.16529
0.001
0.001
0.001
0.00101
0.001
0.001
0.001
0.958599
1.09685
0.954504
0.001
0.001
0.001
0.001
0.820219
0.65931
0.001
0.001
0.0202176
0.131158
0.422959
0.275334
0.457408
0.455466
0.495829
1.49563
1.48137
1.53213
1.23943
1.3803
1.37804
1.41867
1.53903
1.61149
1.56437
1.47584
1.55835
1.58928
1.58949
1.51568
1.52847
0.001
0.001
0.00117274
0.00101
0.001
0.001
0.00101
0.00117334
0.001
0.001
0.001
0.001
0.001
0.001
0.001
0.00103921
0.001
0.00103725
0.0010285
0.00101
0.001
0.001
0.001
0.001
0.001
0.00100577
0.001
0.001
0.001
0.001
0.001
0.00102307
0.00100563
0.001
0.001
0.001
0.001
0.001
0.001
0.001
0.001
0.001
0.001
0.001
0.00101217
1.10269
1.11706
1.12522
0.989358
1.0138
0.970494
0.970444
0.899396
0.885146
0.799616
0.814949
0.801127
0.80425
0.90383
0.899029
0.748676
0.749136
0.709303
0.68947
0.788304
0.781318
0.805871
0.861709
0.942787
0.906183
0.975428
0.925546
0.72752
0.697455
0.757902
0.782835
0.656154
0.655729
0.63118
0.653318
0.692778
0.670113
0.689953
0.697908
2.2788
2.22737
2.3151
2.27107
2.2803
2.33808
2.2903
2.36368
2.32814
2.40665
2.34162
2.33113
2.40618
2.35824
2.17016
2.16721
2.16017
2.17018
2.18662
2.19563
2.19747
2.20866
2.11236
2.11333
2.13452
2.12209
2.15239
2.15643
1.74904
1.67111
1.5898
1.667
1.46208
1.5558
1.6657
1.67276
1.89782
1.89826
1.89961
1.82697
1.98705
2.03428
1.94517
1.8978
2.04045
2.03967
2.05485
2.03963
2.07694
2.10121
2.10864
2.11043
2.11053
2.10787
2.11405
2.11262
2.11048
2.10938
1.15355
1.14649
1.31528
1.39346
1.29463
1.21176
1.44835
1.39009
1.12316
1.14781
1.11929
1.03426
2.28531
2.32072
2.30414
2.32975
2.34841
2.33794
2.37223
2.38548
2.36246
2.37595
2.36631
2.37677
2.38039
2.40494
2.42801
2.44393
2.44635
2.49847
2.47331
2.51911
2.52553
2.3981
2.41224
2.53271
2.5338
0.628268
0.798586
0.65076
0.776053
0.690482
0.669817
0.6292
0.587298
0.608714
0.648995
0.545553
0.598288
0.604537
0.496487
0.560556
0.691464
0.807964
0.728317
0.818694
0.816689
0.812843
0.882646
1.02639
0.926237
1.11709
1.11442
1.08257
1.02888
1.15167
1.19703
1.25443
1.24178
1.26543
1.25554
1.37515
1.32324
1.42452
1.41606
1.44085
1.44701
1.42083
1.4781
1.52174
1.49467
1.47974
1.50702
1.55639
1.54244
1.52351
1.56671
1.65132
1.64948
1.64581
1.66387
1.79377
1.71004
1.87987
1.90575
1.90619
1.97322
2.05004
2.12556
2.13506
2.14626
2.19484
2.24215
2.27906
2.2786
2.31654
2.29076
2.34219
2.35712
2.35605
2.35615
2.35472
2.35498
2.32256
2.35385
2.32169
0.00864834
0.001
0.0191589
0.00100845
0.292755
0.599413
0.288561
0.770703
0.644213
0.637723
0.493847
0.516096
0.518823
0.501209
0.512262
0.513592
0.493656
0.489742
0.520135
0.0208374
0.00772132
0.001
0.001
0.00129995
0.001
0.001
0.001
0.001
0.001
0.001
0.001
0.001
0.001
0.001
0.001
0.00211934
0.001
0.001
0.00100986
0.001
0.001
0.001
0.00188843
0.001
0.001
0.001
0.001
0.001
0.001
0.001
0.001
0.001
0.00100941
0.001
0.001
0.001
0.00100992
0.001
0.001
0.001
0.00101
0.001
0.001
0.001
0.001
0.001
0.001
0.0010008
0.001
0.001
0.001
0.00100949
0.001
0.001
0.001
0.001
0.001
0.001
0.001
0.001
0.001
0.001
0.00101
0.001
0.001
0.001
0.001
0.001
0.001
0.001
0.001
0.001
0.001
0.001
0.001
0.001
0.001
0.001
0.001
0.001
0.001
0.001
0.001
0.001
0.001
0.001
0.001
0.001
0.001
0.001
0.001
0.001
0.00106307
0.001
0.001
0.001
0.001
2.59351
2.5716
2.60312
2.60324
2.55561
2.57759
2.43518
2.42575
2.46643
2.45365
2.59397
2.55564
2.58702
2.44921
2.4016
1.49005
1.48729
1.50398
1.48014
1.48968
1.4206
1.47634
1.25492
1.30358
1.17831
1.17475
1.12164
1.12743
1.12444
0.001
0.001
0.001
0.001
0.929277
1.1202
0.95608
0.001
0.001
0.907676
0.802437
0.001
0.001
0.001
0.001
0.495737
0.644409
0.0253609
0.0271156
0.168977
0.0255196
0.464677
0.316655
0.469885
1.4959
1.49503
1.48643
1.50131
1.49367
1.20906
1.32145
1.26599
1.39027
1.44148
1.46893
1.40151
1.48972
1.43441
1.43465
1.42655
0.001
0.00107728
0.001
0.001
0.001
0.001
0.001
0.001
0.001
0.001
0.001
0.001
0.001
0.001
0.001
0.0219876
0.0250866
0.001
0.001
0.001
0.00110958
0.001
0.001
0.001
0.001
0.00100955
0.001
0.001
0.001
0.001
0.001
0.001
0.001
0.001
0.001
0.001
0.00108345
0.001
0.00108312
0.001
0.001
0.001
0.001
0.001
0.001
0.001
0.001
0.001
0.001
0.001
0.020526
0.001
0.001
0.001
0.001
0.001
0.001
1.10433
1.02956
1.01955
0.94835
0.936874
0.856286
0.842731
0.831779
0.832899
0.820357
0.833404
0.760423
0.775102
0.698585
0.681558
0.834656
0.837058
0.622397
0.617425
0.618258
0.62875
0.904202
0.970739
0.887245
0.781112
0.762695
0.839195
0.769614
0.854815
0.696249
0.664922
0.72497
0.681252
0.634786
0.631943
0.624156
0.64685
0.642022
0.612496
0.607525
0.587844
2.21484
2.22905
2.23574
2.23236
2.25608
2.22667
2.32758
2.35171
2.30465
2.28417
2.39325
2.34448
2.32228
2.15693
2.16006
2.18361
2.17399
2.19317
2.19813
2.22267
2.20582
2.11515
2.1189
2.14123
2.12951
2.14401
2.14762
1.78691
1.70831
1.63086
1.6681
1.6157
1.52111
1.70362
1.66729
1.90216
1.90165
1.86141
1.90565
1.99376
2.04247
1.90439
1.95101
2.04382
2.04304
2.06633
2.04521
2.0868
2.10658
2.10563
2.10537
2.10644
2.10509
2.10897
2.11042
2.10764
2.10467
1.1444
1.20573
1.39197
1.36797
1.28995
1.37402
1.39104
1.46782
1.13933
1.13411
1.1298
1.04643
0.883858
0.927618
1.01017
2.35306
2.3577
2.38524
2.37674
2.40077
2.41371
2.41273
2.41357
2.4502
2.43022
2.4446
2.40987
2.44063
2.45191
2.47457
2.49653
2.51028
2.5048
2.55781
2.55727
2.57949
2.56315
2.47198
2.47672
2.58693
2.5862
0.415528
0.489347
0.346684
0.598818
0.513331
0.598624
0.582235
0.581409
0.505165
0.438627
0.377742
0.38488
0.4128
0.455074
0.638523
0.535438
0.526186
0.714916
0.865883
0.82758
0.685652
0.920396
0.955292
0.97508
0.961654
1.06146
1.13382
1.01223
1.23696
1.17437
1.24756
1.25041
1.34143
1.28175
1.40302
1.43548
1.43054
1.43472
1.55912
1.52182
1.49148
1.54576
1.57097
1.56517
1.55898
1.54976
1.56323
1.56486
1.64649
1.68799
1.72571
1.68399
1.72542
1.75444
1.89208
1.82662
1.91928
1.90578
1.98783
2.06242
2.15088
2.14519
2.18285
2.21915
2.29587
2.28541
2.3079
2.31328
2.34052
2.35036
2.36753
2.36047
2.37026
2.36636
2.35539
2.36691
2.35379
2.35403
0.001
0.001
0.001
0.001
0.001
0.001
0.001
0.120651
0.00102272
0.507967
0.537762
0.0400321
0.224944
0.521734
0.510986
0.514977
0.498634
0.496052
0.52754
0.477389
0.329575
0.001
0.001
0.001
0.001
0.00100179
0.001
0.001
0.001
0.001
0.001
0.00101
0.001
0.001
0.00100863
0.0019015
0.001
0.001
0.001
0.00387411
0.001
0.001
0.001
0.00100974
0.001
0.001
0.001
0.00100983
0.001
0.001
0.00100647
0.001
0.00100976
0.001
0.001
0.001
0.001
0.001
0.00344108
0.001
0.001
0.001
0.001
0.001
0.00129886
0.00129878
0.0012988
0.001
0.001
0.001
0.001
0.001
0.001
0.001
0.001
0.001
0.001
0.001
0.001
0.001
0.001
0.001
0.001
0.001
0.001
0.001
0.001
0.001
0.001
0.001
0.001
0.001
0.001
0.001
0.001
0.001
0.001
0.001
0.001
0.001
0.001
0.001
0.001
0.001
0.001
0.001
0.00101
0.001
0.00158021
0.001
0.00107177
0.001
0.00105701
0.001
0.001
0.001
2.594
2.61791
2.63458
2.58887
2.58679
2.56445
2.59914
2.45231
2.51264
2.51971
2.51826
2.53574
2.58907
2.59635
2.43227
2.45113
2.38232
2.43468
2.42262
1.47802
1.48466
1.38921
1.3558
1.44795
1.37953
1.3856
1.25865
1.28692
1.14688
1.12519
1.12851
1.12134
1.10049
0.001
0.001
1.03995
1.14874
0.925356
0.001
0.001
0.883024
0.877884
0.001
0.001
0.619725
0.753189
0.001
0.061884
0.001
0.001
0.478294
0.486362
0.0775486
0.107372
0.148673
0.256685
0.411841
1.45051
1.48884
1.46288
1.45002
1.21346
1.21028
1.23143
1.30744
1.42405
1.42024
1.37276
1.42241
1.41972
0.00100999
0.001
0.001
0.001
0.001
0.00100001
0.0013321
0.00361473
0.001
0.0383325
0.0474789
0.0854062
0.0786006
0.0904144
0.135402
0.170212
0.127169
0.212238
0.17613
0.118926
0.166557
0.173883
0.165391
0.001
0.001
0.00108264
0.001
0.001
0.00101
0.001
0.001
0.001
0.001
0.001
0.001
0.001
0.001
0.001
0.001
0.001
0.001
0.001
0.0345223
0.098711
0.129879
0.192904
0.0816493
0.001
0.001
0.295531
0.176095
0.211891
0.246468
0.001
0.001
0.001
0.001
0.001
0.001
0.001
0.001
0.001
0.001
1.02031
0.935127
0.932801
0.870491
0.87378
0.846556
0.86351
0.835871
0.872374
0.800667
0.802436
0.710358
0.727598
0.63163
0.634634
0.607475
0.606642
0.754794
0.729001
0.616616
0.605161
0.611437
0.598483
0.82676
0.872057
0.712671
0.684738
0.754902
0.87103
0.932713
0.887512
0.616716
0.572842
0.640629
0.664529
0.567196
0.547719
0.540259
0.504566
0.539248
0.512769
0.534755
0.553157
2.2972
2.22567
2.3106
2.25344
2.20401
2.27325
2.28129
2.29138
2.30345
2.34952
2.29192
2.37804
2.35099
2.41677
2.14162
2.15972
2.15826
2.1781
2.16109
2.18839
2.19679
2.1792
2.11085
2.11557
2.12652
2.13091
2.13288
2.13066
1.83998
1.76003
1.64964
1.66802
1.57073
1.66271
1.67332
1.73013
1.90808
1.90772
1.90729
1.88421
1.99959
2.04677
1.96601
1.9191
2.04711
2.04842
2.05465
2.07462
2.10515
2.09325
2.1047
2.10617
2.10686
2.10449
2.10428
2.10817
2.10445
2.10697
1.22513
1.13171
1.39821
1.40001
1.31189
1.4052
1.40161
1.50283
1.1274
1.12781
1.1079
1.08994
1.03054
1.12831
2.3665
2.3865
2.40612
2.44199
2.4362
2.45776
2.471
2.48065
2.48923
2.47809
2.48286
2.50832
2.52929
2.53825
2.53868
2.54875
2.56791
2.59034
2.59961
2.60043
2.60996
2.48858
2.47814
2.62993
2.65515
0.243652
0.278838
0.260096
0.356351
0.452857
0.547414
0.438214
0.444436
0.370462
0.379023
0.377973
0.400868
0.509781
0.457608
0.527557
0.53155
0.527757
0.586711
0.661665
0.830506
0.753203
0.915657
0.997151
0.993159
0.904437
1.0615
1.06748
1.15393
1.21768
1.18957
1.26592
1.20921
1.40228
1.3277
1.43583
1.43538
1.44913
1.51085
1.63504
1.64442
1.58346
1.61029
1.64365
1.58942
1.69812
1.62506
1.6004
1.63824
1.77268
1.78118
1.84871
1.89954
1.78594
1.87285
2.02023
1.96821
2.0381
2.00809
2.20215
2.16793
2.23517
2.25087
2.32247
2.33388
2.39453
2.36212
2.40783
2.39163
2.40976
2.44278
2.41375
2.44469
2.45146
2.4098
2.39813
2.44032
2.4374
2.40959
0.001
0.001
0.00101
0.001
0.001
0.001
0.001
0.001
0.001
0.001
0.001
0.00137705
0.251683
0.001
0.001
0.327174
0.0704944
0.488946
0.344976
0.412081
0.534807
0.351312
0.241333
0.001
0.00115255
0.001
0.001
0.001
0.001
0.001
0.00143148
0.00100993
0.001
0.001
0.001
0.001
0.001
0.00100156
0.001
0.001
0.001
0.001
0.001
0.001
0.001
0.001
0.0010095
0.00101
0.00100891
0.001
0.001
0.001
0.001
0.00125774
0.001
0.001
0.00125767
0.001
0.001
0.001
0.00100996
0.00158015
0.001
0.00121945
0.001
0.001
0.001
0.001
0.00101
0.001
0.001
0.001
0.001
0.001
0.001
0.001
0.001
0.001
0.001
0.001
0.001
0.001
0.001
0.001
0.001
0.001
0.001
0.001
0.001
0.001
0.001
0.001
0.001
0.001
0.001
0.001
0.001
0.001
0.001
0.001
0.001
0.001
0.001
0.001
0.001
0.001
0.001
0.001
0.001
0.001
0.001
0.001
0.001
0.001
0.001
0.001
0.001
0.00107177
0.001
0.001
0.001
0.00121946
0.001
0.001
2.65398
2.63993
2.6529
2.62129
2.63167
2.64771
2.63727
2.60368
2.62239
2.5377
2.52192
2.45281
2.46501
2.61555
2.64213
2.62842
2.53014
2.40583
2.46228
2.43015
2.41883
2.41812
2.45917
2.34685
1.25265
1.35255
1.25251
1.29392
1.29544
1.19842
1.20117
1.20186
1.20085
1.20388
1.17679
1.0974
1.07323
0.989018
0.986168
1.09978
1.2104
0.001
0.001
0.876851
0.877613
0.001
0.001
0.812152
0.686644
0.00123268
0.0133257
0.553981
0.49038
0.155088
0.122464
0.0737917
0.48831
0.408894
0.171926
0.199471
0.314202
1.36107
1.28607
1.26113
1.34279
1.20844
1.23723
1.37482
1.29699
1.34351
1.42769
1.41668
0.001
0.001
0.001
0.001
0.001
0.001
0.00822543
0.00821409
0.00805894
0.0365139
0.0886133
0.0641617
0.0972624
0.0938915
0.153917
0.11944
0.215765
0.215861
0.208714
0.203583
0.214873
0.20566
0.208832
0.216302
0.001
0.001
0.001
0.00367495
0.001
0.00100998
0.00365597
0.001
0.001
0.001
0.001
0.001
0.001
0.001
0.001
0.001
0.001
0.001
0.001
0.00101
0.001
0.32212
0.347374
0.298219
0.352608
0.375688
0.433286
0.337868
0.0342978
0.488141
0.508642
0.263248
0.214735
0.001
0.001
0.001
0.001
0.001
0.001
0.001
0.001
0.001
0.001
0.001
0.001
0.001
0.001
0.001
0.001
0.874732
0.870195
0.904542
0.869923
0.874073
0.868804
0.869457
0.687063
0.692316
0.776003
0.787242
0.657406
0.652477
0.609444
0.611578
0.60846
0.607513
0.580528
0.585533
0.617709
0.609746
0.52646
0.514075
0.474376
0.487199
0.798782
0.725337
0.664868
0.876471
0.780826
0.909939
1.00992
0.931901
0.615007
0.573084
0.67549
0.652685
0.45031
0.452199
0.45718
0.48624
0.513039
0.539261
0.5696
0.552678
2.20434
2.18929
2.20666
2.24427
2.21708
2.24892
2.21966
2.25454
2.28047
2.31502
2.31025
2.31373
2.3506
2.31912
2.41673
2.13168
2.13427
2.13925
2.14381
2.14164
2.14336
2.15307
2.17633
2.15952
2.11303
2.1173
2.12881
2.13113
2.13266
1.80835
1.88208
1.69191
1.68591
1.60502
1.70479
1.76378
1.69801
1.91967
1.93106
1.93434
1.92102
2.04811
2.01174
1.98013
2.01426
2.06158
2.0533
2.08487
2.09864
2.11735
2.11228