/*--------------------------------*- C++ -*----------------------------------*\
  =========                 |
  \\      /  F ield         | OpenFOAM: The Open Source CFD Toolbox
   \\    /   O peration     | Website:  https://openfoam.org
    \\  /    A nd           | Version:  8
     \\/     M anipulation  |
\*---------------------------------------------------------------------------*/
FoamFile
{
    version     2.0;
    format      ascii;
    class       volScalarField;
    location    "20400";
    object      H;
}
// * * * * * * * * * * * * * * * * * * * * * * * * * * * * * * * * * * * * * //

dimensions      [0 1 0 0 0 0 0];

internalField   nonuniform List<scalar> 
526318
(
1.83215
1.77459
1.8443
1.76311
1.82589
1.80025
1.79027
1.73332
1.78703
1.66599
1.64123
1.75142
1.70428
1.7346
1.70284
1.71687
1.71276
1.90912
1.79903
1.86043
1.84051
1.79936
1.56784
1.81159
1.68378
1.55554
1.8297
1.82975
1.83698
1.84248
1.88785
1.91626
1.90052
1.78217
1.77867
1.79098
1.77798
1.85767
1.77376
1.71448
1.77091
1.77584
1.42419
1.47502
1.37738
1.42895
1.40591
1.5097
1.71016
1.59322
1.68945
1.70083
1.64849
1.59774
1.10182
1.34745
1.34104
1.14343
1.85896
1.87592
1.89343
1.83268
1.79539
1.92592
1.90869
1.891
1.86223
1.86348
1.77325
1.76738
1.87278
1.64619
1.70315
1.59523
1.54701
1.5354
1.64122
1.62673
1.56034
1.58508
1.68315
1.67318
1.62901
1.57983
1.6145
1.67742
1.6739
1.64289
1.6031
1.68119
1.58562
1.5304
1.52578
1.4492
1.45785
1.45415
1.45919
1.44941
1.45305
1.45085
0.889763
0.82915
0.917056
0.950947
1.01427
0.798407
1.36186
1.17338
1.48297
1.44894
1.49395
1.6101
1.83674
1.71463
1.8317
1.84666
1.90441
1.89245
1.93166
1.4411
1.44704
1.45049
1.45503
1.41156
1.44425
1.35866
1.39915
1.30901
1.36028
1.31122
1.30916
1.30077
1.27442
1.26796
1.29681
1.23721
1.29058
1.24033
1.26088
1.20511
1.2102
1.23198
1.26203
1.24635
1.20283
1.20308
1.21744
1.20096
1.2051
1.20874
1.22243
1.20146
1.22286
1.2215
1.21724
1.16983
1.20535
1.19878
1.19469
1.12999
1.2266
1.16613
1.23823
1.70862
1.80176
1.7507
1.73153
1.53694
1.60835
1.54238
1.5412
1.54365
1.53115
1.56668
1.54039
1.47404
1.45252
1.41057
1.35539
1.40861
1.45305
1.45812
1.45604
1.34152
1.3899
1.28375
1.29512
1.30311
1.28941
1.29794
1.29797
1.28783
1.2881
1.2842
1.27135
1.2527
1.27697
1.26986
1.23789
1.22511
1.25356
1.24714
1.21695
1.24437
1.23348
1.23418
1.19622
1.22089
1.24636
1.25428
1.70354
1.71473
1.74468
1.74116
1.69217
1.71132
1.71251
1.55329
1.63227
1.36414
1.34006
1.3388
1.4732
1.58613
1.4767
1.49915
1.52423
1.45277
1.44506
0.944889
0.743301
1.08428
1.28474
0.542562
0.379553
0.681849
0.780381
0.747459
0.74386
1.911
1.90418
1.94695
1.93778
1.89921
1.88356
1.80602
1.88229
1.7306
1.68064
1.67336
1.68068
1.67074
1.67885
1.67411
1.65932
1.58377
1.64578
1.45908
1.51959
1.45224
1.45918
0.252733
0.187947
0.646278
0.434733
0.926749
0.872307
0.92699
1.07706
1.45949
1.27318
1.51905
1.50671
1.61941
1.71917
1.84586
1.84975
1.86196
1.85396
1.93292
1.95676
1.42319
1.42933
1.38584
1.35816
1.25661
1.29286
1.22052
1.22896
1.21969
1.21585
1.20229
1.20932
1.13733
1.16223
1.193
1.23096
1.28571
1.25435
1.21581
1.21373
1.14607
1.1409
1.18689
1.24421
1.16778
1.20168
1.20464
1.16559
1.17315
1.14159
1.12732
1.09519
1.0978
1.09835
1.08768
1.21304
1.24709
1.21229
1.25323
1.61184
1.58308
1.47296
1.56017
1.477
1.52949
1.54734
1.52322
1.54481
1.54328
1.46064
1.36286
1.29516
1.27972
1.3554
1.29432
1.28091
1.39218
1.28144
1.33318
1.27191
1.27474
1.28481
1.27201
1.2947
1.28332
1.28144
1.28706
1.28511
1.28357
1.29042
1.2853
1.29649
1.29665
1.29896
1.27596
1.29515
1.27434
1.24705
1.2507
1.27588
1.30857
1.30002
1.27068
1.25812
1.28015
1.32225
1.32221
1.33403
1.29576
1.32834
1.34669
1.38473
1.33705
1.33981
1.36481
1.40028
1.53602
1.57703
1.51017
1.5242
1.59437
1.68071
1.58769
1.45287
1.57107
1.47784
1.4963
1.22891
1.17815
1.2089
1.19107
1.31208
1.44269
1.36496
1.4308
1.43058
1.46724
1.42138
0.709422
0.852298
1.00512
0.847814
1.08823
0.974818
0.117902
0.268811
0.193502
0.126089
0.0319664
0.274736
0.496856
0.740587
0.622397
0.643615
1.92318
1.93198
1.97361
1.95108
1.92806
1.89887
1.82578
1.74472
1.68836
1.68427
1.66477
1.66576
1.65061
1.65349
1.62606
1.62775
1.57659
1.62002
1.54385
1.48723
1.43077
1.38329
0.000947598
0.00107101
0.00107102
0.000663073
0.00064137
0.000731205
0.000576852
0.00107102
0.0010711
0.00107102
0.0989633
0.000670147
0.000424495
0.000558832
0.0611685
0.000265543
0.158945
0.259448
0.266895
0.431995
0.893148
0.683743
0.99389
0.966856
1.16285
1.00936
1.37047
1.52969
1.5456
1.63034
1.85897
1.7504
1.87387
1.86118
1.88485
1.93217
1.94081
1.95219
1.34693
1.34581
1.2977
1.32706
1.26607
1.22893
1.22093
1.22111
1.21563
1.22092
1.17329
1.16471
1.11271
1.12659
1.1845
1.15833
1.12655
1.17702
1.16907
1.18912
1.09795
1.08864
1.11151
1.12038
1.12445
1.08105
1.08206
1.07938
1.08532
1.0691
1.06708
1.3674
1.34122
1.34312
1.342
1.36162
1.46989
1.42613
1.40472
1.28917
1.33195
1.31744
1.3203
1.22051
1.15875
1.33404
1.44835
1.33433
1.3406
1.32461
1.40428
1.38347
1.45682
1.48546
1.4184
1.3987
1.42806
1.30677
1.28259
1.27756
1.28045
1.19509
1.24494
1.17
1.12148
1.1084
1.22479
1.22352
1.27747
1.27837
1.2708
1.27868
1.27457
1.28527
1.27476
1.28711
1.27737
1.2964
1.28893
1.29734
1.29694
1.32184
1.31284
1.33383
1.33756
1.28504
1.27036
1.33722
1.31596
1.3047
1.32299
1.3069
1.29171
1.34798
1.32083
1.42419
1.43591
1.38584
1.42668
1.434
1.40236
1.49352
1.46459
1.53318
1.55377
1.57787
1.48554
1.50322
1.47957
1.48593
1.47043
1.4337
1.51558
1.35289
1.33909
1.37514
1.40358
1.07679
1.12678
1.20855
1.3267
1.35721
1.40146
1.308
1.26111
1.23322
1.16439
0.536941
0.614926
0.89001
0.698963
1.01173
1.07295
0.0426876
0.000948807
0.0343377
0.0308447
0.176442
0.000803608
0.55804
0.314865
0.472922
0.48291
0.000766556
0.000551352
0.000138864
0.000388285
0.000649101
0.00101
0.000142449
0.000999779
0.000880878
0.000393403
0.00112137
0.000826487
0.00110027
0.000981786
0.00112133
0.00112106
0.000945979
0.000999494
0.0009727
0.000201819
9.59135e-05
0.000989075
0.000892979
0.0009482
0.00100959
0.000881287
0.00100965
0.000996543
2.65749e-05
0.000931251
1.93495
1.94539
1.98058
1.9571
1.94158
1.86938
1.66637
1.7624
1.64819
1.65223
1.62559
1.62994
1.61648
1.61763
1.62146
1.61335
1.56176
1.51984
1.43231
1.47154
1.32357
1.36913
0.000963252
0.000636742
0.000948563
0.000967574
0.000969466
0.000982262
0.000988888
0.000870723
0.00101
0.000983993
0.000677989
0.000965569
0.000971308
0.000759356
0.000380116
0.000991326
0.000690401
0.00100737
0.000803925
0.000839513
0.000369052
0.000975289
0.000796047
0.000333911
0.0468627
0.188205
0.362322
0.329796
0.402774
0.579733
1.03345
0.835854
1.04873
1.05012
1.34418
1.17766
1.55531
1.51859
1.57704
1.68906
1.78716
1.86976
1.88771
1.87448
1.91717
1.94716
1.92338
1.91997
0.00112917
0.000873585
0.000886173
0.000214321
0.000712868
0.000987943
0.00081396
0.000939553
0.000890554
0.000725685
0.000975785
0.00092383
0.000794854
2.99799e-07
0.000880516
0.00101
0.000170373
1.32747
1.32325
1.32728
1.28977
1.21205
1.24941
1.17277
1.16682
1.12966
1.12502
1.0806
1.07497
1.10908
1.10403
1.06594
1.10176
1.09547
1.14535
1.12694
1.12725
1.04821
1.02006
1.01892
1.06222
1.06726
1.06941
1.04518
1.04819
1.01063
0.999123
0.962621
0.969513
1.56577
1.53342
1.57456
1.58479
1.53292
1.48859
1.65785
1.68144
1.74491
1.75325
1.29915
1.33974
1.39082
1.47515
1.29628
1.24369
1.27773
1.27764
1.11818
1.17019
1.22322
1.10542
1.31461
1.3284
1.32057
1.31786
1.34197
1.31783
1.33618
1.35323
1.23389
1.22617
1.12471
1.21199
1.20352
1.15867
1.11307
1.12852
1.06889
1.08788
1.07448
1.16209
1.22256
1.15112
1.22226
1.27847
1.27931
1.27151
1.27362
1.27979
1.30178
1.28764
1.30532
1.30371
1.32245
1.31807
1.34034
1.33795
1.34566
1.3373
1.3503
1.34291
1.38287
1.35448
1.32266
1.32281
1.38589
1.35674
1.36353
1.40431
1.44429
1.44353
1.44328
1.4426
1.47264
1.52618
1.58949
1.60978
1.62027
1.59846
1.74204
1.67976
1.8074
1.84715
1.83789
1.87615
1.93047
1.79584
1.88317
1.90595
1.98044
2.02816
2.0545
2.07314
2.10453
2.0482
2.10415
2.06145
2.1405
2.14196
2.19101
2.15956
2.22085
2.25299
2.24139
2.19164
2.25662
2.28087
2.24573
2.2444
2.30862
2.28553
2.31797
2.25695
2.25877
2.32142
2.29026
2.24092
2.24351
2.27489
2.30552
1.30286
1.25626
1.43692
1.4121
1.39776
1.37949
1.36683
1.14933
1.28422
0.995432
1.01743
1.13097
1.10456
0.986812
1.06716
1.05503
1.22931
1.13662
1.12921
1.048
1.03168
1.04283
1.07312
0.58598
0.471728
0.862461
0.661424
0.860794
0.818548
0.000957054
0.000140067
0.000976376
0.000315273
0.00791153
0.00022806
0.198191
0.433181
0.340956
0.352516
0.000232022
0.00069126
0.000943677
0.000831092
0.00135579
0.000489583
0.00012748
0.000146108
0.000949
0.000431299
6.93167e-06
1.61879e-05
0.000990101
0.00093513
0.00100829
0.000615639
0.000911134
0.000410555
0.0010095
0.000955456
0.000956984
0.00101967
0.000715416
0.00101512
0.000974989
0.000911677
0.00101
0.00057983
0.00105996
0.000858895
0.00105983
0.00105979
0.00098726
0.0010603
0.00106006
0.00105983
0.000490779
0.000554078
0.000993933
0.000773625
0.000877713
0.00099375
0.000922247
0.000776475
0.0010078
0.000994205
0.000136415
0.000956593
0.000950381
0.000921886
0.000915695
0.000919934
0.000616216
0.00101
0.000623175
0.000968314
1.92978
1.90539
1.8882
1.87708
1.80314
1.86756
1.69666
1.62506
1.61563
1.62503
1.61211
1.62013
1.55737
1.56762
1.40433
1.36809
1.32528
1.49927
1.49921
1.45029
1.45089
1.45196
0.00081225
0.00036748
0.00113093
0.00113092
0.000962471
0.000414864
0.00093308
0.000410365
0.00113093
0.000896889
0.000161511
0.00100893
0.000972717
0.000941946
0.000297472
0.000985833
0.00063365
0.00091818
0.000471154
0.0342547
0.422238
0.244716
0.455464
0.456764
0.697779
0.499406
0.892415
1.05132
1.17955
1.04757
1.33936
1.5193
1.53756
1.57377
1.66174
1.76765
1.83215
1.80573
1.84058
1.79032
1.8499
1.87478
1.83959
1.84256
0.00101
0.000865295
0.00100993
0.000849207
0.000924318
0.00119103
0.000760281
0.000802174
0.00119103
0.000964874
0.000981161
0.000996251
9.9754e-09
1.51015e-05
0.00101
0.000411253
3.57062e-30
0.00072123
0.00101
0.000253336
0.000277025
0.000765241
0.00096459
0.000879022
0.00220989
0.00101185
1.29731
1.30085
1.21872
1.23848
1.11519
1.14006
1.07848
1.0755
1.0725
1.0773
1.04478
1.05029
1.02329
1.02273
1.00037
1.03912
1.11855
1.07869
1.11871
1.11822
0.93905
0.960109
1.0004
0.979627
0.986311
0.991303
0.938127
0.930638
0.915923
0.929951
0.938257
0.934886
1.78877
1.7879
1.61592
1.53094
1.51726
1.50594
1.78512
1.69781
1.94222
2.01736
1.91461
1.83944
2.03011
2.01319
2.07906
2.12741
2.15825
2.15856
2.18728
2.16106
2.21655
2.24173
2.23855
2.23696
2.2555
2.24232
2.24053
2.28615
2.23085
2.22731
1.34924
1.27579
1.42108
1.49333
1.27777
1.22487
1.27784
1.2756
1.107
1.16074
0.991774
1.16085
1.05303
1.31616
1.25809
1.33011
1.31822
1.32077
1.21612
1.121
1.04448
1.0275
1.04068
1.07924
1.00626
0.988945
0.915206
1.00674
1.08359
1.08015
0.996414
1.10184
1.17132
1.11557
1.2223
1.16891
1.21256
1.26877
1.30707
1.27625
1.30904
1.31263
1.32553
1.31313
1.34578
1.35588
1.35451
1.37216
1.37708
1.37533
1.41174
1.42042
1.41116
1.4066
1.41206
1.40165
1.42013
1.43758
1.48179
1.47842
1.4441
1.47296
1.47082
1.50033
1.5362
1.59819
1.63024
1.62916
1.64237
1.71081
1.79597
1.86841
1.88218
2.00691
1.88189
1.93249
2.0818
2.10497
2.10584
2.14169
2.19235
2.24112
2.25396
2.25622
2.28548
2.31206
2.33842
2.33797
2.3377
2.33785
2.337
2.31926
2.25382
2.3176
2.28621
2.24057
2.23963
2.27145
2.30309
2.31292
2.24132
2.30114
2.25974
1.08511
1.08202
1.1472
1.22249
1.12252
1.19012
1.32559
1.26154
1.28892
1.1201
1.02555
0.987473
0.988862
1.0905
1.07527
0.745141
0.849994
1.03754
0.930676
1.03726
1.04079
1.05153
1.03491
1.04881
1.07375
0.267622
0.415678
0.513501
0.691475
0.711621
0.712904
0.00086849
0.000172666
0.000348616
0.00101
0.000750262
4.30051e-05
0.0456867
0.000557597
0.166362
0.00048282
0.000425587
0.00135564
0.000928609
0.00101
0.000997262
0.000660221
0.000998234
0.000701989
0.000938544
0.000874495
0.00105175
0.000942474
0.000791252
0.000751098
0.000990039
7.57449e-05
0.00099613
0.000976554
0.000151024
0.000571069
0.000544652
0.000936558
0.000858938
0.000973708
0.000922504
0.000999888
0.000978339
0.000944855
0.000974885
0.00092222
0.000207016
0.000979907
0.000919067
0.00101
0.000732523
0.00100962
0.000641972
0.000367709
0.000916152
0.000960434
0.000966144
0.000892128
0.000575399
0.000479733
1.82663
1.81188
1.80483
1.81026
1.7595
1.80671
1.60682
1.68289
1.58173
1.58228
1.52278
1.50073
1.44686
1.45248
1.36421
1.26098
1.23548
1.40692
1.45194
1.44716
1.45408
1.44739
0.00113099
0.000958426
0.00113099
0.000846663
0.000973634
0.000973647
0.00094649
0.000972052
0.00100548
0.000830393
0.000135327
0.000443538
0.00093376
0.000997208
0.00060297
0.00100999
0.00093126
2.55196e-05
0.000212171
0.135541
0.306603
0.458808
0.525421
0.471256
0.676404
0.863847
1.01178
1.0515
1.24321
1.07512
1.38676
1.50837
1.49012
1.60098
1.76377
1.66474
1.74985
1.7496
1.72931
1.76236
1.8382
1.81035
1.83052
1.80512
0.000769413
0.000922585
0.000563688
0.000958878
0.000712787
0.000933944
0.000627141
0.000452485
0.000821459
0.000879841
0.000957505
0.000856862
0.000968979
1.98609e-25
0.000922039
0.000873917
0.00096514
0.000987798
0.000743529
0.00100999
0.000468733
3.69924e-11
0.00207314
0.000901385
0.00101
0.000860782
0.000668131
0.000489708
0.000816537
3.81957e-22
0.00098545
1.1734
1.17508
1.14027
1.11756
1.07578
1.09849
1.06433
1.06236
1.22029
1.16055
1.13898
0.988804
1.00089
0.930683
0.932065
0.999914
1.00062
0.991903
1.03242
1.0925
1.04429
1.08189
1.06421
0.958597
0.936883
0.950521
0.972291
0.898986
0.896645
0.897588
0.912297
0.927165
0.912269
0.875701
0.885765
2.36105
2.36966
2.39933
2.3762
2.42129
2.40606
2.43284
2.4214
2.47622
2.46524
2.43032
2.48061
2.44448
2.49822
2.3277
2.28053
2.29954
2.34878
2.33141
2.29994
2.30473
2.35639
2.36291
2.33635
2.31761
2.37023
2.35491
2.36608
2.38949
2.24118
2.24057
2.23972
2.23981
2.25831
2.2783
1.83272
1.77898
1.67522
1.58016
1.49349
1.56809
1.7684
1.75194
1.98877
2.01175
1.89931
1.98097
2.01934
2.06746
2.11583
2.15715
2.15636
2.15706
2.15534
2.18485
2.19856
2.22416
2.21188
2.2141
2.2185
2.22779
2.20571
2.20476
1.40119
1.32741
1.27047
1.26043
1.31845
1.49395
1.4721
1.2008
1.25727
1.13174
1.06394
2.34434
2.36602
2.38146
2.38916
2.3945
2.40656
2.41001
2.43809
2.42352
2.4412
2.43974
2.49015
2.51074
2.53557
2.53492
2.53884
2.5539
2.57725
1.03774
0.98445
0.989087
1.24829
1.13977
1.30233
1.20932
1.12704
1.02902
1.02897
1.02766
1.0293
0.880413
0.955162
0.807435
0.82764
0.910214
0.826604
1.09306
1.02322
0.917995
1.11515
1.11924
1.11465
1.17236
1.13446
1.25618
1.20341
1.29035
1.25491
1.28486
1.31662
1.33432
1.36041
1.38187
1.38333
1.39092
1.38268
1.4402
1.42946
1.42137
1.42051
1.47453
1.44683
1.51869
1.47771
1.45942
1.50289
1.54749
1.53762
1.56049
1.59556
1.59746
1.54187
1.65187
1.68183
1.65289
1.64239
1.72667
1.80907
1.88323
1.94847
1.89658
1.91213
2.0402
2.10008
2.14278
2.12368
2.18874
2.22024
2.26188
2.2778
2.27368
2.29094
2.34773
2.32993
2.33872
2.34839
2.339
2.33604
2.33566
2.33614
2.33486
2.3351
2.33454
1.07106
1.06102
1.08714
1.00549
1.02976
1.04168
0.98643
1.12051
1.02935
0.962374
0.981109
0.963758
0.8615
0.965196
0.987521
0.764963
0.755368
0.716467
0.81802
1.03456
0.933387
0.935918
0.935965
0.729545
0.611546
0.412903
0.430909
0.35003
0.17289
0.170708
0.713385
0.528343
0.691675
0.696491
0.000776109
0.00096702
0.000896738
0.000998449
0.000160355
0.000888291
0.00100984
2.26462e-06
0.138589
0.000888068
0.000398457
0.000668916
0.00101
0.000330569
0.000740386
1.90488e-21
5.53999e-14
0.00240027
0.000379096
0.000850418
0.000694792
0.000545923
0.000997667
0.0003892
0.00100993
0.000972649
0.000977525
0.000963111
0.000999516
0.000751111
0.00101225
0.000948565
0.000750908
0.000957264
0.000588245
0.00101253
0.00089779
0.000955844
0.000631827
0.000258775
0.00071962
0.000964465
0.000941166
0.000838222
0.00101
0.000334973
0.000769708
0.000685233
0.000978177
0.000925692
0.000935309
0.0008746
0.00091709
0.000695524
0.000567275
0.00218078
0.000159227
0.000674617
0.000835469
0.000880806
0.00218075
2.53319
2.49041
2.46097
2.57408
2.59537
2.59438
1.81594
1.82462
1.81232
1.80523
1.70645
1.78666
1.61704
1.54123
1.46249
1.47643
1.44529
1.45367
1.44581
1.45312
1.32711
1.2447
1.33545
1.4141
1.41349
0.00093523
0.00075883
0.000875173
0.000890082
0.000922295
0.0009764
0.000965395
0.000493094
0.000931051
0.000554111
0.00100943
0.000959595
0.000969088
1.01413
1.04645
1.07747
0.00085301
0.000426038
0.0154854
0.0219721
0.308577
0.18388
0.478887
0.510797
0.672088
0.535364
0.847507
1.21244
1.36543
1.48131
1.4627
1.77745
1.71258
1.7192
1.50356
1.60071
1.68153
1.74602
1.74885
1.74273
1.75262
1.79155
1.76758
0.000680958
0.0011784
0.000628841
0.000982796
0.000704864
0.000720222
0.00100904
0.000845157
0.000706536
0.000865554
0.000823186
0.000932446
0.000763197
0.000831138
0.000896425
0.000464554
0.000627663
0.00100504
0.000978863
0.000935387
0.000938185
0.000682923
0.000677014
0.000937995
0.000997599
0.000978674
0.000347723
0.000953032
0.000978459
0.000973622
0.00101
0.00100979
0.000838321
0.000978065
0.000644837
0.000954507
0.000811322
1.17538
1.21101
1.19903
1.13894
1.13912
1.11129
1.13264
1.00004
1.02962
0.940645
0.937997
1.14554
1.1335
0.89279
0.892046
0.893573
0.89757
0.94981
0.930443
0.968982
0.91428
1.04004
0.988744
1.03784
1.0507
0.878246
0.831748
0.856203
0.889042
0.863858
0.86644
0.80545
0.846446
0.825925
0.805475
0.782165
0.783254
2.36266
2.37745
2.40137
2.41766
2.41823
2.42557
2.47391
2.44944
2.29312
2.29131
2.27514
2.2976
2.32982
2.29095
2.33235
2.31164
2.22707
2.21581
2.21428
2.24473
2.27432
2.2479
1.8384
1.76082
1.6559
1.74508
1.59212
1.5062
1.75733
1.75705
1.99582
1.99869
2.01302
1.91126
1.98936
2.10049
2.04642
1.99039
2.03173
2.1335
2.14652
2.13877
2.14492
2.15321
2.17658
2.20348
2.19308
2.20303
2.20317
2.20206
2.20264
2.20245
2.20224
1.24435
1.24766
1.38765
1.46902
1.24743
1.3275
1.4876
1.50081
1.23754
1.18087
1.09125
1.15878
2.3749
2.33407
2.35362
2.39984
2.3984
2.40108
2.41135
2.43384
2.45635
2.4667
2.46765
2.47232
2.49726
2.53698
2.51848
2.53522
2.55148
2.59951
2.576
2.40614
2.41825
2.43475
2.60765
2.60501
2.60669
0.988866
0.98811
0.986003
0.95717
1.05585
1.07183
0.874085
0.912199
0.947053
0.835971
0.874737
0.874467
0.805562
0.804295
0.80676
0.805006
0.834774
0.870891
0.972337
0.901573
0.896873
1.04376
1.11895
1.04026
1.1931
1.22134
1.15607
1.19222
1.25417
1.21674
1.34778
1.28642
1.35528
1.37175
1.3827
1.36923
1.42122
1.45952
1.49546
1.49681
1.50335
1.48522
1.51351
1.4944
1.54407
1.54983
1.57564
1.57214
1.55224
1.55182
1.66973
1.71718
1.61557
1.68079
1.72791
1.68961
1.7896
1.83665
1.93557
1.9732
1.95169
2.04038
2.09727
2.19459
2.18181
2.24089
2.21453
2.30983
2.31603
2.30923
2.33922
2.36827
2.36545
2.42094
2.38469
2.41152
2.37323
2.37152
2.40904
2.33823
2.37619
2.33836
0.440261
0.756022
0.443066
0.721143
0.99867
0.978092
0.986009
0.961496
0.986141
0.836392
0.735516
0.732402
0.627539
0.833349
0.706667
0.730279
0.857242
0.11413
0.115059
0.492563
0.614119
0.61044
0.410211
0.291431
0.296218
0.0760619
0.0868412
0.0962365
0.1896
0.164666
0.0771205
0.256819
0.159025
0.411677
0.211387
0.138667
0.0010004
0.000112849
0.00044385
0.000919656
1.24565e-17
0.000297927
0.00225097
9.4816e-06
0.0010023
0.0350244
0.0009581
0.000364482
0.00101
0.000172236
0.000994378
0.00221378
0.000973052
0.000134455
0.00096781
0.00100982
0.00137295
0.000344324
0.00100983
0.000979813
0.000465046
0.000983408
0.00101
0.000808151
0.00101247
0.00101234
0.000896998
0.000918195
0.00101232
0.00101246
0.000955402
0.000727389
0.000711032
0.000919589
0.00169359
6.09313e-05
0.0016935
0.000743308
0.00098702
0.000966821
0.00099923
0.00100984
0.00101
0.00100994
0.000799141
0.000805878
0.000827454
1.20946e-05
9.12481e-06
0
0.00090453
0.000799517
0.000430028
0.000828932
0.0013729
0.000898711
0.00100958
0.00100997
0.000701708
0.000998553
0.000946811
0.000914726
0.00101
2.50955
2.48366
2.4909
2.51019
2.54713
2.65754
2.62129
2.61154
2.64675
2.56797
1.71324
1.70324
1.63435
1.63139
1.60332
1.63183
1.54376
1.49124
1.48616
1.45523
1.41973
1.42057
1.33494
1.34648
1.21379
1.25575
1.25436
0.000529692
0.000965684
0.000913493
0.00101
0.000949844
0.000924031
0.000585991
1.04676
1.18908
1.0456
0.000567395
0.000198964
0.000872008
0.000979614
0.915955
0.747848
0.0837842
0.026485
0.115699
0.21664
0.513174
0.366919
0.545814
0.548575
0.585118
1.58853
1.60241
1.63928
1.32778
1.4679
1.46714
1.50727
1.62303
1.6939
1.66518
1.56618
1.64346
1.66522
1.67082
1.6004
1.64175
0.000957717
0.000979414
0.00117843
0.00101
0.000634754
0.000823908
0.00101
0.0011651
0.000859097
0.000555484
0.000160682
0.000986054
0.000875008
0.000779447
0.000150641
0.000970585
0.000119474
3.23615e-05
0.000982444
0.00101
0.000771965
0.000895476
0.000833864
0.000976221
0.00092185
0.00100577
0
0
0
0.00065666
0.000783995
0.00101
0.00100563
0.000944429
0.000473953
0.000911195
0.000978965
0.000968087
0.00097325
0.000338297
0.00093345
0.000914242
0.000101101
0.000822171
1.10633e-05
1.19286
1.20339
1.21301
1.08027
1.10177
1.06098
1.05984
0.987555
0.978424
0.892061
0.901769
0.8914
0.891246
0.993779
0.989821
0.840384
0.838137
0.803605
0.781925
0.881086
0.873621
0.898362
0.954556
1.03552
0.997907
1.06628
1.01725
0.818382
0.787433
0.847674
0.874349
0.747307
0.746413
0.720802
0.741985
0.783375
0.762746
0.783609
0.789309
2.37313
2.31848
2.41104
2.36151
2.37361
2.42654
2.3805
2.45414
2.39778
2.49056
2.42477
2.42407
2.49886
2.45698
2.2583
2.25881
2.24797
2.26206
2.27487
2.28895
2.28677
2.3036
2.20204
2.20181
2.22567
2.20986
2.23969
2.2485
1.84014
1.76279
1.68187
1.75677
1.55543
1.64511
1.75856
1.76423
1.98863
1.98904
1.99194
1.91878
2.07746
2.1248
2.03696
1.98872
2.13216
2.13106
2.14666
2.13153
2.16852
2.19239
2.19955
2.20094
2.2005
2.19726
2.2014
2.20196
2.20023
2.19633
1.24177
1.23656
1.40716
1.48142
1.38325
1.30199
1.53797
1.48388
1.21393
1.23648
1.2094
1.12546
2.37479
2.41163
2.39344
2.41923
2.43929
2.42883
2.46192
2.47566
2.45247
2.46758
2.45648
2.46748
2.47264
2.49468
2.51694
2.53356
2.53577
2.58828
2.56412
2.6111
2.61603
2.48914
2.50227
2.6227
2.62441
0.723246
0.883153
0.754963
0.859256
0.782745
0.755451
0.714471
0.686013
0.712889
0.741636
0.64435
0.685751
0.691921
0.582292
0.639812
0.787345
0.902783
0.814193
0.910561
0.910086
0.900932
0.971121
1.11617
1.02697
1.21068
1.20795
1.17407
1.12632
1.24213
1.28977
1.34648
1.32874
1.35817
1.34402
1.46243
1.41158
1.51522
1.50577
1.53108
1.53761
1.51098
1.56737
1.61094
1.58596
1.57315
1.59358
1.64766
1.63473
1.61663
1.65912
1.74175
1.74277
1.73579
1.75759
1.88753
1.80207
1.97058
1.99941
1.99698
2.06583
2.13898
2.2171
2.22363
2.23672
2.28392
2.3311
2.36846
2.36692
2.40517
2.38136
2.43345
2.44628
2.44722
2.44523
2.44632
2.44416
2.41224
2.44527
2.41249
0.0997772
0.0908335
0.11265
0.0816773
0.38787
0.691222
0.385847
0.852222
0.727213
0.735047
0.574428
0.59985
0.595514
0.597314
0.59867
0.600935
0.598887
0.601626
0.596371
0.105752
0.0983383
0.000542558
0.0388458
0.0757903
0.0308892
0.0755665
0.0737849
0.0458299
0.0599408
1.79092e-05
0.000988606
0.000555123
5.75452e-05
1.65916e-32
0.000768598
0.00211128
9.51768e-07
0.000959982
0.00100986
0.000887496
0.000962023
0.000986975
0.00189015
0.000984049
9.12521e-06
1.36216e-05
0.000607696
2.1684e-05
0.000988249
0.000479144
0.000826696
0.000961729
0.00100941
0.00031059
5.44033e-05
0.000987756
0.00100992
0.000817418
0.000560979
0.000623686
0.00101
0.000799183
0.000975819
0.000279366
0.000905419
0.000941315
0.000807627
0.0010008
0.000939674
0.000880492
0.000886752
0.00100949
0.00097168
0.000773375
0.000984106
0.000952799
0.000439338
0.00098992
0.000934564
0.000964099
0.000974876
0.000974485
0.00101
0.00099424
0.000905098
0.000464111
0
0
0
0
0
0
0
0
0
0
0
0
0
0
0
0
0
0
0
0.00099334
0.00087312
0.000937661
0.000812305
0.000920174
0.000434354
0.000930589
0.00106281
0.000325168
0.000811332
0.000920758
0.000885277
2.67874
2.6646
2.68972
2.6703
2.65224
2.67034
2.5257
2.51312
2.56637
2.54487
2.67415
2.66123
2.67545
2.54337
2.50833
1.58929
1.58563
1.58596
1.57467
1.58819
1.50782
1.54873
1.34701
1.40816
1.26561
1.26367
1.21263
1.21304
1.21301
4.53839e-05
0.000617054
0.000495047
0.000982711
1.0202
1.21679
1.0424
0.000948865
0.000937818
0.998988
0.891468
0.00022777
0.0567663
0.000655886
0.000623164
0.589011
0.734096
0.119315
0.118797
0.257512
0.12448
0.554092
0.4065
0.557093
1.57302
1.58419
1.58487
1.57653
1.58273
1.29169
1.42132
1.34941
1.47796
1.53856
1.56766
1.48912
1.58608
1.52676
1.5353
1.50565
0.00029608
0.000450647
0.000999261
0.000843954
0.000265817
0.000267524
0.00093012
0.000864435
0.000793346
0.00536881
0.00066482
0.0333285
0.000825314
8.66057e-10
0.000954356
0.112383
0.112352
0.0565966
0.000926197
0.000974901
0.0596875
0.000994525
0.000740767
0.000908685
0.000621516
0.00100955
0.000627569
0.000973579
0.000348921
2.15212e-05
0
0
0
0
0
0.000913471
0.00106572
0.000978274
0.00106571
0.0004146
0.000997231
3.83896e-05
0.00078864
0.00345826
0.000144929
0.000693854
0.000953825
0.000913421
0.015418
0.0112005
0.0990015
0
0
0
0
0
0
1.19
1.11973
1.10642
1.0369
1.02896
0.948025
0.933013
0.924343
0.922702
0.913805
0.920907
0.853169
0.862219
0.78738
0.77435
0.923834
0.929149
0.716504
0.709413
0.713026
0.718613
0.997822
1.06175
0.979601
0.874247
0.854447
0.934138
0.864216
0.948784
0.785387
0.754787
0.814233
0.768596
0.719811
0.722079
0.714376
0.735164
0.733229
0.705051
0.696792
0.679268
2.29829
2.31927
2.32464
2.32454
2.34361
2.31605
2.43827
2.44375
2.39488
2.36456
2.47342
2.42724
2.41754
2.24926
2.24738
2.27622
2.26227
2.28451
2.28736
2.31635
2.29579
2.20128
2.2098
2.23295
2.21545
2.23044
2.2397
1.88034
1.80106
1.72379
1.75966
1.70718
1.6148
1.7973
1.75991
1.99415
1.99528
1.95407
2.00072
2.08521
2.13514
1.99728
2.04542
2.13613
2.1351
2.15724
2.13753
2.17788
2.1968
2.19502
2.1954
2.19428
2.19519
2.19944
2.19594
2.19362
2.19513
1.23415
1.29374
1.48131
1.4607
1.38108
1.46373
1.48531
1.55933
1.22901
1.22367
1.21991
1.13806
0.977152
1.01864
1.10115
2.44471
2.44757
2.47515
2.46859
2.49302
2.50414
2.5035
2.50478
2.53968
2.52091
2.53357
2.5002
2.53135
2.54048
2.56564
2.58531
2.5984
2.59372
2.64765
2.64687
2.67139
2.65356
2.56035
2.56632
2.67953
2.67771
0.500489
0.567084
0.458218
0.681585
0.600913
0.678724
0.685103
0.667678
0.606733
0.526074
0.466336
0.468858
0.498475
0.553559
0.722281
0.627725
0.605741
0.80629
0.958676
0.919978
0.77264
1.01196
1.0539
1.07072
1.05472
1.1556
1.22571
1.1096
1.33214
1.26207
1.33545
1.3399
1.4289
1.3717
1.49204
1.52485
1.52002
1.52596
1.64847
1.61346
1.5858
1.63684
1.66358
1.6567
1.65143
1.64136
1.65814
1.65834
1.73762
1.78103
1.81866
1.77283
1.81886
1.84272
1.98557
1.91567
2.00966
1.99917
2.07757
2.1547
2.23851
2.23604
2.27071
2.30796
2.38345
2.37396
2.39565
2.40257
2.43103
2.43852
2.45874
2.44919
2.46148
2.45588
2.44494
2.45873
2.44357
2.44654
0.0385058
0.0127794
0.0618373
0.0407478
0.0411142
0.0703798
0.0448578
0.231119
0.0441352
0.601249
0.601707
0.124771
0.339908
0.59613
0.59667
0.598663
0.596439
0.602058
0.599142
0.529235
0.442478
0.000431921
0.000342439
0.000929073
8.05737e-05
0.000454228
0.0379361
0.000592213
0.000118657
0.000755957
0.000624923
0.00101
0.000209386
0.000613088
0.00100863
0.00189815
0.000991869
0.000918269
0.000983883
0.00374478
6.01096e-05
0.000210438
0.00024578
0.00100974
0.00081637
6.39222e-09
0.000980809
0.00100983
0.000216105
0.000848872
0.00100647
0.000131712
0.00100976
0.000959372
0.000151457
0.000986414
0.000975827
0.000972869
0.00347939
0.000980885
0.000637457
0.00098777
0.000776699
0.000620494
0.00131733
0.00131726
0.00131728
0.000900202
0.000946957
0.000832782
0.000987787
0.000948013
0.000941776
0.000961192
0.000871734
0.000897996
0.000947049
0.000951887
0.000925848
1.67713e-05
0.000881191
0.00092376
0.0003855
0.000414352
0.00098456
0
0
0
0
0
0
0
0
0
0
0
0
0
0
0
0
0
0
0
0.000847034
0.000943785
0.00101
0.000948967
0.00164263
0.000632983
0.00105365
0.000881258
0.00103415
0.000880036
0.000694164
0.000991424
2.68841
2.71213
2.72581
2.68554
2.68159
2.6565
2.68827
2.53889
2.58374
2.60271
2.61005
2.62588
2.68142
2.69286
2.51871
2.53742
2.47236
2.52728
2.51752
1.56997
1.57337
1.48467
1.44308
1.54611
1.48067
1.48798
1.34638
1.37343
1.24069
1.21333
1.21331
1.21293
1.18866
0.000732832
0.00032932
1.12869
1.24241
1.01937
0.000785925
0.000906115
0.973914
0.96764
0.0132755
0.000904801
0.711472
0.841996
0.0815502
0.150714
0.0996175
0.0497671
0.573446
0.573222
0.168409
0.206098
0.242906
0.349769
0.495759
1.53602
1.5975
1.56404
1.52858
1.30571
1.30048
1.32372
1.39654
1.50736
1.5138
1.46185
1.50556
1.51433
0.0383401
0.0351065
0.0351996
0.048943
0.0743799
0.0949289
0.102737
0.0965764
0.0994163
0.129817
0.144008
0.173924
0.171742
0.190347
0.22957
0.262116
0.218412
0.300295
0.260621
0.222604
0.263182
0.266012
0.272042
0.000995064
0.00083542
0.00106572
0.000570634
0.00039799
0.00101
0.000997214
3.7271e-05
0.000733696
0
0
0
0
0
0.000500823
0.000888564
0.000776104
0.000529486
0.0928142
0.128942
0.196903
0.220639
0.288558
0.16914
0.00748196
0.000936702
0.379545
0.265805
0.304085
0.332373
0
0
0
0
0
0
0
0
0
0
1.10781
1.02246
1.02376
0.962954
0.962788
0.94103
0.953913
0.924373
0.964486
0.890604
0.891757
0.799868
0.817788
0.723831
0.727469
0.700494
0.698164
0.848715
0.818321
0.705387
0.698353
0.698581
0.691698
0.921873
0.96476
0.802472
0.775136
0.846815
0.965956
1.02472
0.980157
0.705675
0.662359
0.728958
0.753103
0.653258
0.63803
0.629032
0.597928
0.627632
0.60341
0.624928
0.64094
2.40791
2.31948
2.39994
2.34769
2.2811
2.36361
2.36911
2.38757
2.39808
2.44215
2.37931
2.46717
2.44255
2.50311
2.23025
2.25265
2.24825
2.27116
2.2513
2.28104
2.27932
2.26951
2.19608
2.20661
2.2125
2.22231
2.22082
2.22246
1.9351
1.85264
1.74276
1.76141
1.66468
1.75622
1.76626
1.82527
2.00367
2.00121
2.00267
1.97774
2.09316
2.14032
2.06072
2.01294
2.14008
2.14048
2.14611
2.16547
2.19537
2.18349
2.19516
2.19438
2.19333
2.19508
2.19493
2.19366
2.19477
2.19357
1.31503
1.22074
1.48908
1.49251
1.40199
1.49583
1.49452
1.5958
1.21825
1.21774
1.19788
1.18065
1.12191
1.21828
2.45987
2.47741
2.49838
2.53314
2.52926
2.54819
2.56308
2.5702
2.57883
2.5658
2.57387
2.59451
2.61751
2.6289
2.62636
2.63799
2.65993
2.67938
2.68943
2.69171
2.70106
2.57652
2.56675
2.7219
2.74549
0.330828
0.356438
0.342042
0.429309
0.547743
0.627028
0.525661
0.547855
0.458632
0.471422
0.470602
0.492526
0.592943
0.543985
0.61926
0.617888
0.619354
0.681341
0.747782
0.923257
0.8477
1.00807
1.09194