/*--------------------------------*- C++ -*----------------------------------*\
  =========                 |
  \\      /  F ield         | OpenFOAM: The Open Source CFD Toolbox
   \\    /   O peration     | Website:  https://openfoam.org
    \\  /    A nd           | Version:  8
     \\/     M anipulation  |
\*---------------------------------------------------------------------------*/
FoamFile
{
    version     2.0;
    format      ascii;
    class       volScalarField;
    location    "15780";
    object      alpha;
}
// * * * * * * * * * * * * * * * * * * * * * * * * * * * * * * * * * * * * * //

dimensions      [0 0 -1 0 0 0 0];

internalField   nonuniform List<scalar> 
526318
(
0.000254706
0.000570246
0.00021581
0.000570075
0.000527367
0.000424892
0.000411437
0.000230674
0.000104827
0.000272074
0.000548357
2.09403e-05
9.06022e-05
0.000491529
0.000287312
0.000341529
0.00033957
0.000112437
0.000168986
0.000251347
0.000489067
0.000598487
0.000360205
0.000526721
0.000547706
0.000670213
0.000537139
0.000488254
0.000304509
0.000452382
0.000206151
0.000239165
6.6282e-05
0.000396754
0.000248045
0.000692582
0.000600169
0.000366497
0.000771688
0.000631735
0.000188656
0.000756138
0.000459346
0.000514682
0.000800114
0.000488392
0.000704636
0.000540554
0.000278469
0.000174172
0.000313521
0.000415555
0.000550275
0.000262295
0.00415415
0.00122667
0.000592017
0.00219949
0.000336941
0.000411675
0.000120853
0.000327441
0.000387514
0.00022121
0.0004282
0.000355824
5.3215e-05
0.000320785
0.000490702
0.000268439
0.000407314
0.000483661
0.000271659
0.000273129
0.000592652
7.34602e-05
0.000433709
0.000214584
8.23743e-05
0.000244068
0.000408027
0.000565451
0.000512633
0.000442847
0.000364139
0.000165631
0.00040876
0.000525828
0.000150705
0.000735613
0.000626078
0.000634347
0.000491786
0.000819532
0.00130171
0.000898665
0.00111059
0.000646258
0.000439882
0.000932357
0.00539132
0.0125955
0.00705832
0.00366575
0.00305204
0.0119338
0.000732578
0.00191948
0.000411244
0.000650963
0.000490195
0.000516422
0.000143416
4.22565e-05
0.000488306
0.000267263
0.000422195
0.000186162
0.000189172
0.000770033
0.000834187
0.000897407
0.000827911
0.00104683
0.000926147
0.00126562
0.000982121
0.00156253
0.00120518
0.00148985
0.00158481
0.00170045
0.00155022
0.00174997
0.00146876
0.00179399
0.00163523
0.00161139
0.00157353
0.00224865
0.00191709
0.00190578
0.00183982
0.0021675
0.00200368
0.00233213
0.00208716
0.00202291
0.00200652
0.00203343
0.00210562
0.00183628
0.00164522
0.00187825
0.0016625
0.00182301
0.00144509
0.00184146
0.00200033
0.00212263
0.0014198
0.00197465
0.00143158
0.000562681
0.00028191
0.000258789
0.000325518
0.000337404
0.000650358
0.000501897
0.000359368
0.000285247
0.000459609
0.000422257
0.000126701
0.000536899
0.000900893
0.000867073
0.000965337
0.000891995
0.000705203
0.000790862
0.000824356
0.00131353
0.0010149
0.00174147
0.0015976
0.00153416
0.00172377
0.00153566
0.00160631
0.00175495
0.00166424
0.00196733
0.00186373
0.0017539
0.00195061
0.00151688
0.00160426
0.00160851
0.00133466
0.00192855
0.00156596
0.00132021
0.00142794
0.0015209
0.00145714
0.00152055
0.00150393
0.00130144
0.000601663
0.000798717
0.000253573
0.000961371
0.00100391
0.000538806
0.000267467
0.000266327
0.000186787
0.000906921
0.000762549
0.000617045
0.000545351
0.000344155
0.0008668
0.000247101
0.000482148
0.00113593
0.000635233
0.0101738
0.357462
0.00233623
0.000987157
0
0
0
0.314255
0
0.438687
0.00019892
0.000265226
0.000314431
0.000400199
0.000426135
0.000153231
0.000338197
0.000239582
0.000823725
0.000398945
0.000520531
0.000696921
0.000751062
0.000169193
0.000746883
0.000262837
0.000559501
0.00081393
0.00102754
0.00076802
0.000988589
0.000864854
0
0
0
0
0.00711051
0.0137557
0.00520739
0.00108512
0.000286308
0.00144164
0.000509027
0.000675508
0.000276777
0.000464949
0.000384492
0.000169065
0.000372078
0.000286385
0.00027417
0.000232343
0.000830952
0.000972665
0.00098807
0.00123764
0.00171649
0.00136048
0.00170381
0.00169621
0.0017187
0.00190914
0.00217964
0.00186688
0.00181451
0.00190129
0.00105063
0.00114144
0.000705866
0.00116556
0.00104042
0.00136163
0.00148371
0.0017229
0.00142601
0.000924708
0.00157133
0.00174541
0.0020636
0.00196307
0.00198505
0.00216167
0.00247907
0.00251566
0.00305462
0.00256545
0.00228471
0.00152243
0.00118313
0.00126899
0.00110579
0.000110812
0.000568344
0.00123649
0.000500595
0.000693497
0.000633588
0.000266669
3.76085e-05
0.000234201
0.000242461
0.000403738
0.000541287
0.000872599
0.000854297
0.000864647
0.00100854
0.00120632
0.00100076
0.00113575
0.00117077
0.00177027
0.00168047
0.0017199
0.00180095
0.00171374
0.0016784
0.00173245
0.00184957
0.00194528
0.00194882
0.00165331
0.00203857
0.00135658
0.0016655
0.00133431
0.00137092
0.00121605
0.00134077
0.00160573
0.0014224
0.00138136
0.00125794
0.00100099
0.00107988
0.00143588
0.00113145
0.000797448
0.000898174
0.000826199
0.000851017
0.000675341
0.000539554
0.000722261
0.000899617
0.000747572
0.000899075
0.000524411
0.000993461
0.00127633
0.000459274
0.00155252
0.00172052
0.00108157
0.00116615
0.000534955
0.000702076
0.000503255
0.000571766
0.000776128
0.00205191
0.00107179
0.00211745
0.000694473
0.000596089
0.000913358
0.00104047
0.000580471
0.000956826
0.000668434
0
0.00867097
0.00122113
0.0139637
0.0015196
0.0037442
0
0
0
0
0
0
0
0
0
0
0.000413308
0.00014929
0.000226304
0.000276465
0.00046248
0.000475948
0.000627442
0.00024774
0.000709519
0.000382603
0.000622743
0.000308298
0.00061895
0.000441962
0.000661153
0.000390794
0.000865773
0.000399097
0.000865852
0.000581565
0.000859271
0.00122215
0
0.000155364
0.000494094
0
0
0
0
0.0003381
0.000519507
0.000721565
0
0
0
0
0
0
0
0
0
0
0.00908032
0
0.0059433
0.00574036
0.00142762
0.00382742
0.000814244
0.00075895
0.00020839
0.000509738
0.00027284
0.000409658
5.15875e-05
0.000429668
0.000182962
0.000173834
0.000283048
0.000319626
0.00112122
0.00119172
0.00142254
0.00114701
0.00146087
0.00170222
0.00159123
0.00163908
0.00193137
0.00171014
0.00189434
0.00220961
0.00192742
0.00208639
0.00191351
0.00087869
0.00190447
0.00120046
0.00211068
0.00166902
0.00152146
0.00317518
0.00200826
0.00180551
0.00220127
0.00263358
0.00271296
0.00345087
0.00292422
0.00295232
0.00346794
0.000700553
0.00109555
0.00107712
0.000843821
0.0011708
0.000828206
0.000693716
0.000569483
0.000975755
0.000889532
0.00108756
0.00110884
0.00116459
0.00153951
0.000386143
0.000817151
0.00131778
0.00060405
0.0013696
0.000871176
0.000370822
0.000123287
0.000265056
0.000415915
0.000295904
0.00031678
0.000698564
0.000730449
0.00101855
0.00105005
0.00150167
0.000934924
0.00221949
0.00225251
0.00207097
0.00167687
0.00210263
0.00170988
0.00189434
0.00182858
0.0019399
0.00184118
0.0019601
0.00198544
0.00167606
0.00211384
0.00131905
0.00186256
0.00147839
0.00126862
0.00124064
0.00124389
0.00124372
0.00116432
0.00142663
0.00126505
0.00124449
0.00127825
0.00096026
0.000956456
0.00103061
0.0011168
0.000793712
0.000698345
0.000440233
0.00065669
0.000505663
0.000661774
0.000555925
0.000763451
0.000612112
0.000469363
0.000450238
0.000554017
0.00031483
6.74576e-05
0.000491135
0.000244357
0.0014339
0.0010786
0.0017696
0.00121991
0.00104697
0.00111587
0.000241978
0.000362501
0.0036174
0.000940631
0.00177566
0.000986023
0.000735822
0.00097697
0.00169172
0.00164979
0.00119208
0.000474879
0
0
0.00374724
0
0.00347631
0.00128608
0
0
0
0
0
0
0
0
0
0
0
0
0
0
0
0
0
0
0
0
0.00662352
0
0
0
0.00244757
0.0071511
0
0
0
0
0
0
0
0
0
0
0
0
0
0
0.000558896
0.000533728
0.000317568
0.000406611
0.00015841
0.000309232
0.000674539
0.000484946
0.000365372
0.000686858
0.000363426
0.000729398
0.000261503
0.000536746
0.000377077
0.000683421
0.000552797
0.000902647
0.000755113
0.000794821
0.0013048
0.000949899
0
0
0
0
0
0
0
0
0
0
0
0
0
0
0
0
0
0
0
0
0
0
0
0
0
0
0
0
0
0
0.00428088
0.0167474
0.00207504
0.00361825
0.0011764
0.00032894
0.000547617
0.000520645
0.000399361
0.000275117
0.000172322
0.000339584
0.000218008
0.000291323
0.000213471
6.26274e-05
0.000340413
0.00023616
0.00278944
0
0
0
0
0
0
0
0
0
0
0
0
0
0
0
0
0.00108768
0.0012498
0.00113819
0.00135607
0.00157365
0.00137408
0.0018807
0.00189977
0.00254813
0.00230842
0.00226825
0.00251044
0.00213189
0.00227456
0.00285429
0.00184443
0.00177148
0.0016563
0.00211174
0.00176136
0.00248558
0.00242113
0.0027608
0.00254647
0.00233884
0.0020136
0.0026758
0.00317578
0.00437717
0.00327777
0.0047892
0.00377828
0.000359871
0.000650342
0.000419482
0.000545717
0.000579868
0.000797659
0.000534257
0.000274384
0.000288843
0.000336459
0.00134099
0.00110925
0.00106604
0.000734842
0.000965058
0.0012901
0.00130653
0.00129857
0.00213999
0.00137839
0.000331585
0.00145795
0.000720761
0.000418328
0.000806253
0.000236178
0.000220861
0.000570727
0.0003784
9.98356e-05
0.000725092
0.00045811
0.00186683
0.00140144
0.00147658
0.00102546
0.00160172
0.00160194
0.003262
0.00328822
0.00256454
0.00231639
0.00206025
0.00271814
0.00218744
0.00182405
0.00183361
0.0019643
0.00202561
0.00162023
0.00131281
0.00184907
0.00152994
0.00130209
0.00136825
0.00130105
0.00119718
0.00136982
0.00122932
0.00128972
0.00105611
0.000980665
0.00098037
0.00108666
0.00086314
0.000901411
0.0008162
0.000845421
0.000649125
0.000690747
0.000564023
0.000653917
0.000567219
0.000689785
0.000431867
0.000440699
0.000270781
0.000356538
0.000265157
0.000403643
0.000273566
0.000240947
0.000198156
0.00015136
0.000159738
0.000173883
0.000149691
0.000273416
0.000133706
0.000106475
0.000105977
0.000119352
8.42588e-05
0.000131226
8.64195e-05
0.000130335
8.75276e-05
0.000144395
0.00012001
9.63149e-05
0.000116264
0.000165201
7.1319e-05
0.000116269
6.76233e-05
0.000148847
4.0394e-05
0.000117471
6.52566e-05
0.000143399
3.79739e-05
7.28592e-05
7.70256e-05
2.042e-05
0.000111693
2.23829e-05
0.00018409
9.40316e-05
0.000145514
5.83873e-05
0.000123179
0.00098954
0.000254905
0.000470314
0.00145558
0.000518873
0.00032019
0.00134831
0.00166515
0.00128312
0.00293728
0.00416279
0.00147262
0.000763466
0.00426614
0.00170049
0.000316005
0.00201028
0.00156114
0.00312117
0.00190008
0.00249989
0.00205976
0.00173641
0
0
0.0101002
0
0.0101055
0.0190368
0
0
0
0
0
0.00557184
0
0
0
0
0
0
0
0
0.00988927
0
0
0
0
0
0
0
0
0
0
0
0
0
0
0
0
0.00777752
0
0
0
0
0
0
0.00465218
0
0.00303975
0
0
0
0
0
0
0
0
0
0
0
0
0
0
0
0
0
0
0
0
0
0
0
0
0
0.000503516
0.000356169
0.000254333
0.00054439
0.000348222
0.000111739
0.000890113
0.000843221
0.000613837
0.000412868
0.000580768
0.00043792
0.000683903
0.000631779
0.000866791
0.000746299
0.00122028
0.0003092
0.000756108
0.000821126
0.000772376
0.000617508
0
0
0.00270111
0.00339959
0
0
0
0
0.00686665
0
0
0
0
0
0
0
0
0
0
0
0
0
0.00811182
0.00691227
0
0
0.010348
0.00501612
0.00171255
0.00294027
0.000729029
0.000724227
0.000167999
0.000877561
0.000288228
0.000361041
0.00024277
0.000321603
0.000307242
0.000198614
9.06493e-05
0.000266695
0.000264766
0.000218927
0.0025232
0
0
0
0
8.85203e-05
0
0
3.55953e-05
0
0
0
0
0
0
0
0
0
0
0
0
0
0
0
0.529168
3.26014
0.00114014
0.00105454
0.00142477
0.00128536
0.00191208
0.00175294
0.00278317
0.00271316
0.00264319
0.00199051
0.0023447
0.00186002
0.00358489
0.00348712
0.0032823
0.00244185
0.00212485
0.00213837
0.00187339
0.00204059
0.00401743
0.00399191
0.00352343
0.00367336
0.00368636
0.0028849
0.00617994
0.00455278
0.00451214
0.0048993
0.00705453
0.00463976
0.000249718
0.000399811
0.000483218
0.000745069
0.000671183
0.000776636
0.000333344
0.000578939
0.000218041
0.000158143
0.000193804
0.000336995
0.000162581
0.000159271
0.000152898
0.000128224
0.000133979
0.000162081
0.000116595
0.000180445
0.000172635
0.000138241
0.000172548
0.000127077
0.00013767
0.000132488
0.000110674
7.5117e-05
0.000123318
0.000178492
0.00114629
0.00148297
0.00101644
0.000777962
0.000949047
0.00145902
0.00130906
0.00158366
0.00240635
0.00159702
0.00109995
0.0010199
0.00149472
0.000677921
0.000845392
0.000599711
0.000558348
0.000686647
0.000370305
0.000543271
0.00146122
0.00206463
0.000748494
0.00158765
0.00307571
0.00145416
0.0107965
0.00314704
0.00330684
0.00258189
0.00436497
0.00283209
0.00217644
0.00272212
0.00205585
0.00251142
0.0024082
0.00161989
0.00128595
0.00188588
0.00152831
0.00130054
0.00139713
0.00136563
0.00117015
0.00138437
0.00131585
0.00108741
0.00100949
0.00103663
0.00081834
0.000779041
0.000820161
0.000846954
0.000716128
0.000701979
0.000765623
0.000715711
0.000567627
0.000626599
0.00054191
0.000522773
0.000627239
0.000531141
0.000290438
0.000326187
0.000278389
0.000222985
0.00022417
0.000206752
0.000141012
0.000109405
0.00010869
7.575e-05
0.000101786
8.87417e-05
7.2582e-05
2.37e-05
6.9403e-05
6.44756e-05
3.89907e-05
9.48813e-05
1.32781e-05
9.73669e-05
4.67077e-05
3.53495e-05
5.19143e-05
0.000177746
0.000225428
0.000122099
0.000158724
0.00027887
0.000146198
0.00017248
7.97168e-05
0.000143501
0.000134866
0.000128188
0.000131985
0.000149219
0.000133073
0.000132147
0.000148042
0.00175694
0.00289998
0.000188394
0.000985337
0.00223506
0.00119501
0.000904353
0.000170943
0.000421461
0.00405179
0.00255809
0.00108791
0.00377042
0.00209879
0.00192472
0.396619
0.0226242
0.00203364
0.0146963
0.00116012
0.00424846
0.00367246
0.003012
0.00246281
0.00207908
0
0
0
0
0
0.02148
0
0
0
0.00656838
0
0
0
0
0
0
0
0.0142105
0
0
0
0
0
0
0
0
9.2826e-05
0
0
0
0
0
0
0
0
0
0
0
0
0
0
0.000684403
0
0
0
0
0
0
0
0
0
0
0
0
0
0
0
0
0
0
0.000295502
0.000425641
0.000390605
0.000204666
0.000456587
0.000726536
0.000753948
0.000353193
0.000567473
0.000862753
0.000562667
0.000304026
0.000862308
0.000758778
0.000995286
0.000781272
0.00132986
0.000512635
0.000670955
0.000549648
0.000814674
0.00071002
0.000957921
0
0.00148884
0
0
0
0
0
0
0
0
0
0
0
0
0
0
0
0
0
0
0
0
0
0
0.018317
0.0097915
0.00101687
0.000491158
0.00144633
0.000360987
0.000737406
0.00021572
4.24989e-05
0.000518658
0.000310083
0.000211893
2.34438e-05
0.000125671
0.000573464
0.000470829
0.000597794
0.000175196
8.73005e-05
0
0
0
0
0
0
0
0
0
0
0
0
0
0
0
0
0
0
0
0
0
0
0.488849
0
0
0
0
0
0
0
0
0.00123207
0.00139364
0.001351
0.00169865
0.00237945
0.00220221
0.00185661
0.00230781
0.00142943
0.00101717
0.00128638
0.00246426
0.00158702
0.00240588
0.00346255
0.00405386
0.00338645
0.00353558
0.00266503
0.00229216
0.00282756
0.00231696
0.00262021
0.00416682
0.00373414
0.00375818
0.00300375
0.00529036
0.00729255
0.0039567
0.0087383
0.00597918
0.00386992
0.0071042
0.00906886
0.000207271
0.000188826
0.000199707
0.000219971
0.000181495
0.00018726
0.00019957
0.000202037
0.00016143
0.000176319
0.000192679
0.000178102
0.000161143
0.000162265
0.000154562
0.000162867
0.000170593
0.00014105
0.000189941
0.000179559
0.000190909
0.000167264
0.000187974
0.000197719
0.000188295
0.00017636
0.000219909
0.000217321
0.00018453
0.000147762
0.000118067
0.000155517
0.000131871
0.000155741
0.000148942
0.000265339
0.000482599
0.000493743
0.000751102
0.000902719
0.000646981
0.000407544
0.000554426
0.000243763
0.000151967
0.000359251
0.000152829
0.000142658
0.000156971
0.000144825
0.000167657
0.000166854
0.00019089
0.000219312
0.000233168
0.000228303
0.000221096
0.000189524
0.000205781
0.000114156
0.000149142
0.000214599
0.000151483
0.00101545
0.00133653
0.00132808
0.00149575
0.00131247
0.000889783
0.000946771
0.00155383
0.000988057
0.00141733
0.00281946
9.84172e-05
0.000137524
0.000141592
0.00014969
0.000150517
0.000148794
0.000161735
0.000167516
0.000169734
0.000154946
0.000170739
0.000148391
0.000158613
0.000136867
0.000147054
0.000171078
0.00013114
0.000147542
0.00102349
0.00149051
0.00235534
0.000618396
0.0009039
0.000552396
0.000482558
0.000921928
0.00203101
0.000132352
0.000126713
0.000647899
0.00657274
0.00114104
0.031297
0.0104123
0.00369798
0.0140726
0.00263455
0.00364911
0.00641513
0.0021467
0.00284724
0.00253158
0.0024671
0.00311775
0.00160386
0.0020505
0.0014356
0.0019268
0.00150613
0.00149506
0.00121227
0.00134663
0.00121087
0.00111697
0.00106706
0.00117272
0.000785625
0.000997767
0.000788291
0.000749971
0.000768156
0.000758443
0.000542184
0.000621541
0.000706734
0.000542022
0.000513738
0.000536167
0.000317694
0.000405964
0.000458798
0.000398816
0.000307664
0.000218521
0.00019383
0.000226846
0.000114978
0.000119594
8.54256e-05
8.71575e-05
0.00012311
7.5099e-05
6.11019e-05
2.98884e-05
5.17081e-05
4.57046e-05
2.91157e-05
6.91392e-05
7.31451e-05
1.85926e-05
6.03448e-05
7.0795e-05
0.000149
6.15557e-05
0.000241752
0.000143179
5.7947e-05
0.000402407
0.000244757
0.000246955
0.000227259
0.000142529
0.000175385
0.00309322
0.00480498
0.00292511
0.00472979
0.00657912
0.00430682
0.001224
0.00358827
0.00273448
0.0149769
0.00604087
0.00627794
0.00357887
0.00469721
0.00362159
0.0960639
0.0824228
0
0.0306199
0.00260136
0.0109757
0.018818
0.0149099
1.47008
0
0
0
0
0.00240609
0.00282974
0.031344
0
0
0
0
0
0
0
0
0
0
0
0.00928444
0
0
0
0
0
0
0
0
0.208217
0
0
0
0
0
0
0
0
0
0
0
0
0.00168765
0
0
0
0
0.0176189
0
0
0
0
0
0
0
0
0
0
0
0
0
0
0
0
0
0
0
0.00225304
0
0
0
0
0.00251203
0.000168326
0.000206796
0.000197089
0.000144278
0.000141333
0.000141899
0.000593909
0.000433217
0.000459442
0.000368029
0.000443295
0.000440027
0.000560235
0.000556717
0.000641688
0.00049772
0.000478076
0.000786935
0.000695546
0.000368287
0.000889312
0.000540239
0.000810076
0.000552987
0.000859402
0
0
0
0
0
0
0
0
0
0
0
0
0
0.00293105
0.00337003
0.00296418
0
0
0
0
0
0
0
0
0
0
0.00868526
0.000304895
0.000550801
0.000740683
0.000391162
0.000429785
0.00026453
0.000147166
0.000185032
0.000483384
0.000573482
8.03833e-05
0.000469623
0.00042509
0.000180936
0.000325331
0.00045216
0
0.00101399
0
0
0
0
0
0
0
0
0
0
0
0
0
0
0
0
0
0
0
0
0
0
0
0
0
0
0
0
0
0
0
0
0
0
0
0.00126406
0.00121622
0.000616449
0.000837408
0.00125012
0.00156516
0.00114082
0.00273778
0.00317248
0.00180504
0.00363152
0.00103561
0.000704452
0.00475454
0.00445554
0.00809022
0.00584247
0.00414938
0.00493947
0.00531505
0.00737954
0.00211633
0.0029083
0.00339481
0.00194556
0.00544719
0.00957468
0.00886898
0.00200106
0.00440684
0.00515619
0.0163913
0.0137763
0.0162335
0.0270416
0.0265039
0.0188193
0.000218473
0.000214895
0.000197348
0.000205078
0.000215044
0.000215446
0.000243071
0.000223272
0.000175381
0.000147904
0.000198691
0.000193235
0.000208828
0.000187329
0.000225447
0.000208665
0.000116316
0.000161122
0.000149317
0.000162773
0.000162991
0.000155823
0.000307939
0.000529886
0.00071829
0.000482713
0.000722311
0.000997037
0.00055435
0.000469609
0.000168893
3.6044e-05
0.000127333
0.000339198
0.000100975
0.000149991
7.65697e-05
5.79992e-05
0.000119427
0.000126053
0.000243697
0.000214416
0.000304737
0.000246651
0.000302271
0.000293296
0.000274957
0.000261344
0.00023187
0.000205247
0.0001941
0.00011189
0.00017177
0.00168538
0.00168075
0.00125597
0.00095388
0.00189345
0.00144998
0.000977273
0.000999662
0.00133431
0.00178898
0.00218655
0.00128099
0.00014785
0.000107573
9.8021e-05
0.000146814
0.000147592
0.0001402
0.000140413
0.000133339
0.000145541
0.000144697
0.000134729
0.000137952
0.000142072
0.000135924
0.000120196
0.000109869
0.00012744
0.000128612
0.000114814
0.000139022
0.000120285
0.000122018
0.000106997
0.00014342
0.000120741
0.00431618
0.00857635
0.0045667
0.00302439
0.00182462
0.000833689
0.00252528
0.00383078
0.00358538
0.0238891
0.00364719
0.00456423
0.0344788
0.00975991
0.0169825
0.0182493
0.00339383
0.00417562
0.00520246
0.00451732
0.00385939
0.0031697
0.00226438
0.00426897
0.00280265
0.00202975
0.00250739
0.00221387
0.00184737
0.00193786
0.00139351
0.00145446
0.00128165
0.00123985
0.00104416
0.0013678
0.00113529
0.000792597
0.00083042
0.000942198
0.000476045
0.000713479
0.000333376
0.000477131
0.000504854
0.000494762
0.000431932
0.000508746
0.000434389
0.000490353
0.000237819
0.000307025
0.000327422
0.000355752
0.000187358
0.000264267
9.05721e-05
0.000139248
5.65761e-05
6.37519e-05
0.000129244
3.27578e-05
7.47506e-05
3.11955e-05
8.14196e-05
8.67885e-05
4.04863e-05
5.12965e-05
8.46751e-05
0.000101227
6.37015e-05
9.37051e-05
0.000102718
9.75916e-05
9.18357e-05
9.24946e-05
0.000350709
0.000506007
0.000215591
0.000383945
0.000112304
0.000211326
0
0.192261
0
0
0.0271271
0.00404438
0.0236042
0.0150168
0.0127598
0.0256739
1.52153
0
0
0.0305439
0
0
0.0160647
0
0
0
0
0
0
0
0
0.000240914
0
0
0.00700646
0.0018993
0
0
0
0
0
0
0
0
0
0
0
0
0.282792
0
0
0
0
0
0
0
0
0.181222
0
0
0
0
0.0035125
0
0
0
0
0
0
0
0.00146779
0.00674862
0
0
0.0139543
0.00812547
0
0
0
0
0.00600694
0
0.00796172
0
0
0
0
0
0
0
0
0
0
0
0
0
0
0
0
0
0.00388146
0
0
0
0
0
0
0
0
0.000177804
0.000147682
0.000198983
0.000191243
0.000171333
0.000127191
0.000163561
0.000103797
0.000113783
0.000171655
6.64248e-05
0.000559499
0.000366904
0.000404249
0.000339502
0.000393549
0.000486466
0.000577511
0.000261241
0.000192667
0.000372543
0.000558491
0.000320041
0.000778748
0.000861399
0.000723691
0.00114063
0
0
0
0
0
0
0
0.00247222
0.0010889
0.00273006
0
0
0
0
0.0104713
0.28574
0
0
0
7.29709e-05
0
0
0
0
0
0.000557136
0.000476277
0.000517925
0.000775416
0.000656762
0.000609109
0.000401102
0.000297549
0.000287766
0.000373273
0.000586091
0.000421899
3.28631e-05
0.000635103
0.000223892
0.000479848
0
0
0.000957632
0
0
0
0
0.000320976
0
0
0
0
0
0
0
0.00931848
0
0.00421805
0.00708666
0
0
0
0
0
0
0
0
0
0
0
0.0076221
0
0
0
0
0
0
0
0
0
0
0
0
0
0.00354804
0.000930127
0.000588527
0.0008112
0.00116174
0.00103205
0.00112191
0.00166943
0.00354378
0.0027204
0.00390598
0.00419535
0.00609793
0.00887373
0.00258349
0.00141645
0.0106582
0.00724209
0.0305908
0.0322402
0.00826224
0.00969356
0.00375932
0.00444878
0.00221871
0.00320406
0.00157921
0.00251831
0.00153728
0.015804
0.0104072
0.00770285
0.2886
0.0805946
0
0.715233
0.0275298
0.0506366
0.054985
0.0128556
0.000226431
0.000229412
0.000225026
0.000266056
0.000226379
0.000167655
0.000241374
0.000250763
0.000169
0.000263291
0.000316186
0.000286075
0.000223627
0.000269066
0.000192824
0.00021535
0.000182216
0.000195338
0.000199048
0.000218269
0.000229735
0.000234471
0.000187283
0.000168371
0.000190518
0.000203377
0.000161832
0.000185035
0.000307724
0.000533629
0.000648684
0.00054169
0.000906385
0.00074827
0.00054648
0.000530341
0.000136736
5.41739e-05
0.00012482
0.000303946
5.03237e-05
0.000210277
0.000163726
2.19841e-05
0.000281407
0.000161888
0.00036181
0.000279744
0.000286148
0.000334064
0.000235953
0.000247499
0.000257067
0.000264956
0.000200653
0.0001945
0.000327815
0.000296742
0.00183242
0.00184391
0.0012065
0.00106939
0.0013556
0.00169756
0.00102158
0.00106076
0.00177739
0.0016657
0.00112311
0.00197478
0.000400965
8.84968e-05
0.000214587
4.69903e-05
0.000112545
7.44533e-05
0.00013959
0.000109703
7.45621e-05
0.000115308
0.00010207
0.000111739
0.000119444
9.88079e-05
0.000116694
9.40675e-05
0.000113869
0.000101109
8.18737e-05
9.28387e-05
8.31044e-05
9.8343e-05
7.53156e-05
9.48092e-05
9.90556e-05
0
0.00539351
0.303185
0.00928038
0.0672209
0.0417266
0
0
0
0.577614
0
0
0
0
0
0.0288974
0.00516992
0.02536
0.00427933
0.00650788
0.00385837
0.00376315
0.00230688
0.00325983
0.00223358
0.00200325
0.00250675
0.00161026
0.00172197
0.0015054
0.00116801
0.00122049
0.000960609
0.00131178
0.000572924
0.00106191
0.000662431
0.000497539
0.000926875
0.000595269
0.000529264
0.00061431
0.000372907
0.000408313
0.000465067
0.000392287
0.000377791
0.000437654
0.000389368
0.00038582
0.000220995
0.000268353
0.000284127
0.000291171
0.000163658
0.00012068
7.16428e-05
0.000102619
4.26944e-05
0.000108981
4.12411e-05
0.000101485
4.53849e-05
0.000102842
6.69986e-05
0.000102488
7.85049e-05
9.35075e-05
0.000103832
7.68604e-05
9.85039e-05
0.000102539
0.000107648
0.00017541
0.000133287
0.000242342
0.000438503
0.000125582
4.13146e-05
0
0
0.104417
0.000183621
0
0
0
0.0370381
3.06018
0
0
0.00147424
0
0
0.0148512
0
0
0
0.00951598
0.303397
0.267853
0
0
0.00952307
0
0.00930767
0.00587502
0
0
0
0
0
0
0
0
0.11415
0
0
0
0
0
0
1.65605
0
0
0
0
0
0
0
0
0
0
0
0
0
0
0
0
0
0
0
0
0
0
0
0
0
0
0
0
0
0
0
0
0
0
0
0
0
0
0
0
0
0
0
0
0
0
0
0
0
0
0
0
0
0
0
0
0
0
0
0
0
0
0
0
0
0
0
0
0
9.1536e-05
0
0
0
0
0.000102312
8.11792e-05
0.000104009
0.000144626
0.000127138
0.000128627
0.000192038
0.000196965
0.00014721
0.000205397
0.000133343
0.000171362
0.00014731
0.000170473
0.000204116
0.000557703
0.000878821
0.000535515
0.000370464
0.000602686
0.000720464
0.000242371
0.000120599
0.000288129
0.000327979
0.000483984
0.000864767
0.000457575
0.000887995
0
0
0
0
0.00255188
0.000406381
0.00355443
0
0
0.00565295
0.0101255
0
0
0
0
0
0
0.0121276
0.00764113
0
0.00691648
0
0
0
0.000389267
8.80903e-05
0.000281612
0.000169922
0.000316251
0.00093178
0.000627788
0.00046288
0.000303438
0.000395791
0.000626804
0.000290066
0.00019136
0.000473536
0.000349077
0.000279221
0
0.00337788
0
0
0
0
0
9.68861e-05
0
0
0.000280987
0
0
0
0.000891206
0
0
0
0
0
0
0
0
0
0
0
0
0
0
0
0
0
0
0
0
0
0.00531025
0
0.0105685
0
0
0
0
0
0
0
0
0
0
0
0
0
0
0
0
0
0
0.000756877
0.000924633
0.00067616
0.0013208
0.000763855
0.0032964
0.00201355
0.00348557
0.00651771
0.00463153
0.00727235
0.00339458
0.00384367
0.0381318
0.0746384
0.00147162
0.00415333
0
0
0
2.76054
0.00492288
0.000314388
0.00274999
0.0030363
0.00117779
0.00519046
0.00640935
0.00325422
0.0231431
0.184844
0.0110217
0.0195741
0.040102
0.42491
0
0.914183
0.77667
0
0
0
0.000222071
0.00016046
0.000235239
0.000322709
0.000211783
0.000352313
0.000357033
3.80271e-05
0.000340823
0.000226826
0.000198091
0.000188831
0.000219226
0.000206893
0.000220747
0.000243961
0.000201751
0.000249971
0.000233933
0.000264525
0.000272153
0.000204179
0.000223413
0.000205322
0.000233254
0.000219529
0.000256232
0.000327671
0.000490607
0.000605244
0.000637437
0.000780253
0.000863425
0.000566361
0.000591745
0.000111839
0.000135215
0.000260893
0.000150175
0.000146855
0.000245624
0.000121707
0.000184373
0.000253918
0.000342517
0.000322253
0.000308275
0.000334727
0.000349912
0.00016782
0.00026557
0.000120433
0.000162561
0.000243454
0.000236172
0.000233707
0.000221329
0.00190355
0.0017169
0.00120461
0.0010816
0.00130551
0.00124223
0.00115264
0.00105137
0.00203423
0.00182569
0.000977302
0.00136168
0.00505388
0.00252591
0.000280213
0.000274376
0.00016297
9.02822e-05
0.000188002
6.4991e-05
6.98808e-05
0.000124159
0.000120487
9.44305e-05
5.75083e-05
7.10834e-05
9.00724e-05
8.93183e-05
7.35841e-05
9.15154e-05
6.703e-05
6.59422e-05
8.36348e-05
6.30857e-05
7.74079e-05
7.53357e-05
8.38331e-05
6.49054e-05
6.60604e-05
8.7582e-05
8.91017e-05
0
0
0
5.76067
0
0.0532799
0.0323781
0
0
0
0
0.00363573
0
0
0
0
0
0.0235729
0.00349128
0.00484445
0.0428547
0.00215983
0.00217597
0.00406055
0.00302577
0.00221074
0.00200806
0.00256599
0.0010366
0.00149339
0.00101118
0.000994645
0.000626436
0.000977871
0.000631899
0.000473108
0.000515842
0.000500965
0.00052598
0.000452569
0.000339727
0.000388626
0.000509768
0.000473337
0.000415066
0.000390946
0.000367546
0.000495381
0.000304342
0.000297232
0.000220851
0.000201762
0.000246005
0.000232142
0.000153525
0.000135646
9.12705e-05
0.000145935
7.23003e-05
0.000122057
7.122e-05
0.000130642
7.74864e-05
0.000112928
0.000101969
6.67151e-05
0.000100386
9.07774e-05
7.56263e-05
8.97692e-05
8.3846e-05
8.60268e-05
7.74932e-05
8.487e-05
0.000190917
8.78293e-05
2.73361e-05
0.000104627
0
0
0
0
0
0
0
0
0
0.00974207
0
0
0
0.0175538
0.0143711
0.0152007
0.0178342
0.00113691
0.0148811
0
0
0
0
0
0
0
0
0
0
0
0
0
0
0
0
0.0978826
0
0
0
0.151156
0
0
0
0
0
0
0
0
0
0
0
0
0
0
0
0
0
0
0.30603
0
0
0
0
0
0.00219473
0.00223007
0.00431213
0
0
0
0
0
0
0
0
0
0
0
0
0
0
0
0
0
0
0
0
0
0
0
0
0
0
0
0
0
0
0
0
0
0
0
0
0
0
0
0
0
0.00616495
0
0.0028149
0
0.0106181
0
0
0
9.88364e-05
9.27392e-05
0.000107938
0.00011914
0.000121898
0.000135917
0.000146527
0.000178975
0.000194236
0.000187516
0.000173567
0.000196796
0.000153904
0.00015106
0.000227095
0.000210129
0.000258264
0.000244704
0.000222127
0.000191645
0.000628736
0.000225634
0.000255097
0.000187192
0.000362872
0.000294767
0.00061158
0.000291647
0.000263555
0.00050844
0.000350241
0.000624255
0.000507506
0
0
0.00169937
7.12175e-05
0.00168372
0
0
0.000878952
0.00197063
0
0
0
0.0113613
0
0
0
0
0
0
0
0
0
0
0
4.74662e-05
0.000355274
0.000409079
0.000495176
0.000669344
0.000681255
0.000372035
0.000452743
0.00043315
0.000340675
0.000189468
0.000208667
0.000324282
0
0
0
0
0
0
0.0161837
0.00775336
0
0
0
0
0
0
0
0
0
0.00118104
0
0
0
0
0
0
0
0.00315485
0
0
0.0221472
0
0
0
0
0
0
0
0
0
0
0
0
0
0
0
0
0
0
0
0
0
0
0.00229466
0
0
0
0
0
0
0
0
0
0
0
0.00116515
0.000611078
0.00143944
0.000244978
0.00177071
0.00369336
0.00233694
0.00489177
0.00119752
0.00446822
0.00358936
0.0302397
0.0205985
0
0
0
0
0.00697344
0.0186867
0
0
0
0
0.00110946
0.00246071
0.00305264
0.0100426
0.00589842
0.00317458
0.00353963
0.00315286
0
0
0
0.0480874
0
0
0
0
0
0
0
0
0.000345223
0.000463957
0.000245772
0.00045272
0.000288808
0.000242477
0.000275074
0.00030209
0.000225619
0.000251193
0.000245584
0.000211158
0.000235287
0.000197942
0.000241775
0.000202105
0.000220508
0.000236357
0.000244441
0.000257136
0.000282272
0.000198345
0.000235007
0.000258642
0.000209174
0.000158263
0.00022828
0.000280378
0.000345137
0.000480452
0.000698988
0.000723368
0.000850262
0.000794116
0.000682946
0.000602365
0.000185806
0.00015039
0.000181592
0.000255996
0.000245441
0.000270857
0.000203689
0.000203254
0.00031606
0.000355483
0.000353124
0.000374948
0.000108859
0.00025928
0.000371061
0.0002281
0.00039111
0.000416554
0.000290059
0.000231147
0.000220635
0.000384242
0.00163672
0.00192602
0.00124755
0.00111083
0.00115495
0.00112193
0.00122063
0.00103567
0.00116123
0.00136207
0.000591865
0.00118058
0.00150547
0.00107815
0.00018667
8.44297e-05
4.48638e-05
0.000143942
0.000116409
7.69616e-05
5.46652e-05
6.15569e-05
6.54935e-05
4.00541e-05
6.73412e-05
4.7184e-05
6.84283e-05
7.32787e-05
5.04575e-05
5.4981e-05
7.3902e-05
7.30227e-05
8.53325e-05
9.16683e-05
9.30253e-05
1.63713e-05
6.5462e-05
0.000110582
9.85173e-05
0
0
0
0
0
0
0
0
0
0.0039603
0
0
0
0
0
0
0
0
0.076344
0.00493816
0.00544011
0.00208784
0.00295098
0.00263098
0.00462639
0.00213614
0.00165279
0.00127374
0.00102523
0.000999625
0.000876265
0.000912918
0.000540551
0.000882568
0.000586099
0.000560206
0.000447678
0.000543098
0.000257848
0.000485194
0.000294351
0.000330299
0.000499676
0.000525719
0.000320941
0.000317543
0.000356841
0.000418129
0.000253066
0.000254252
0.000174782
0.000175623
0.000251592
0.000199829
0.000120581
0.000173759
0.000163223
0.000104873
0.000147118
8.75471e-05
0.000147628
8.7963e-05
0.000110136
0.00013193
9.13155e-05
0.000125313
0.000123998
0.000122975
0.000114999
0.000113811
0.000119707
0.00012798