/*--------------------------------*- C++ -*----------------------------------*\
  =========                 |
  \\      /  F ield         | OpenFOAM: The Open Source CFD Toolbox
   \\    /   O peration     | Website:  https://openfoam.org
    \\  /    A nd           | Version:  8
     \\/     M anipulation  |
\*---------------------------------------------------------------------------*/
FoamFile
{
    version     2.0;
    format      ascii;
    class       volScalarField;
    location    "12180";
    object      nut;
}
// * * * * * * * * * * * * * * * * * * * * * * * * * * * * * * * * * * * * * //

dimensions      [0 2 -1 0 0 0 0];

internalField   nonuniform List<scalar> 
526318
(
9.39639e-05
0.000138504
8.62483e-05
0.000179857
6.32054e-05
0.000101917
0.000123608
6.53863e-05
7.5216e-05
0.000205389
5.31936e-05
0.000129292
6.87564e-05
0.000234913
0.000133546
0.000170224
2.72306e-05
4.27169e-05
0.000146129
0.000138614
0.000166372
0.000167885
0.000194533
0.000203195
8.08322e-05
0.000116367
0.000130445
0.000214528
0.000137636
0.000193876
0.000138148
0.00018865
0.000123253
8.99541e-05
0.000111509
4.36196e-05
0.000131823
0.000153443
6.29712e-05
7.20421e-05
7.98964e-05
0.000173827
6.95272e-05
9.54253e-05
0.000195567
0.000256415
0.000122112
8.26805e-05
0.000129999
0.000135117
4.63703e-05
8.67842e-05
4.94091e-05
4.1178e-05
0
0.000248055
6.88298e-05
2.23315e-05
0.000156672
0.000171085
1.84828e-05
0.0001303
6.74355e-05
0.000111578
0.000176556
0.00011446
0.000163923
0.00014501
0.000186141
7.4554e-05
0.00015859
6.48722e-05
0.000156625
0.00024393
1.49381e-05
0.000121101
0.000208048
0.000214079
0.000152704
0.000211572
0.00016184
0.00012357
0.000146854
0.000215709
0.000181116
0.000135622
4.39983e-05
9.37641e-05
8.24432e-05
9.68046e-05
4.84338e-05
0.000106086
0.000103736
3.73617e-05
3.94502e-05
6.06778e-05
3.69236e-05
3.9778e-05
1.42648e-05
2.56432e-05
0
0
0
0
0
0
8.88848e-05
3.40322e-05
0.000187878
9.87956e-05
0.000107112
0.000196161
0.000212973
0.000165992
0.000116662
0.000146746
0.000136064
0.000106367
0.000131795
3.11216e-05
4.52711e-05
7.22528e-05
3.39553e-05
1.86021e-05
4.02647e-05
6.11621e-05
5.04462e-05
6.60654e-06
5.26947e-05
7.09604e-05
4.72591e-05
5.56169e-05
3.76482e-05
3.1076e-05
1.28396e-05
1.94199e-05
3.95794e-05
2.91909e-05
2.26548e-05
2.81075e-05
2.23549e-05
3.80281e-05
3.44898e-05
6.16454e-05
7.96304e-06
2.86411e-05
2.31599e-05
1.11198e-05
1.27418e-05
1.84056e-05
5.32374e-05
1.29724e-05
3.34802e-05
7.63676e-06
1.85361e-05
1.9606e-05
1.93212e-05
4.59564e-05
5.74102e-06
4.29147e-06
2.49868e-05
2.69816e-05
3.21552e-05
0.000145095
0.000156628
0.000173878
9.87499e-05
0.000150787
2.01291e-05
7.4093e-05
8.07042e-05
0.000195397
0.000150738
9.39387e-05
0.000249908
9.78854e-05
0.000112344
8.89876e-05
1.11449e-05
3.93215e-05
7.6723e-05
1.86428e-05
7.52034e-05
1.28666e-05
4.16012e-05
3.48019e-05
2.29113e-05
3.78724e-05
3.21107e-05
3.08384e-05
3.05104e-05
7.34957e-05
5.12312e-05
4.23957e-05
2.82387e-05
1.71716e-05
5.96212e-05
3.68249e-05
3.83972e-05
2.60093e-05
4.84082e-05
5.3061e-05
7.69224e-05
3.37764e-05
5.54229e-05
2.81385e-05
3.609e-05
7.36516e-05
6.30957e-05
8.8564e-05
0.000170892
0.000144146
6.91555e-05
0.000130471
0.000142458
1.27703e-05
0.000194376
6.05975e-05
3.48337e-05
8.30518e-05
7.96773e-05
5.21136e-05
0.000129549
7.78145e-05
4.96209e-05
6.88426e-05
8.35949e-05
6.69606e-05
2.08253e-05
0
0
0
3.94676e-05
0
0
0
0
0
0
0.000128309
0.00015938
0.000141904
0.000163904
0.000191251
0.000197083
0.000225821
0.000157032
0.000152566
0.000217724
0.000173192
0.000145361
8.42405e-05
8.65879e-05
6.31507e-05
8.68481e-05
5.37676e-05
7.75698e-05
1.99591e-05
5.69239e-05
2.57652e-05
5.1436e-05
0
0
0
0
0
0
0
0
0.000222364
0.000164349
0.00018849
0.000167619
0.000149732
0.000192517
0.000131487
0.00015697
7.36744e-05
0.000106899
6.40357e-05
9.1909e-05
1.03473e-05
5.65265e-05
6.5918e-05
1.31857e-05
4.2209e-06
3.35193e-05
1.62049e-05
1.93637e-06
1.1617e-05
2.53468e-05
3.07138e-05
2.3593e-05
2.23055e-06
1.74473e-05
4.91773e-05
6.3667e-05
0.000153491
0.000101161
6.11605e-05
2.51292e-05
4.3958e-06
4.62003e-06
4.56863e-05
8.18712e-05
5.43413e-06
1.72748e-05
8.52176e-06
9.64972e-06
5.94443e-06
3.87155e-06
1.78952e-06
0
0
0
0
7.11062e-06
3.37618e-05
6.61074e-06
5.35415e-05
8.06712e-05
2.56875e-05
0.000125938
0.000184786
5.31303e-05
0.000189022
0.000172207
8.25762e-05
0.000109595
0.00024526
0.000235598
9.17302e-05
5.98782e-05
3.30191e-05
5.60288e-05
4.06847e-05
3.44924e-05
2.28895e-05
2.95034e-05
2.23074e-05
1.56755e-05
5.97447e-06
1.39271e-05
4.23494e-05
6.06224e-05
9.38522e-06
3.04249e-05
5.51188e-05
2.9509e-05
6.74634e-05
3.14699e-05
4.5719e-05
5.85256e-05
4.29249e-05
7.86372e-05
3.68573e-05
9.10223e-05
3.85365e-05
2.71793e-05
4.81439e-05
5.68978e-05
8.76579e-05
0.000103198
0.000164535
0.000100908
5.45319e-06
8.07335e-05
9.00496e-05
6.36044e-05
6.71789e-05
0.000146022
5.05371e-05
4.03576e-05
5.88705e-06
9.8128e-05
4.18315e-05
8.84405e-05
0.000127466
6.58268e-05
1.49859e-05
3.32947e-05
8.95132e-05
0.000128769
2.25426e-05
0.000109935
8.18504e-05
2.78231e-05
5.46555e-05
5.89732e-05
3.36501e-05
4.55895e-05
2.7468e-05
2.41155e-05
1.64959e-05
5.69845e-05
6.89641e-05
2.36494e-05
3.96928e-05
8.61016e-05
0
0
0
0
0
0
0
0
0
0
0
0
0
0
0
0
0.000178436
0.000141737
0.000111162
6.70567e-05
0.000131888
0.000212956
0.000128806
9.87269e-05
8.42847e-05
0.000109861
5.21888e-05
7.89332e-05
3.19729e-05
8.23888e-05
6.90544e-05
2.12106e-05
7.20917e-06
4.27061e-05
2.31234e-05
8.15685e-06
7.27958e-06
3.79431e-05
0
6.2461e-10
1.68338e-10
0
0
0
0
2.50376e-10
6.41336e-10
5.84238e-10
0
0
0
0
0
0
0
0
0
0
0
0
0
0
4.80199e-05
0
0.000222875
0.000199755
0.000146097
0.000163971
0.000136863
0.000146049
0.000182579
7.03541e-05
7.33627e-05
7.93595e-05
9.87351e-05
3.62642e-05
3.2202e-05
2.58918e-05
1.18492e-05
1.97234e-05
1.13721e-05
1.86488e-05
1.93406e-05
5.2451e-06
1.43512e-05
9.68288e-06
9.34612e-06
1.02408e-05
0
0
6.45575e-06
1.57397e-05
0
1.49756e-05
1.68564e-05
3.27796e-05
0
0
0
0
0
0
0
0
0
0
0
0.000124038
7.16115e-05
3.41663e-05
7.54242e-05
7.56885e-05
0.000154977
7.48604e-05
0.000131761
9.03774e-05
9.91138e-05
5.96577e-05
6.48384e-06
4.59485e-05
1.18138e-05
6.07034e-05
0.000136384
9.51846e-05
3.80352e-05
0.000133281
0.000193566
2.45527e-05
0.000241177
0.000230817
0.000156477
0.000143843
0.000296225
0.000108538
7.47614e-05
0.000103171
2.45201e-05
3.00019e-05
7.02338e-05
8.42689e-06
0
0
2.73772e-05
1.70029e-05
6.21075e-05
6.38789e-05
3.39352e-05
1.99104e-05
1.65901e-05
1.24013e-05
5.01802e-05
3.46338e-05
5.92748e-05
4.75491e-05
7.60546e-05
5.04972e-05
1.9746e-05
3.88908e-05
3.93551e-05
3.25396e-05
2.85383e-05
7.80688e-05
6.27898e-05
4.70926e-05
6.44363e-05
8.21038e-05
4.62108e-05
6.45907e-05
2.95806e-05
5.68979e-05
7.79473e-05
6.32441e-05
9.49729e-05
9.32526e-05
7.88916e-05
0.000221044
0.000116476
0.000116965
6.48469e-05
0.000128941
1.69894e-05
7.14968e-05
4.24201e-05
4.70936e-05
3.78733e-05
4.48308e-05
3.87357e-05
9.74773e-05
9.75984e-05
8.56882e-05
5.29825e-05
5.04358e-05
6.17238e-05
0
0
1.27446e-05
4.70741e-05
0.000102409
5.36841e-05
4.84387e-05
5.79923e-05
1.85078e-05
3.24245e-05
0
0
0
0
0
0
0
0
0
0
0
0
0
0
0
0
0
0
0
0
0
0
0
0
0
0
2.22025e-09
0
2.77209e-10
0
9.16976e-10
2.39905e-09
0
0
0
0
0
0
0
0
0
0
0
0
0
0
8.2102e-05
0.000134021
0.000138267
4.85258e-05
0.000113912
0.000102876
2.85953e-05
0.000105708
6.82733e-05
3.55481e-05
3.04396e-05
3.92534e-05
1.40273e-05
1.19665e-05
1.67266e-05
4.18517e-05
2.34102e-05
2.71352e-05
1.87551e-05
2.0384e-05
1.41125e-05
3.77777e-05
0
0
0
0
0
0
0
0
4.9339e-09
0
0
0
0
0
0
0
0
0
0
0
0
0
0
0
0
0
0
0
0
0
0
0
0
0
0.000124814
2.895e-05
2.76895e-05
0.000163051
0.00018207
2.19003e-05
0.000234426
6.56493e-05
0.0001393
0.000173904
0.000122632
0.000147007
0.000134481
0.000136517
8.38053e-10
0
0
0
0
0
0
0
0
0
0
0
0
0
0
0
0
3.18682e-05
7.87532e-06
1.0832e-05
4.59407e-06
1.43398e-05
3.26153e-06
1.33462e-05
2.00363e-05
0
0
0
0
0
0
0
0
0
1.46501e-05
0
0
0
0
0
0
0
0
0
0
0
0
0
0
8.63268e-05
3.82939e-05
0.000173357
4.99487e-05
0.000109974
0.000124393
0.000111935
0.000163271
0.000170426
0.000148733
7.33072e-05
0.000101225
0.000152885
4.45651e-05
0.000102614
4.12222e-05
7.1545e-05
8.40239e-05
0
3.01703e-05
8.61082e-05
0
7.69796e-05
0.000190744
4.06022e-06
0.000168129
0.000249111
7.87527e-05
0.000212084
0.000234318
0.000238387
0.000178697
0
5.89474e-05
5.57189e-05
1.46358e-05
7.79922e-07
4.35415e-06
0
0
0
9.15797e-06
1.12082e-05
1.22292e-05
8.08153e-06
1.00735e-05
3.54132e-05
3.85228e-05
5.35999e-05
5.42752e-05
2.21001e-05
3.9146e-05
3.66991e-05
4.05582e-05
3.81885e-05
2.46879e-05
1.83799e-05
2.6307e-05
6.81889e-05
5.27142e-05
9.47956e-05
7.78282e-05
8.22412e-05
0.000132559
4.49051e-05
6.2146e-05
4.58145e-05
6.22678e-05
0.000129461
6.57982e-05
0.000191707
0.000117041
0.000145984
0.000156891
6.65547e-05
0.000149958
0.000133916
8.59194e-05
4.96185e-05
6.7038e-05
0.000112109
0.000104118
0.000183406
0.000156837
0.000183398
0.00023112
0.000214655
0.000188778
0.000198162
0.000237364
0.000212528
0.000219893
0.000226019
0.000208308
0.000230661
0.000219009
0.000234198
0.000263215
0.00024945
0.000256494
0.000282185
0.000312999
0.000269969
0.000288026
0.000247261
0.000338548
0.000274678
0.000380294
0.000308806
0.000416976
0.000310432
0.000372512
0.000404522
0.000387776
0.000436893
0.000362892
0.00041396
0.000413401
0.00043919
0.000423283
0.000384368
3.20082e-05
3.86654e-05
6.35952e-05
3.66795e-05
5.95679e-05
0.000100615
6.21614e-05
6.32674e-06
2.99514e-05
0
0
0
0
0
0
0
5.7586e-05
8.40123e-07
0
0
0
0
0
0
0
0
0
0
0
0
0
0
0
0
3.91246e-09
0
0
0
0
0
0
0
0
2.92809e-09
0
0
0
0
0
0
0
0
0
0
0
0
0
0
0
0
0
0
0
0
0
0
0
0
1.09098e-09
3.23533e-09
0
9.92212e-10
0
0
0
0
0
0
0
0
0
0
0
0
0
0
0
0
0
0
0
0
0
0
0
0.000137858
2.19514e-05
6.24987e-05
0.000120393
7.74433e-05
0.000141518
4.69592e-05
4.2339e-05
2.63523e-05
4.29301e-05
3.09862e-05
3.54328e-05
1.08114e-05
1.49374e-05
3.48126e-05
1.94037e-05
4.73182e-05
4.45711e-05
2.68952e-05
1.35976e-05
1.60994e-05
2.7575e-05
0
0
4.78639e-09
1.99868e-09
0
0
0
0
2.67451e-09
0
0
0
0
0
0
0
0
0
0
0
0
0
3.72262e-09
3.09148e-09
0
0
0
0
2.43262e-05
0
6.993e-05
0.000106754
0.000167286
0.000100217
0.000262033
0.000163813
0.000267106
0.000218761
0.000227446
0.000219305
0.000167646
0.00019696
0.000151031
0.00011036
3.2788e-09
0
0
0
0
3.45516e-11
0
0
1.27685e-11
0
0
0
0
0
0
0
0
0
0
0
0
0
0
0
4.62416e-07
6.62756e-07
1.3913e-05
2.12271e-05
5.01281e-06
2.24483e-05
0
2.79101e-06
0
0
0
1.80892e-09
0
0
0
0
0
0
0
0
1.19371e-08
1.10703e-08
0
0
0
0
0
0
0
0
0
0
3.97178e-10
0
0.000229135
0.000171257
0.000127176
8.05782e-05
8.9782e-05
6.07597e-05
0.000160659
0.000152053
0.000234891
0.000232215
0.000257635
0.000202759
0.000220457
0.000246216
0.000342939
0.000287223
0.000344319
0.000369041
0.000403371
0.000421343
0.000485499
0.000408702
0.000450263
0.000449702
0.000420111
0.0004543
0.000417535
0.000405879
0.00043005
0.000466442
3.12558e-05
6.83478e-05
0.0001257
4.45497e-05
2.30077e-05
3.98317e-05
7.27735e-05
2.58695e-05
0
8.17468e-06
0
2.47843e-05
0
0.000115214
0.00019244
0.000234921
0.000399622
0.000211203
0.000186412
0
0
0
0
0
0
0
0
0
0
0
0
0
1.52888e-05
0
9.95428e-06
1.32371e-05
2.79713e-05
7.1883e-05
5.095e-05
8.86959e-05
3.13593e-05
5.63409e-05
7.25614e-05
2.36396e-05
5.24561e-05
3.35024e-05
3.77242e-05
8.35918e-05
0.000147825
6.04817e-05
5.82833e-05
8.45827e-05
0.000104579
0.000131337
3.89101e-05
0.000152983
7.65616e-05
8.64824e-05
0.000145967
0.000138613
4.26344e-05
0.000128351
9.47805e-05
0.000113955
4.78739e-05
0.000121285
0.000113103
5.25022e-05
8.17152e-05
0.000145929
0.000151265
0.000228589
0.000208361
0.000227033
0.0002736
0.000247343
0.000253233
0.000226825
0.000270468
0.000258084
0.000275602
0.00027555
0.000244894
0.000310629
0.000297915
0.000358384
0.000317989
0.000377409
0.000363589
0.000306227
0.000330643
0.000392131
0.000422623
0.000357617
0.000365289
0.000408127
0.000425109
0.000338508
0.000398011
0.000400397
0.000362745
0.000330734
0.00038266
0
0
3.97031e-06
4.83359e-05
0
3.64358e-05
9.35957e-05
5.36246e-05
9.4154e-05
0
0
0
0
9.11029e-07
0
0
0
0
0
4.9726e-09
3.69515e-09
0
0
0
0
0
0
0
0
1.408e-08
2.5144e-08
0
0
0
4.70505e-09
0
0
0
0
0
0
0
3.19175e-09
0
0
0
0
0
0
0
0
2.56148e-11
0
0
0
0
0
0
0
0
0
0
0
0
0
0
2.13391e-08
0
0
0
0
0
0
0
0
0
0
0
0
0
0
0
0
0
0
8.80246e-05
6.82328e-05
3.76126e-05
0.000110894
4.68839e-05
8.35932e-05
5.82881e-05
7.56396e-05
3.3923e-05
1.5025e-05
2.92122e-06
1.87332e-05
1.04375e-05
4.20717e-05
2.61482e-05
3.20201e-05
1.44245e-05
3.68961e-05
3.45495e-05
5.06666e-06
1.96547e-05
1.07844e-05
3.77805e-09
0
1.65419e-09
0
0
0
0
0
0
0
0
0
0
0
0
0
0
0
0
0
0
0
0
0
0
0
0
0
4.01685e-05
0
0.000111583
8.2699e-05
8.26878e-05
7.25033e-05
0.000164961
0.000196267
8.22444e-05
0.000170652
0.000183131
0.000140954
0.000146858
7.22799e-05
0.000107405
0.000102579
0
0
0
0
0
0
0
0
0
0
0
0
0
0
0
0
0
0
0
0
0
0
3.46914e-07
0
0
0
0
0
0
0
0
3.69794e-06
4.84371e-06
3.93882e-06
0
0
0
0
0
1.26719e-05
1.60249e-06
7.67686e-07
0
0
0
0
4.26795e-10
6.83943e-10
0
0
0
0
0
0
0
0
0
0
0
0
0
0
0
0
0
0
0.000392607
0.000395461
0.000344683
0.000357056
0.000217546
0.00035811
0.000233002
0.000238904
0.000243709
0.000147344
0.00024425
0.000236438
0.000217253
0.000225916
0.000392399
0.000345226
0.000362475
0.000413547
0.000418265
0.000347999
0.000382911
0.000434987
0.000453496
0.000427865
0.000338727
0.00043588
0.000327407
0.000448598
0.000420781
0.000458682
0.000428914
0.000419871
0.000427402
0.000374006
0.000376651
0.000249714
0.000129947
8.16797e-05
9.29256e-05
3.11802e-05
8.44108e-05
0.000185453
0.000158539
0.00026477
0.000224075
0.000197911
0.000221094
0.00029932
0.000271376
0.000410026
0.000380606
0.000457972
0.000412856
0.000496525
0.000456333
0.000501524
0.000478603
0.000495016
0.000495745
0.000471577
0.000409823
0.00049857
0.000426549
9.51073e-05
8.72323e-05
3.37985e-05
7.50819e-05
4.07268e-05
5.84232e-05
0.000128635
2.35363e-05
4.81261e-05
0
0
0.000310055
0.00042069
0.000370503
0.000433026
0.000452207
0.000425673
0.000430159
0.000381134
0.000380936
0.000289276
0.000256933
0.00026912
0.000223659
0.000219558
0.000319847
0.000258864
0.000261256
0.000381022
0
0
1.15419e-09
0.000149913
9.35247e-06
0.000257341
0.000108201
4.57377e-06
8.07395e-10
0
2.15072e-09
3.23292e-09
0
0
0
0
0
0
0
0
0
0
2.17387e-09
0
3.96528e-05
3.8468e-07
5.34791e-05
4.10087e-05
6.38633e-05
7.58957e-05
4.44477e-05
4.61867e-05
4.15375e-05
9.65745e-05
4.13294e-05
7.19481e-05
2.42192e-05
0.000120222
8.01111e-05
0.000144677
0.00010424
0.000127823
0.000137654
0.000111408
8.389e-05
0.000173718
0.0001445
9.97595e-05
0.00014781
0.000118315
3.78623e-05
5.71565e-05
6.83453e-05
7.88831e-05
0.00014787
9.42748e-05
0.000245223
0.000195365
0.000217051
0.00026853
0.000264536
0.000205305
0.000280397
0.000305804
0.000304691
0.000241228
0.000307044
0.000272461
0.000300498
0.000303174
0.000296866
0.000272869
0.000277636
0.000338385
0.000289603
0.000273823
0.000287275
0.000236993
0.000228885
0.00027895
0.000310387
0.000249485
0.00031184
0.000309375
0.000348718
0
0
4.3738e-07
0
0
0
0
0
0
0
0
0
0
0
3.3082e-09
0
0
0
0
7.63727e-09
0
0
0
0
0
0
0
0
8.03628e-10
9.11439e-10
2.52833e-08
0
2.55869e-10
0
0
0
0
0
0
0
0
0
2.98418e-09
0
0
0
0
0
0
0
0
2.74902e-07
0
0
0
0
0
0
0
0
0
0
0
0
3.41152e-10
0
0
0
0
2.28158e-08
0
0
0
0
0
0
0
0
0
0
0
0
0
0
0
0
0
0
0
2.38045e-09
0
0
0
0
2.70871e-09
0.000366842
0.000374365
0.000421248
0.000348309
0.000310441
0.000303336
9.0992e-05
9.21804e-05
0.000111101
8.36112e-05
5.84997e-05
9.94585e-05
1.37395e-05
3.54455e-05
9.2403e-06
2.11712e-05
1.92333e-05
1.21845e-05
1.07667e-05
3.99771e-05
3.51499e-06
2.93905e-05
3.53257e-05
2.37458e-05
2.28323e-05
0
0
0
0
0
0
0
0
0
0
0
0
0
0
0
0
0
0
0
0
0
0
0
0
0
0
0
3.24183e-05
3.20099e-05
1.71848e-05
1.94957e-05
6.55574e-05
0.000130808
3.95604e-05
0.000117174
3.2514e-05
0.000108679
4.10189e-05
4.87618e-05
8.36967e-05
8.9617e-05
6.84846e-05
4.80213e-05
0
2.82203e-10
0
0
0
0
0
0
0
0
0
0
0
0
0
0
0
0
0
0
0
0
0
0
0
0
0
0
0
0
0
0
0
0
0
0
0
1.09823e-05
1.79852e-06
1.24339e-05
1.6839e-06
3.59682e-06
0
0
0
0
0
0
5.31293e-06
5.74339e-07
0
0
0
0
0
0
0
0
0
0
0
0
0
0
0
0
0
0
0
0
0
0
0
0
0.000472086
0.000408325
0.000402604
0.000352208
0.000318453
0.000101718
0.000249007
0.000175242
0.000340653
0.000365604
0.000318594
0.000374428
0.000375962
0.000305309
0.000382061
0.000353577
0.0004131
0.000455599
0.000410537
0.00041287
0.000396336
0.000417471
0.000289566
0.000186168
7.16824e-05
7.86553e-05
9.93039e-05
4.19204e-05
0.000159474
0.000211712
0.000320253
0.000260504
0.000292811
0.000288196
0.000232479
0.000332264
0.000304449
0.000238782
0.000288543
0.000423837
0.000390552
0.000450599
0.000441138
0.000494932
0.000465483
0.000535056
0.000502264
0.000537146
0.000429319
0.000401497
0.000436246
0.000440112
0.000414172
9.9241e-05
4.43106e-05
4.06191e-05
0.000204271
6.85728e-05
6.32347e-05
5.70482e-05
8.28062e-05
2.13535e-05
4.52294e-05
0
1.76116e-05
0.000332992
0.000282565
0.000376375
0.000381302
0.000428825
0.000376249
0.000362266
0.000313569
0.000325153
0.000251898
0.000229103
0.000217337
0.000202426
0.000291988
0.000240974
0.000287621
0.000324872
0.000257451
0.000301071
0.000294153
0.000225768
0.000233948
0.000217892
0.000270541
0.000167706
1.73348e-09
4.20971e-09
2.3694e-09
0
0
0
0
0
0
0
0
0
0
0
0
0
0
0
0
0
2.95424e-09
0
0
0
4.30303e-05
3.43401e-05
4.43799e-05
0.000100236
3.12359e-05
1.656e-05
9.94126e-05
4.75186e-05
5.62647e-05
4.50526e-05
8.08223e-05
5.41823e-05
9.20791e-05
9.96491e-05
0.000160322
0.000121977
0.000158104
0.000174221
0.000168655
0.000147815
0.000126305
9.18503e-05
0.000162594
0.000107509
0.000145584
0.000138966
0.000124974
0.000216186
0.000181381
0.000199093
0.000296372
0.000249133
0.000316949
0.000272953
0.000315317
0.000368323
0.000234166
0.000373403
0.000274485
0.000360225
0.000345795
0.000380357
0.000358092
0.000331777
0.000362614
0.000330723
0.000303497
0.000256117
0.000295443
0.000163496
0.000212277
0.000122497
0.000210957
0.000234964
0.000160786
0.000244385
0.00024231
0.000322174
0
0
0
0
0
0
0
0
0
0
0
0
0
0
0
0
0
0
0
0
0
0
0
0
0
3.5172e-11
0
0
2.11223e-09
5.56634e-10
0
0
0
0
0
0
0
0
0
0
0
0
2.96503e-07
0
0
0
0
0
0
0
0
1.10701e-07
0
0
0
0
1.30632e-09
0
0
0
0
0
0
0
1.2636e-09
2.36949e-09
0
0
2.7234e-08
2.6725e-08
0
0
0
0
3.20566e-09
0
4.37177e-09
0
0
0
0
0
0
0
0
0
0
0
0
0
0
0
0
0
1.46815e-09
0
0
0
0
0
0
0
0
0.000249921
0.000262188
0.000181982
0.000273883
0.000340598
0.000160116
0.000164686
0.000203679
9.83471e-05
0.000280294
4.30316e-05
4.86267e-05
6.11012e-05
3.99984e-05
1.79918e-05
6.50309e-05
1.10066e-05
2.614e-05
2.51687e-05
1.40788e-05
2.55475e-05
4.05019e-05
2.66995e-05
6.05509e-06
2.02156e-05
1.07314e-05
2.54165e-05
0
0
0
0
0
0
0
3.52556e-10
2.43139e-05
0
0
0
0
0
0
0
0
0
0
2.0368e-11
0
0
0
0
0
3.89718e-05
2.70189e-05
5.73123e-05
3.93422e-05
6.92385e-05
4.53653e-05
8.16723e-05
0.000100441
3.14367e-05
6.13266e-05
8.4807e-05
3.74601e-05
6.34476e-05
8.47763e-05
8.75647e-05
7.52475e-05
0
0
2.65919e-10
0
0
0
0
4.46768e-11
0
0
0
0
0
0
0
2.34873e-09
0
9.64886e-10
1.72831e-09
0
0
0
0
0
0
0
0
0
0
0
2.51381e-09
0
0
0
0
0
0
0
0
0
0
0
0
0
8.55093e-10
1.86908e-05
2.2449e-05
2.00827e-05
0
0
0
0
0
0
8.68427e-10
0
0
2.25715e-10
0
0
0
0
0
0
0
6.92127e-10
0
0
0
0
0
0
0
8.26117e-10
0
9.87555e-10
0
0
0
0
0
0
0
1.09392e-09
0.000406531
0.000375064
0.000350901
0.000379655
0.000394239
0.000399202
0.000548835
0.000108361
0.000552477
7.82713e-05
0.000109627
8.75651e-05
0.000135498
0.000168968
0.000384187
0.000387514
0.00036222
0.000335362
0.00027356
0.000274065
0.000336255
0.000381225
0.000430416
0.000432615
0.000460047
0.000426514
0.000427664
0.000385552
0.000289492
0.000225151
0.00011492
0.000116818
5.89851e-05
0.000132086
0.000176371
0.000187941
0.000292236
0.000260502
0.000320117
0.000350374
0.0003194
0.000331614
0.000301297
0.000336229
0.000340744
0.000386643
0.000370199
0.000391139
0.000376604
0.000398208
0.000440331
0.000402495
0.00040477
0.000517002
0.000426802
0.000392778
0.000480889
0.000425514
3.72723e-05
5.80931e-05
9.90725e-05
0.000178257
0.000110541
6.21906e-05
7.432e-05
5.90755e-05
3.70232e-05
4.24886e-05
3.61299e-05
0
0.000224214
0.000337384
0.000261217
0.000306729
0.000366413
0.000278188
0.000193914
0.000139332
0.000154122
0.000209513
0.000181301
0.000236398
0.00020731
0.000244443
0.000293285
0.000342857
0.000327936
0.000205113
0.000285686
0.000195132
0.000199141
0.00018384
0.000171852
0.000260795
0.000304692
0
0
0
0
0
0
0
0
0
0
0
0
0
0
0
0
2.96614e-09
0
0
0
0
0
0
0
2.18492e-05
7.75778e-05
3.18291e-05
0
5.83502e-05
5.26844e-05
0.000125123
6.50076e-05
0.000126315
6.9015e-05
0.000136599
0.000107853
0.000158794
0.000178632
0.000222555
0.000182203
0.000169828
0.000199176
0.000164084
0.000177596
0.000158079
0.000179493
0.000186449
0.00017071
0.000258505
0.000213517
0.000304715
0.000277215
0.000311804
0.000320534
0.000290383
0.000346666
0.00042005
0.00036999
0.000426109
0.000375052
0.000409702
0.000429896
0.000399372
0.000445127
0.000381896
0.000450334
0.000377142
0.000399947
0.000315154
0.000289981
0.000168838
0.000224871
0.000115888
0.000195641
2.23823e-05
0.00020449
0.000260151
0.000182041
0.000227237
0
0
1.0357e-06
4.15395e-11
0
0
0
0
0
0
0
2.13531e-09
3.13284e-09
1.52184e-09
5.68697e-09
4.77446e-10
1.40849e-09
0
1.14537e-09
3.72006e-06
0
0
0
1.56759e-09
0
1.52382e-09
1.11571e-09
0
0
0
0
0
0
0
0
1.77324e-13
0
0
0
0
0
0
2.00702e-07
0
0
0
0
0
0
0
0
0
0
0
0
0
0
0
0
0
0
0
0
0
0
0
0
0
0
0
0
0
0
0
0
0
0
0
0
0
0
0
0
0
0
0
0
0
0
0
0
0
0
0
0
0
0
0
0
0
0
0
0
0
0
0
0
0
0
0
0
0
3.07695e-11
0
0
0
0
9.34205e-05
0.000208254
0.000104342
7.85656e-05
0.000143943
0.000103961
0.000266117
0.000188855
0.000216401
0.000398787
0.000260074
0.000227146
0.000295894
7.8389e-05
0.000378583
7.70329e-05
5.84206e-05
0.000112697
1.73264e-05
2.6006e-05
4.86648e-05
4.05963e-05
3.60449e-05
2.95557e-05
1.90491e-05
3.28927e-05
1.24204e-05
4.48763e-06
6.31013e-06
0
0
0
0
0
3.33803e-05
0
0
0
7.77639e-09
0
0
0
0
0
0
0
2.90464e-09
1.11287e-09
0
1.32266e-09
0
0
0
3.84935e-05
3.26629e-05
5.35452e-05
9.81745e-05
3.60748e-05
7.36709e-05
9.02057e-05
3.34178e-05
7.65841e-05
7.22815e-05
7.56127e-05
6.15712e-05
0.000120564
3.55326e-05
7.59559e-05
3.70589e-05
0
8.66011e-10
0
0
0
0
0
3.04195e-11
0
0
3.44828e-11
0
0
0
2.05548e-10
0
0
0
0
0
0
0
0
0
0
0
0
0
0
0
0
0
0
0
0
0
1.29636e-09
0
1.38649e-09
0
0
0
0
0
0
0
0
0
0
0
0
0
0
0
0
0
0
1.94838e-05
0
0
0
0
0
0
0
0
0
0
0
0
0
0
0
0
0
0
0
0
0
0
0
0
0
0
0
0
0
0
0
0
6.5547e-10
2.07545e-09
0
0
0
0
0
0
0.00031618
0.000327241
0.000485842
0.000159959
0.000569396
7.85087e-05
0.000248112
0.000287171
0.000290161
0.000456844
0.000256963
0.000163821
9.98443e-05
0.000366272
0.000424952
0.000319294
0.000333809
0.000319038
0.000242667
0.000259837
0.00026998
0.000397463
0.000420236
0.000417913
0.000438041
0.00035593
0.000401411
0.000238499
0.000262877
7.03279e-05
0.000107847
0.000139186
0.000144906
0.000141402
0.000178519
0.000422982
0.000332182
0.000436118
0.000329876
0.0003477
0.000334852
0.000422858
0.000333272
0.000297754
0.000309408
0.00023334
0.000285836
0.000251579
0.000227448
0.00026217
0.000447266
0.000414783
0.000314339
0.000388301
0.000399219
0.000423617
0.000228576
3.7123e-05
0.000105496
8.24293e-05
0.000178415
2.72983e-05
0.000154739
9.81342e-05
7.8115e-05
2.63632e-05
2.92684e-05
3.91227e-05
4.31133e-06
0
0
0
0.00031776
0.000210785
0.00019372
0.000218543
0.000153796
9.29302e-05
0.00010473
9.72664e-05
0.000109787
0.000149803
0.000206098
0.000205194
0.000269565
0.000275283
0.00032258
0.000394949
0.00027753
0.000213593
0.0002971
0.000169429
0.000165517
5.0887e-05
0.000229403
0.00019785
0.000284839
0.000281417
0
0
0
0
0
1.49587e-09
2.59995e-09
0
0
0
0
3.76604e-09
1.31282e-09
0
0
0
0
0
0
0
0
0
0
0
0
1.1036e-05
3.42987e-05
0
4.30349e-05
5.95464e-05
9.00834e-05
6.97236e-05
0.000103175
8.66523e-05
0.000159328
0.000148574
0.00018059
0.00020104
0.000225763
0.000285148
0.000282537
0.00027068
0.000151176
0.00015968
0.000243584
0.000303101
0.000313871
0.000233903
0.000319178
0.000324608
0.000404849
0.000348746
0.000438184
0.000329006
0.000488424
0.000396182
0.000428967
0.000494972
0.000411866
0.000497017
0.000405982
0.000490285
0.000406906
0.000496933
0.0004585
0.000425739
0.000358657
0.00035465
0.000191481
0.000230188
0.000154616
0.000177557
0.000119079
0.000175478
0.000189456
0.00013158
0.000194
0.000153937
0
0
0
0
0
0
0
0
0
2.63734e-09
0
0
0
9.66297e-09
2.29551e-09
4.73076e-09
1.54868e-09
1.32825e-09
3.39163e-09
0
0
0
0
0
0
0
0
0
0
0
0
0
0
0
0
4.25755e-11
0
0
0
5.51277e-07
0
0
0
0
0
0
0
0
0
0
0
0
0
0
0
0
0
0
2.37293e-07
0
0
0
0
0
7.90917e-10
6.08637e-10
1.42629e-09
0
0
0
0
0
0
0
0
0
0
0
0
0
0
0
0
0
0
0
0
0
0
0
0
0
0
0
0
0
0
0
0
0
0
0
0
0
0
0
0
0
2.67862e-09
0
7.28061e-10
0
0
5.84921e-10
0
0
9.55699e-05
0.000180084
0.000259121
3.82386e-05
2.2349e-05
0.000205346
0.000180434
0.000430623
0.000203183
0.000167872
0.000576761
0.000685866
0.000242067
0.000390787
0.000248315
0.000197029
4.20644e-05
0.000103613
0.000181486
5.2152e-05
1.53128e-05
2.77233e-05
3.41171e-05
4.23449e-05
4.86242e-05
4.99904e-05
2.12217e-05
3.33652e-05
3.91013e-06
1.1427e-05
9.97183e-07
1.59231e-05
1.72514e-05
0
0
0
3.99978e-05
0
0
0
0
0
0
0
0
0
0
0
0
0
0
0
0
3.434e-09
0
0
0
8.02677e-05
4.13687e-05
6.79918e-05
4.42299e-05
6.01886e-05
7.05634e-05
3.48652e-05
5.73593e-05
6.01392e-05
0.000102646
1.38111e-05
9.03081e-05
9.28033e-06
0
0
0
0
0
0
1.30003e-08
4.87409e-08
0
0
0
0
0
0
0
0
0
1.31586e-06
0
0
0
0
0
0
0
1.4521e-09
0
0
7.17099e-09
0
0
0
0
0
0
0
0
0
0
0
0
0
0
0
0
0
0
0
0
0
0
2.18315e-09
0
0
0
0
0
0
0
0
0
0
0
0
0
0
2.40932e-09
1.98723e-09
0
0
0
1.27663e-09
0
0
0
0
0
0
0
0
0
0
0
0
0
0
0
0
0
0
0
0
0
0
0
0
0
1.34919e-09
0
0
0
0
0
0
0
0
0.000734454
0.000347804
0.000324879
0.000165852
0.00120029
0.000446143
0.000234913
4.26752e-05
9.11494e-05
0.000165286
0.000237403
0.000172935
8.82698e-05
2.96611e-05
0.000398623
0.000341585
0.00027253
0.000308028
0.000244079
0.000322158
0.000520682
0.000338035
0.000298932
0.000363782
0.000311596
0.00018834
0.000266596
0.000334306
0.00026346
0.000228956
0.000173064
0.000106527
0.000206609
0.000148964
0.000121293
0.000214684
0.000341053
0.000462352
0.000309102
0.000294002
0.000317552
0.000297506
0.000258466
0.000338349
0.000191698
0.000174603
0.000114232
0.000252293
0.000122148
0.000227716
0.000435187
0.000489767
0.000387863
0.000504567
0.00026202
0.00029732
0.000154298
0.000256464
0.000134936
3.34808e-05
9.49976e-05
0.000125094
0.000137153
0.00010214
5.19517e-05
0.000105789
1.12286e-05
6.42651e-05
2.3387e-05
5.06556e-05
0
5.3677e-05
0.000201388
0.000157319
0.000170912
0.000148652
0.000241608
0.000144808
0.000176944
0.000185657
0.000269546
0.000321172
0.00027223
0.000308642
0.000271138
0.000204237
0.000285884
0.000208639
0.000140887
0.000255092
0.000219502
0.000203831
0.000202794
0.000270337
0.000219836
0.000197329
0.000188079
0
0
0
0
0
0
0
0
0
4.14514e-09
0
0
0
0
0
3.46398e-11
3.08978e-11
0
0
0
0
0
0
0
0
1.05669e-05
1.28927e-05
1.35252e-05
0.000103333
6.2364e-05
5.36181e-05
4.01111e-05
0.000145348
0.000178909
0.000290124
0.000214325
0.000296713
0.000226439
0.000406979
0.000296584
0.00040735
0.000374963
0.000247919
0.000234413
0.000296195
0.000365267
0.000418325
0.000283365
0.000358479
0.000451314
0.000379355
0.000522231
0.000359156
0.000523963
0.000406544
0.000600604
0.000552272
0.000443667
0.000549644
0.000450712
0.000500392
0.000447369
0.000448909
0.000479514
0.000405131
0.000372494
0.000218901
0.000220633
0.000168248
0.000116921
0.000152991
9.77135e-05
8.19427e-05
0.00011068
2.46696e-05
8.91643e-05
0.000152704
4.5246e-05
0
0
0
0
0
0
0
0
0
1.03765e-10
0
0
0
0
0
0
0
2.70203e-09
0
0
1.63463e-09
1.95638e-09
0
0
7.40447e-10
0
0
0
0
0
6.45773e-10
0
0
0
0
0
0
0
0
0
0
0
0
0
0
0
1.40352e-09
1.36534e-09
1.4092e-09
0
0
0
0
1.01514e-09
0
0
1.20359e-09
0
0
0
0
2.58445e-09
0
6.92849e-10
0
0
0
0
0
0
0
0
0
0
0
0
0
0
0
0
0
0
0
0
0
0
0
0
0
0
0
0
0
0
0
0
0
0
0
0
0
0
0
0
0
0
0
0
0
0
0
0
0
0
0
0
0
8.09271e-10
0
0
0
3.38043e-09
0
0
0.000203891
0.000199107
0.000101326
2.1876e-05
0.00016883
0.000200669
0.000235903
0.000238151
0.000149287
0.000398063
5.6724e-05
0.000381156
0.000310966
0.000122719
6.45448e-05
0.000153152
0.000284884
0.000222317
8.46531e-05
0.000178635
9.80718e-05
0.000123231
0.000146118
0.000133847
6.14037e-05
4.97374e-05
2.71824e-05
8.21209e-06
1.17773e-05
3.42967e-05
2.7069e-05
5.93472e-05
4.19272e-05
2.09847e-05
1.05724e-05
1.70318e-05
1.02554e-05
0
0
2.13135e-05
4.62206e-05
0
0
3.57017e-09
0
0
0
0
0
0
0
2.25522e-09
0
0
0
0
1.83087e-09
0
0
0
0
5.22033e-05
3.6886e-05
1.53174e-05
6.30056e-05
5.46014e-05
4.29814e-05
0.000104423
3.19826e-05
2.64825e-05
0.000117148
4.47816e-05
1.44359e-10
0
0
1.31522e-10
0
0
6.17763e-08
4.87819e-08
0
0
0
0
0
0
0
0
2.41e-07
5.45618e-07
0
0
2.19572e-08
0
2.08042e-09
0
0
0
0
4.23037e-07
0
1.6371e-09
3.87404e-07
0
0
0
0
0
0
0
0
0
0
0
0
0
0
0
0
0
0
5.36348e-09
0
0
0
0
0
0
0
0
0
0
0
0
0
0
0
0
0
0
0
0
0
0
0
0
0
0
4.72722e-09
3.77787e-09
0
0
0
0
0
0
0
0
9.73991e-10
0
0
0
0
0
0
6.6291e-10
0
0
0
0
0
0
0
0
0
0
0
0
0
0
0
0
0
0
0
0
0
0
0
0
0.000165488
0.000367714
0.000439515
0.000206304
0.000286597
6.86262e-05
3.8677e-05
0.000133883
0.000122672
0.000130481
0.000129616
0.000160865
0.000209058
0.000138858
0.000174572
0.000285414
0.000327997
0.00033616
0.00024934
0.000333386
0.000256467
0.000308643
0.000276658
0.000338373
0.00021132
0.000276887
0.00013083
0.000181997
0.000219239
0.000187405
0.000315563
0.000246157
0.000183505
0.00025856
0.00018238
0.000302558
0.000172334
0.00023178
0.00021959
0.000257395
0.000219677
0.00018953
0.000161388
0.000134295
8.73925e-05
0.000108541
3.65882e-05
0.000257166
0.000193998
0.000362994
0.000436813
0.000457724
0.000444219
0.000131434
0.000193932
8.17766e-05
2.99798e-05
0.000196576
9.89797e-05
5.3283e-05
0.00014107
4.12654e-05
9.16778e-05
0.000116404
0.000196091
5.54829e-05
9.63887e-05
7.14957e-05
2.4573e-05
2.85048e-05
9.0381e-05
7.04162e-05
0.000195544
5.61178e-05
0.000186772
0.000154847
0.000230799
0.000235332
0.000317276
0.000237495
0.000304847
0.000259698
0.000265703
0.000273238
0.000262549
0.000186546
0.000139369
0.000174014
0.000231841
0.000205691
0.000211261
0.0002302
0.000290044
0.0002583
0.000205324
0.000104821
5.02985e-09
1.07359e-09
5.16081e-09
0
0
0
0
0
0
0
0
0
0
0
0
0
0
0
0
0
0
0
0
0
8.38735e-06
3.00925e-05
1.68974e-05
3.43152e-05
0.000136042
0.000100841
5.50191e-05
3.27604e-05
0.000256244
0.000191857
0.000269937
0.00028784
0.000406459
0.000372707