/*--------------------------------*- C++ -*----------------------------------*\
  =========                 |
  \\      /  F ield         | OpenFOAM: The Open Source CFD Toolbox
   \\    /   O peration     | Website:  https://openfoam.org
    \\  /    A nd           | Version:  8
     \\/     M anipulation  |
\*---------------------------------------------------------------------------*/
FoamFile
{
    version     2.0;
    format      ascii;
    class       volScalarField;
    location    "21780";
    object      Hclip;
}
// * * * * * * * * * * * * * * * * * * * * * * * * * * * * * * * * * * * * * //

dimensions      [0 1 0 0 0 0 0];

internalField   nonuniform List<scalar> 
526318
(
1.76602
1.73197
1.80616
1.7287
1.80936
1.72466
1.77862
1.66876
1.74709
1.61615
1.59609
1.7418
1.66612
1.7169
1.67597
1.70248
1.66216
1.86537
1.77808
1.82638
1.8194
1.77606
1.52015
1.76483
1.65769
1.53082
1.79155
1.79625
1.78814
1.81283
1.81935
1.89533
1.87005
1.74713
1.73576
1.69762
1.69826
1.7797
1.73124
1.71537
1.7515
1.70845
1.37658
1.43366
1.34102
1.38582
1.36384
1.49478
1.6438
1.57726
1.64857
1.65433
1.60008
1.57752
1.05926
1.31052
1.29981
1.1059
1.81717
1.84681
1.86201
1.81968
1.74801
1.8864
1.87448
1.82896
1.80641
1.82263
1.71772
1.71987
1.8283
1.61703
1.66905
1.55562
1.50951
1.50361
1.59915
1.59119
1.5074
1.5604
1.62924
1.62668
1.58282
1.54454
1.56333
1.64077
1.63934
1.61534
1.56343
1.62883
1.54305
1.48916
1.48811
1.42031
1.41422
1.41574
1.41376
1.41649
1.41299
1.40792
0.850453
0.788706
0.874401
0.910658
0.975479
0.758084
1.32182
1.13008
1.45573
1.40774
1.45286
1.57656
1.78099
1.68353
1.80214
1.80467
1.86566
1.83796
1.89325
1.41021
1.40696
1.41383
1.40761
1.3707
1.4129
1.31921
1.36752
1.27738
1.32117
1.27395
1.27202
1.26448
1.23908
1.23001
1.25623
1.19677
1.25222
1.20378
1.22063
1.16313
1.17178
1.18962
1.22
1.20682
1.16258
1.16179
1.17721
1.1734
1.16233
1.1689
1.18487
1.1765
1.1634
1.17093
1.17199
1.15187
1.18703
1.18313
1.13528
1.10089
1.17117
1.12137
1.16446
1.67816
1.78786
1.71381
1.6973
1.51322
1.56527
1.50146
1.51041
1.49882
1.5056
1.52361
1.5038
1.43915
1.40371
1.37574
1.31342
1.37579
1.41939
1.41547
1.41772
1.30564
1.35766
1.24086
1.25488
1.2606
1.25524
1.25347
1.25795
1.24365
1.24893
1.24374
1.23016
1.21178
1.23672
1.23176
1.20223
1.17777
1.21054
1.188
1.19447
1.20597
1.19576
1.20241
1.16274
1.17885
1.20827
1.20875
1.65448
1.69361
1.69972
1.65822
1.67021
1.65346
1.65951
1.54051
1.55731
1.31927
1.30682
1.30087
1.41552
1.57985
1.42915
1.47141
1.45984
1.42373
1.39397
0.899272
0.704749
1.04839
1.24211
0.500925
0.345147
0.634477
0.741309
0.707393
0.706675
1.86166
1.86236
1.90367
1.88635
1.86641
1.85119
1.76332
1.84632
1.69643
1.63177
1.64092
1.63844
1.63453
1.63571
1.62704
1.62823
1.53962
1.60004
1.42865
1.47955
1.40586
1.42392
0.225329
0.148387
0.610768
0.387483
0.887964
0.826789
0.88277
1.04298
1.42553
1.22736
1.45988
1.46475
1.58094
1.69222
1.81558
1.80748
1.86112
1.82159
1.88842
1.92387
1.39592
1.38617
1.3502
1.3232
1.2218
1.25536
1.18237
1.19175
1.18257
1.17359
1.16313
1.16999
1.09527
1.11431
1.15414
1.19312
1.24662
1.21366
1.17716
1.17391
1.1066
1.09824
1.15051
1.20232
1.12799
1.16526
1.15922
1.13832
1.12798
1.09177
1.09833
1.05479
1.0539
1.05995
1.0461
1.17313
1.21129
1.17491
1.21468
1.56552
1.52239
1.43288
1.52724
1.43451
1.49092
1.49984
1.48872
1.50291
1.50342
1.41215
1.32802
1.2575
1.23823
1.31683
1.25726
1.24522
1.35433
1.24606
1.29804
1.23495
1.23592
1.24368
1.23197
1.24737
1.24517
1.24287
1.24284
1.24205
1.24285
1.2514
1.24642
1.25761
1.2548
1.25725
1.23663
1.25508
1.2332
1.21366
1.20737
1.23207
1.26703
1.25868
1.23534
1.21825
1.24377
1.28238
1.28302
1.29543
1.25645
1.28945
1.30439
1.34539
1.29755
1.3026
1.32708
1.3597
1.46798
1.55858
1.48366
1.54202
1.58475
1.65261
1.56742
1.4256
1.55217
1.44033
1.45898
1.19462
1.1369
1.16997
1.15422
1.27154
1.38398
1.32546
1.39882
1.39743
1.40694
1.39343
0.673547
0.808643
0.965242
0.809821
1.04968
0.935994
0.0732206
0.227578
0.163642
0.0796008
0.001
0.233261
0.457915
0.698191
0.584676
0.607452
1.89891
1.89725
1.93183
1.91738
1.90116
1.881
1.78555
1.69618
1.64438
1.64959
1.62818
1.6219
1.60831
1.60167
1.58201
1.58564
1.53645
1.57868
1.49914
1.45059
1.38991
1.35072
0.001
0.00107045
0.00107045
0.001
0.001
0.001
0.001
0.00107045
0.00107045
0.00107045
0.0556263
0.001
0.001
0.001
0.0233712
0.001
0.119901
0.223161
0.232977
0.392367
0.85429
0.641584
0.951457
0.93146
1.12934
0.965882
1.32858
1.50117
1.50288
1.60975
1.81027
1.70844
1.83121
1.84217
1.85089
1.85815
1.90943
1.93784
1.3068
1.31082
1.26515
1.28605
1.22547
1.19264
1.18195
1.18141
1.17413
1.18188
1.13333
1.12885
1.07563
1.08586
1.1456
1.1135
1.08887
1.13715
1.13006
1.15247
1.05579
1.04444
1.06488
1.08406
1.08264
1.04067
1.04792
1.04068
1.0463
1.02735
1.02591
1.32785
1.3038
1.30324
1.30128
1.32448
1.43027
1.38568
1.36581
1.25248
1.29415
1.28127
1.28175
1.1849
1.12196
1.30144
1.41199
1.3025
1.30379
1.2913
1.36919
1.34635
1.42425
1.45335
1.37805
1.35383
1.39344
1.26959
1.23838
1.24085
1.24076
1.15784
1.21278
1.13716
1.08915
1.06956
1.18763
1.18403
1.23585
1.23384
1.24033
1.23579
1.23034
1.23932
1.23892
1.24652
1.24011
1.25858
1.25137
1.25888
1.25907
1.28335
1.27054
1.29422
1.29996
1.2492
1.22987
1.29931
1.27706
1.26475
1.28359
1.26559
1.25548
1.30558
1.28037
1.38627
1.39344
1.34408
1.38712
1.39624
1.36182
1.45409
1.42483
1.49221
1.51502
1.53698
1.4577
1.45224
1.46014
1.39576
1.39495
1.34943
1.45145
1.30799
1.27473
1.33439
1.35721
1.03546
1.08771
1.16676
1.29316
1.32007
1.35596
1.26212
1.22485
1.18764
1.13304
0.493792
0.581167
0.856919
0.653612
0.965709
1.03855
0.00743644
0.001
0.00100411
0.001
0.137303
0.001
0.519434
0.280125
0.440722
0.436831
0.001
0.001
0.001
0.001
0.001
0.00101
0.001
0.001
0.001
0.001
0.00112713
0.001
0.00109824
0.001
0.00112701
0.00112701
0.001
0.001
0.001
0.001
0.001
0.001
0.001
0.001
0.00100959
0.001
0.00100965
0.001
0.001
0.001
1.88843
1.90121
1.9165
1.91752
1.88921
1.8218
1.64007
1.72331
1.60542
1.59836
1.58545
1.5863
1.58392
1.57755
1.57166
1.57368
1.51228
1.49211
1.39144
1.43232
1.2904
1.32607
0.001
0.001
0.001
0.001
0.001
0.001
0.001
0.001
0.00101
0.001
0.001
0.001
0.001
0.001
0.001
0.001
0.001
0.00100737
0.001
0.001
0.001
0.001
0.001
0.001
0.00610836
0.152487
0.32125
0.295129
0.355767
0.54092
0.995516
0.795844
1.01091
1.01527
1.31472
1.13551
1.52332
1.46872
1.54267
1.64498
1.74885
1.82449
1.83372
1.83245
1.87828
1.89805
1.89731
1.87861
0.00112285
0.001
0.001
0.001
0.001
0.001
0.001
0.001
0.001
0.001
0.001
0.001
0.001
0.001
0.001
0.00101
0.001
1.28656
1.28908
1.28637
1.25429
1.17455
1.20763
1.13363
1.12522
1.09135
1.08488
1.04167
1.04168
1.06498
1.06449
1.02463
1.05867
1.05548
1.10537
1.08925
1.08891
1.00411
0.977194
0.977067
1.01685
1.03312
1.0326
1.00837
1.01231
0.970865
0.961073
0.923568
0.926614
1.52344
1.49446
1.53238
1.54474
1.49175
1.45055
1.61926
1.6373
1.70352
1.71431
1.26201
1.29978
1.35341
1.43456
1.25947
1.20747
1.23858
1.24245
1.08155
1.13403
1.18628
1.0703
1.28106
1.27699
1.28294
1.29042
1.30441
1.28473
1.2991
1.3118
1.19192
1.18478
1.08479
1.16977
1.16223
1.12382
1.07338
1.09582
1.03535
1.05431
1.03526
1.1213
1.18139
1.12065
1.17962
1.23494
1.23275
1.24303
1.2354
1.23866
1.25846
1.2554
1.27087
1.26513
1.28565
1.27991
1.30301
1.29982
1.30379
1.30051
1.31157
1.304
1.34372
1.31824
1.28075
1.28384
1.34906
1.31618
1.32094
1.36375
1.40512
1.40411
1.40402
1.40379
1.43743
1.48806
1.55053
1.57073
1.57859
1.55851
1.70163
1.6359
1.7668
1.80458
1.79796
1.83826
1.89321
1.75731
1.84317
1.86661
1.94157
1.9919
2.01751
2.03922
2.06862
2.01228
2.06895
2.02591
2.10524
2.10656
2.1549
2.12232
2.18311
2.21389
2.20383
2.1514
2.21618
2.23967
2.20593
2.20245
2.26705
2.24403
2.27559
2.2156
2.21583
2.27932
2.24703
2.20059
2.20057
2.23166
2.26413
1.25406
1.22242
1.38967
1.38757
1.36086
1.36485
1.35598
1.12331
1.25962
0.958423
0.982486
1.08255
1.07402
0.942205
1.03248
1.01425
1.19128
1.09304
1.09257
1.00046
0.99795
1.01121
1.02437
0.561265
0.418916
0.829466
0.608926
0.827524
0.770643
0.001
0.001
0.001
0.001
0.001
0.001
0.15581
0.397008
0.285185
0.332111
0.001
0.001
0.001
0.001
0.0014205
0.001
0.001
0.001
0.001
0.001
0.001
0.001
0.001
0.001
0.00100829
0.001
0.001
0.001
0.0010095
0.001
0.001
0.00101934
0.001
0.00101485
0.001
0.001
0.00101
0.001
0.0010929
0.001
0.00109288
0.00109283
0.001
0.00109241
0.00109225
0.0010925
0.001
0.001
0.001
0.001
0.001
0.001
0.001
0.001
0.0010078
0.001
0.001
0.001
0.001
0.001
0.001
0.001
0.001
0.00101
0.001
0.001
1.8737
1.85694
1.8512
1.84186
1.76205
1.82481
1.65601
1.5895
1.58095
1.58218
1.57899
1.57682
1.51965
1.5172
1.36842
1.32857
1.28722
1.46125
1.46047
1.41079
1.41018
1.40608
0.001
0.001
0.00112446
0.00112448
0.001
0.001
0.001
0.001
0.00112449
0.001
0.001
0.00100893
0.001
0.001
0.001
0.001
0.001
0.001
0.001
0.001
0.381576
0.210689
0.413601
0.412633
0.657055
0.460171
0.859418
1.01248
1.14259
1.01084
1.30328
1.4715
1.50573
1.53012
1.61433
1.7411
1.79421
1.78446
1.82625
1.74777
1.8035
1.8497
1.805
1.78661
0.00101
0.001
0.00100993
0.001
0.001
0.00119057
0.001
0.001
0.00119056
0.001
0.001
0.001
0.001
0.001
0.00101
0.001
0.001
0.001
0.00101
0.001
0.001
0.001
0.001
0.001
0.00221004
0.00101158
1.26207
1.26061
1.1825
1.19848
1.07705
1.09897
1.03615
1.03722
1.03653
1.03725
1.01094
1.0121
0.979627
0.981079
0.95786
0.99809
1.07877
1.03848
1.07917
1.08041
0.897029
0.915009
0.957279
0.937375
0.950799
0.954298
0.898926
0.893227
0.87728
0.889372
0.895915
0.895559
1.75037
1.74936
1.57538
1.49172
1.47661
1.4669
1.74598
1.65906
1.90554
1.98292
1.87921
1.80117
1.99584
1.97726
2.04319
2.09136
2.12041
2.12071
2.14774
2.12128
2.17582
2.20125
2.19787
2.19729
2.21339
2.20037
2.20034
2.24593
2.19107
2.18684
1.30917
1.24031
1.38228
1.45178
1.24002
1.18855
1.23895
1.24124
1.06955
1.12496
0.958981
1.12635
1.00497
1.28615
1.23183
1.27875
1.27472
1.28559
1.17906
1.07825
1.00066
0.986881
1.00002
1.03722
0.966752
0.951955
0.87881
0.969412
1.04815
1.04259
0.959458
1.06155
1.12932
1.07723
1.18017
1.13695
1.17015
1.22695
1.26221
1.24558
1.27448
1.27505
1.28696
1.27785
1.30904
1.31933
1.31839
1.33209
1.33841
1.33923
1.37233
1.38171
1.37414
1.36774
1.37025
1.36284
1.38139
1.39738
1.44188
1.43559
1.40555
1.43529
1.42978
1.4647
1.49989
1.55977
1.59194
1.59147
1.60163
1.67219
1.75279
1.82761
1.84012
1.96775
1.84148
1.89249
2.04396
2.06806
2.06905
2.10605
2.15474
2.20341
2.2136
2.21613
2.24322
2.27086
2.29647
2.29634
2.29602
2.29596
2.29552
2.27782
2.2141
2.27778
2.2454
2.19932
2.19995
2.23107
2.26415
2.27428
2.2006
2.26115
2.22087
1.04896
1.03764
1.1126
1.18824
1.07482
1.13807
1.27968
1.21241
1.23719
1.07875
0.981812
0.948607
0.949532
1.04602
1.04108
0.702172
0.815817
0.999191
0.888996
0.995887
0.997846
1.00581
0.996384
1.01219
1.02854
0.222262
0.381112
0.472794
0.656863
0.671873
0.671187
0.001
0.001
0.001
0.00101
0.001
0.001
0.013183
0.001
0.133139
0.001
0.001
0.00142012
0.001
0.00101
0.001
0.001
0.001
0.001
0.001
0.001
0.0010517
0.001
0.001
0.001
0.001
0.001
0.001
0.001
0.001
0.001
0.001
0.001
0.001
0.001
0.001
0.00100349
0.001
0.001
0.001
0.001
0.001
0.001
0.001
0.00101
0.001
0.00100962
0.001
0.001
0.001
0.001
0.001
0.001
0.001
0.001
1.79308
1.80307
1.80144
1.78151
1.70439
1.76835
1.58805
1.6366
1.5355
1.53566
1.48266
1.47071
1.41283
1.41054
1.32388
1.21953
1.19771
1.36274
1.40975
1.40884
1.40309
1.41217
0.00112512
0.001
0.00112506
0.001
0.001
0.001
0.001
0.001
0.00100548
0.001
0.001
0.001
0.001
0.001
0.001
0.00100999
0.001
0.001
0.001
0.0998366
0.270212
0.412218
0.478272
0.437231
0.646384
0.820606
0.976749
1.01111
1.20807
1.03496
1.33891
1.4881
1.44527
1.56533
1.72932
1.63052
1.70935
1.7128
1.70558
1.72874
1.78335
1.77863
1.78679
1.76236
0.001
0.001
0.001
0.001
0.001
0.001
0.001
0.001
0.001
0.001
0.001
0.001
0.001
0.001
0.001
0.001
0.001
0.001
0.001
0.00100999
0.001
0.001
0.00207327
0.001
0.00101
0.001
0.001
0.001
0.001
0.001
0.001
1.1369
1.13636
1.10155
1.08019
1.03654
1.05848
1.02404
1.02394
1.17858
1.1195
1.10035
0.951989
0.962614
0.894084
0.894285
0.959166
0.957231
0.950122
0.992483
1.05366
1.0047
1.04364
1.02776
0.917007
0.896182
0.911161
0.931957
0.861272
0.860289
0.860288
0.872235
0.886978
0.872987
0.836928
0.844899
2.3228
2.33421
2.36154
2.33612
2.38047
2.36584
2.38861
2.3845
2.44015
2.4265
2.39069
2.44376
2.40672
2.46309
2.28849
2.24097
2.26063
2.3099
2.29173
2.26092
2.26198
2.31653
2.32107
2.29935
2.2783
2.32951
2.31455
2.31619
2.34625
2.20012
2.19987
2.19926
2.19909
2.21824
2.23801
1.79654
1.74018
1.63439
1.54078
1.45424
1.52717
1.7299
1.71327
1.95231
1.97754
1.86228
1.94593
1.98377
2.03177
2.07965
2.12041
2.11856
2.11891
2.11642
2.14585
2.15926
2.1849
2.17231
2.17482
2.1785
2.18742
2.16628
2.16517
1.36092
1.29025
1.23375
1.22362
1.28184
1.45311
1.43313
1.16238
1.22171
1.09378
1.02716
2.30448
2.32733
2.34155
2.34879
2.355
2.36596
2.37037
2.39755
2.38227
2.40227
2.40076
2.4508
2.47808
2.49617
2.4989
2.50044
2.51313
2.5404
1.00339
0.94769
0.949548
1.21269
1.09064
1.26895
1.17277
1.08625
0.987473
0.989997
0.98652
0.98565
0.840136
0.913265
0.769005
0.791773
0.876232
0.790227
1.0541
0.986838
0.880579
1.07657
1.07854
1.07632
1.13433
1.09015
1.21451
1.16791
1.25089
1.21513
1.25456
1.27732
1.29958
1.3234
1.34459
1.34308
1.3545
1.34412
1.40374
1.39034
1.38388
1.38137
1.43416
1.40915
1.47743
1.43938
1.41985
1.46374
1.50757
1.49778
1.52354
1.55739
1.55767
1.50634
1.61355
1.64396
1.61347
1.60332
1.68496
1.76922
1.84084
1.90871
1.85688
1.87282
2.00285
2.06118
2.10553
2.08628
2.15111
2.18232
2.22225
2.23844
2.23171
2.25005
2.30636
2.28807
2.29813
2.30763
2.29831
2.2961
2.29578
2.29569
2.29532
2.29566
2.29615
1.03256
1.02291
1.04709
0.970743
0.987574
1.00822
0.942401
1.08757
0.988481
0.924006
0.944622
0.925609
0.822646
0.923613
0.947999
0.726808
0.716551
0.674428
0.781233
0.997448
0.89001
0.894584
0.89375
0.686462
0.573319
0.372256
0.390515
0.304008
0.131406
0.134368
0.670752
0.497106
0.653775
0.65684
0.001
0.001
0.001
0.001
0.001
0.001
0.00100984
0.001
0.129882
0.001
0.001
0.001
0.00101
0.001
0.001
0.001
0.001
0.00240179
0.001
0.001
0.001
0.001
0.001
0.001
0.00100993
0.001
0.001
0.001
0.001
0.001
0.00101211
0.001
0.001
0.001
0.001
0.00101182
0.001
0.001
0.001
0.001
0.001
0.001
0.001
0.001
0.00101
0.001
0.001
0.001
0.001
0.001
0.001
0.001
0.001
0.001
0.001
0.00219882
0.001
0.001
0.001
0.001
0.00219879
2.48415
2.45497
2.44145
2.52934
2.56784
2.56115
1.77365
1.76971
1.74687
1.74066
1.6838
1.74169
1.57697
1.50126
1.43005
1.446
1.40598
1.40265
1.41803
1.4114
1.28525
1.2024
1.29263
1.37197
1.36977
0.001
0.001
0.001
0.001
0.001
0.001
0.001
0.001
0.001
0.001
0.00100943
0.001
0.001
0.971301
1.00717
1.03711
0.001
0.001
0.001
0.001
0.271524
0.143416
0.440468
0.468264
0.628404
0.500642
0.808873
1.17517
1.31602
1.42677
1.43305
1.77083
1.67253
1.68532
1.47557
1.55177
1.64016
1.68655
1.69209
1.70235
1.71944
1.73129
1.72991
0.001
0.00118251
0.001
0.001
0.001
0.001
0.00100904
0.001
0.001
0.001
0.001
0.001
0.001
0.001
0.001
0.001
0.001
0.00100504
0.001
0.001
0.001
0.001
0.001
0.001
0.001
0.001
0.001
0.001
0.001
0.001
0.00101
0.00100979
0.001
0.001
0.001
0.001
0.001
1.13362
1.16874
1.15711
1.10185
1.10043
1.07363
1.09394
0.962757
0.989661
0.900643
0.902628
1.10554
1.09354
0.854432
0.852813
0.856108
0.858683
0.910786
0.889299
0.929423
0.87477
1.00077
0.951128
1.00082
1.01166
0.838851
0.79415
0.818393
0.849162
0.826999
0.828794
0.769511
0.80509
0.784986
0.765114
0.743657
0.74241
2.32217
2.33609
2.36081
2.38469
2.40027
2.39452
2.42954
2.40159
2.25373
2.25218
2.2361
2.25508
2.29036
2.2535
2.30215
2.27299
2.18632
2.17633
2.17494
2.20392
2.2326
2.20846
1.80129
1.72339
1.61687
1.70517
1.55338
1.46571
1.71871
1.71907
1.95884
1.96279
1.97719
1.87399
1.95192
2.06371
2.01016
1.95291
1.99473
2.09638
2.10865
2.10026
2.10573
2.11391
2.13695
2.16396
2.15391
2.16374
2.1642
2.16228
2.16436
2.16442
2.16307
1.20725
1.21177
1.34879
1.43073
1.20937
1.29124
1.44661
1.46161
1.20185
1.14281
1.05275
1.12134
2.33519
2.29473
2.3151
2.35948
2.35941
2.36186
2.37023
2.39464
2.41524
2.42963
2.42803
2.43383
2.45464
2.49495
2.47972
2.49645
2.51635
2.55751
2.53641
2.36618
2.38018
2.39468
2.56422
2.56242
2.57311
0.949511
0.948989
0.946155
0.918347
1.01956
1.02818
0.8372
0.87173
0.908506
0.794251
0.830985
0.835136
0.764703
0.767321
0.769552
0.770619
0.800821
0.835162
0.931585
0.861949
0.857877
1.00397
1.08004
0.994199
1.15379
1.18019
1.11387
1.15062
1.21467
1.18525
1.30775
1.2501
1.31988
1.33538
1.34404
1.329
1.37893
1.42277
1.45629
1.45849
1.46359
1.44928
1.47594
1.45849
1.50717
1.51075
1.53452
1.53306
1.5127
1.51302
1.63501
1.67922
1.58086
1.64088
1.69012
1.65166
1.75176
1.79796
1.89547
1.9351
1.91199
2.00358
2.05815
2.15807
2.14355
2.20279
2.17672
2.27097
2.27696
2.26886
2.29881
2.32664
2.3242
2.38036
2.34406
2.37231
2.33396
2.33287
2.36941
2.29947
2.33716
2.29997
0.400844
0.716325
0.411346
0.682295
0.963956
0.946799
0.941045
0.924595
0.941278
0.79793
0.695851
0.695422
0.589638
0.796554
0.663509
0.690483
0.820053
0.0795265
0.0794759
0.455986
0.579826
0.573517
0.37443
0.25645
0.252861
0.0361712
0.0529169
0.0610411
0.130676
0.130692
0.0358861
0.213184
0.122581
0.37137
0.172678
0.0949896
0.0010004
0.001
0.001
0.001
0.001
0.001
0.00225394
0.001
0.001
0.0102398
0.001
0.001
0.00101
0.001
0.001
0.0022126
0.001
0.001
0.001
0.00100982
0.00138718
0.001
0.00100983
0.001
0.001
0.001
0.00101
0.001
0.00101214
0.00101193
0.001
0.001
0.00101164
0.00101189
0.001
0.001
0.001
0.001
0.00171166
0.001
0.00171158
0.001
0.001
0.001
0.001
0.00100984
0.00101
0.00100994
0.001
0.001
0.001
0.001
0.001
0.001
0.001
0.001
0.001
0.001
0.00138714
0.001
0.00100958
0.00100997
0.001
0.001
0.001
0.001
0.00101
2.43481
2.47131
2.4684
2.46138
2.50278
2.60679
2.56811
2.58221
2.59675
2.5503
1.68032
1.67305
1.62148
1.61067
1.56718
1.59392
1.49985
1.456
1.45364
1.41388
1.38254
1.38179
1.29351
1.3082
1.17178
1.21468
1.21542
0.001
0.001
0.001
0.00101
0.001
0.001
0.001
1.00577
1.15007
1.00686
0.001
0.001
0.001
0.001
0.873881
0.706903
0.0449926
0.001
0.0742414
0.175674
0.473645
0.328463
0.506817
0.506503
0.539577
1.53361
1.54587
1.58755
1.28765
1.43576
1.42365
1.46881
1.59351
1.6538
1.63708
1.53089
1.62295
1.64453
1.65857
1.5554
1.59925
0.001
0.001
0.00118254
0.00101
0.001
0.001
0.00101
0.00115641
0.001
0.001
0.001
0.001
0.001
0.001
0.001
0.001
0.001
0.001
0.001
0.00101
0.001
0.001
0.001
0.001
0.001
0.00100577
0.001
0.001
0.001
0.001
0.001
0.00101
0.00100563
0.001
0.001
0.001
0.001
0.001
0.001
0.001
0.001
0.001
0.001
0.001
0.001
1.15089
1.16279
1.17268
1.03884
1.06149
1.0229
1.02102
0.94897
0.941039
0.855416
0.864548
0.852771
0.852941
0.953458
0.948763
0.799987
0.797304
0.767738
0.740654
0.840165
0.833742
0.859048
0.915739
0.994824
0.95799
1.02776
0.976396
0.780789
0.749675
0.810343
0.834437
0.71065
0.708862
0.683961
0.704666
0.744099
0.725742
0.744884
0.751025
2.32636
2.28455
2.35304
2.31868
2.32931
2.3575
2.37781
2.41207
2.4178
2.44108
2.43414
2.38185
2.43053
2.40923
2.21965
2.2186
2.21005
2.22329
2.23782
2.24799
2.25127
2.25281
2.16083
2.16407
2.1835
2.17119
2.20093
2.20694
1.8023
1.72462
1.64187
1.71858
1.51385
1.60623
1.71863
1.72541
1.95098
1.95121
1.95323
1.88069
2.04018
2.08647
1.99756
1.95125
2.09243
2.09303
2.10654
2.09274
2.12982
2.15273
2.16117
2.16161
2.16128
2.15958
2.16447
2.16192
2.16074
2.15981
1.20518
1.20006
1.36701
1.44357
1.34594
1.26514
1.49876
1.44291
1.17604
1.20105
1.17097
1.08621
2.33649
2.3729
2.35503
2.3797
2.40087
2.3902
2.42426
2.43895
2.41326
2.4276
2.4193
2.42866
2.43256
2.45664
2.48332
2.49631
2.49756
2.54937
2.52454
2.57313
2.58034
2.44977
2.46496
2.5814
2.5914
0.693625
0.847187
0.714436
0.822539
0.741577
0.714156
0.677373
0.645443
0.674394
0.703323
0.602502
0.64748
0.651754
0.546475
0.607256
0.747944
0.862727
0.776732
0.871506
0.866416
0.861201
0.933449
1.07614
0.981546
1.1677
1.17152
1.13409
1.08583
1.20519
1.24933
1.30813
1.29558
1.3184
1.30491
1.42731
1.37111
1.4733
1.46923
1.4925
1.50014
1.47068
1.52831
1.57337
1.54673
1.53156
1.55938
1.60774
1.59541
1.57773
1.61981
1.70667
1.70328
1.70084
1.71738
1.84751
1.76486
1.93407
1.95887
1.96021
2.02637
2.10298
2.17852
2.18631
2.19844
2.24466
2.29278
2.32834
2.32776
2.36517
2.34062
2.39277
2.4061
2.40759
2.40625
2.40719
2.40608
2.3737
2.40697
2.374
0.0614816
0.0497965
0.068803
0.0408049
0.353519
0.658601
0.342731
0.819561
0.686287
0.692819
0.536183
0.557762
0.561764
0.559308
0.558797
0.562367
0.562295
0.556927
0.570566
0.0723802
0.0587894
0.001
0.00118828
0.0380912
0.001
0.039263
0.038247
0.00753776
0.0223288
0.001
0.001
0.001
0.001
0.001
0.001
0.0020394
0.001
0.001
0.00100986
0.001
0.001
0.001
0.00189653
0.001
0.001
0.001
0.001
0.001
0.001
0.001
0.001
0.001
0.00100941
0.001
0.001
0.001
0.00100992
0.001
0.001
0.001
0.00101
0.001
0.001
0.001
0.001
0.001
0.001
0.0010008
0.001
0.001
0.001
0.00100949
0.001
0.001
0.001
0.001
0.001
0.001
0.001
0.001
0.001
0.001
0.00101
0.001
0.001
0.001
0.001
0.001
0.001
0.001
0.001
0.001
0.001
0.001
0.001
0.001
0.001
0.001
0.001
0.001
0.001
0.001
0.001
0.001
0.001
0.001
0.001
0.001
0.001
0.001
0.001
0.001
0.00106264
0.001
0.001
0.001
0.001
2.63786
2.61704
2.64117
2.65808
2.64262
2.64201
2.46684
2.47835
2.53959
2.51358
2.59639
2.6141
2.5895
2.47885
2.42017
1.54634
1.54427
1.52636
1.53724
1.53796
1.47357
1.52173
1.30452
1.36521
1.22806
1.22936
1.17591
1.17432
1.17432
0.001
0.001
0.001
0.001
0.980053
1.17256
1.00689
0.001
0.001
0.961728
0.851235
0.001
0.0166259
0.001
0.001
0.547235
0.691681
0.0801478
0.0798988
0.21848
0.0831652
0.512441
0.368902
0.515789
1.55529
1.54519
1.5495
1.54229
1.54295
1.25941
1.37218
1.32104
1.43068
1.49389
1.51715
1.44791
1.52434
1.48697
1.48068
1.47502
0.001
0.001
0.001
0.001
0.001
0.001
0.001
0.001
0.001
0.001
0.001
0.001
0.001
0.001
0.001
0.0744804
0.0786002
0.0258733
0.001
0.001
0.0150368
0.001
0.001
0.001
0.001
0.00100955
0.001
0.001
0.001
0.001
0.001
0.001
0.001
0.001
0.001
0.001
0.00106278
0.001
0.00106278
0.001
0.001
0.001
0.001
0.001
0.001
0.001
0.001
0.001
0.001
0.001
0.0742154
0.001
0.001
0.001
0.001
0.001
0.001
1.15214
1.08056
1.06887
0.997706
0.989063
0.907857
0.893358
0.884027
0.883045
0.87408
0.885002
0.813745
0.826883
0.747224
0.733046
0.884066
0.887539
0.674816
0.666022
0.672133
0.681781
0.955319
1.02071
0.937329
0.833165
0.81595
0.891743
0.822096
0.906006
0.747928
0.716981
0.776198
0.732529
0.683255
0.683221
0.677599
0.697459
0.694718
0.671528
0.66051
0.644553
2.31188
2.26701
2.31467
2.31964
2.2954
2.36725
2.31528
2.31967
2.36193
2.37145
2.44422
2.41276
2.36089
2.20883
2.20928
2.23705
2.22463
2.25206
2.24969
2.27414
2.25744
2.1639
2.168
2.19096
2.1776
2.19272
2.19867
1.84073
1.76179
1.68312
1.71926
1.66643
1.57373
1.75584
1.7199
1.9556
1.95477
1.91429
1.95977
2.04695
2.09417
1.95708
2.00313
2.09672
2.09418
2.11745
2.09787
2.1393
2.15769
2.15772
2.15673
2.15771
2.15624
2.15904
2.15923
2.15746
2.15575
1.19899
1.25756
1.44359
1.42197
1.34445
1.42601
1.4453
1.52002
1.19251
1.18743
1.18043
1.09845
0.934718
0.97697
1.05949
2.40632
2.41003
2.43665
2.4298
2.45393
2.46552
2.46581
2.46768
2.50223
2.48337
2.49573
2.46148
2.49117
2.50407
2.52671
2.54521
2.55834
2.55864
2.60772
2.61132
2.62929
2.60931
2.52462
2.52648
2.64389
2.6433
0.480237
0.537366
0.40791
0.643328
0.559485
0.639043
0.651902
0.628462
0.570624
0.489179
0.425017
0.433293
0.460782
0.512536
0.685352
0.58548
0.572217
0.763902
0.919931
0.876528
0.735491
0.969674
1.01271
1.03039
1.01573
1.11602
1.18736
1.06713
1.29192
1.22535
1.29571
1.30393
1.39316
1.32944
1.45044
1.48642
1.48193
1.48376
1.61187
1.57437
1.54303
1.59885
1.62421
1.6188
1.61244
1.60337
1.61739
1.61937
1.70009
1.74241
1.77921
1.73912
1.77949
1.80836
1.946
1.88219
1.97485
1.95939
2.04218
2.1158
2.20248
2.19772
2.23231
2.26988
2.34492
2.33383
2.35657
2.36179
2.39025
2.39949
2.4184
2.41058
2.42227
2.41741
2.40701
2.42005
2.4061
2.40777
0.001
0.001
0.0245819
0.00452327
0.00419177
0.0299839
0.00485101
0.191919
0.0028464
0.554092
0.566026
0.0899
0.295402
0.561196
0.556414
0.565948
0.554985
0.553817
0.570084
0.497896
0.384859
0.001
0.001
0.001
0.001
0.001
0.0019217
0.001
0.001
0.001
0.001
0.00101
0.001
0.001
0.00100863
0.00184781
0.001
0.001
0.001
0.00376188
0.001
0.001
0.001
0.00100974
0.001
0.001
0.001
0.00100983
0.001
0.001
0.00100647
0.001
0.00100976
0.001
0.001
0.001
0.001
0.001
0.00354934
0.001
0.001
0.001
0.001
0.001
0.00133025
0.00133019
0.00133021
0.001
0.001
0.001
0.001
0.001
0.001
0.001
0.001
0.001
0.001
0.001
0.001
0.001
0.001
0.001
0.001
0.001
0.001
0.001
0.001
0.001
0.001
0.001
0.001
0.001
0.001
0.001
0.001
0.001
0.001
0.001
0.001
0.001
0.001
0.001
0.001
0.001
0.001
0.001
0.00101
0.001
0.00168762
0.001
0.00104064
0.001
0.00101764
0.001
0.001
0.001
2.65471
2.67515
2.68759
2.62959
2.64495
2.63166
2.63691
2.53994
2.5662
2.56508
2.57911
2.57475
2.60364
2.62635
2.48613
2.52599
2.44054
2.46689
2.46188
1.55237
1.5369
1.43742
1.39727
1.49586
1.42908
1.43924
1.31202
1.33548
1.20431
1.17446
1.17665
1.17732
1.15428
0.001
0.001
1.09282
1.20142
0.978298
0.001
0.001
0.932341
0.93367
0.001
0.001
0.668697
0.806712
0.040695
0.11615
0.0550116
0.0121477
0.53238
0.534465
0.126859
0.161083
0.200942
0.304475
0.457903
1.5009
1.53868
1.52241
1.50187
1.26338
1.26245
1.28633
1.36206
1.47159
1.47098
1.42842
1.4813
1.47162
0.00196404
0.00102185
0.0013823
0.0119576
0.0352755
0.0544919
0.0612769
0.0594208
0.0618168
0.0970554
0.105052
0.133792
0.132618
0.148188
0.186435
0.221539
0.172038
0.266281
0.220531
0.169365
0.22123
0.230708
0.237689
0.001
0.001
0.0010628
0.001
0.001
0.00101
0.001
0.001
0.001
0.001
0.001
0.001
0.001
0.001
0.001
0.001
0.001
0.001
0.0451883
0.0957172
0.155028
0.184026
0.237346
0.128571
0.001
0.001
0.338802
0.226955
0.264703
0.291117
0.001
0.001
0.001
0.001
0.001
0.001
0.001
0.001
0.001
0.001
1.07144
0.987567
0.986782
0.92591
0.926339
0.89857
0.915517
0.885996
0.925135
0.851443
0.852328
0.760484
0.77956
0.68454
0.688025
0.659575
0.655808
0.806434
0.781065
0.664901
0.6554
0.658936
0.650341
0.880121
0.921916
0.763053
0.736676
0.805159
0.922499
0.983577
0.938336
0.669815
0.627045
0.691918
0.715152
0.612973
0.597651
0.591433
0.557747
0.591755
0.568556
0.59132
0.609596
2.26117
2.31023
2.22434
2.3333
2.32512
2.33303
2.36725
2.33062
2.34117
2.40276
2.35634
2.43811
2.3975
2.47213
2.19157
2.21277
2.20933
2.23124
2.21504
2.23857
2.27591
2.22924
2.15898
2.16585
2.17511
2.18226
2.18341
2.18113
1.89311
1.8125
1.7019
1.71906
1.62409
1.71485
1.72541
1.7819
1.9613
1.95955
1.96055
1.93593
2.0519
2.09771
2.01792
1.97029
2.09919
2.09878
2.10663
2.12515
2.15628
2.14447
2.15626
2.15755
2.15831
2.15633
2.1557
2.15721
2.1563
2.15755
1.27808
1.18603
1.45136
1.45483
1.36648
1.45881
1.45552
1.55632
1.18021
1.18172
1.15922
1.1419
1.08072
1.18022
2.42084
2.43972
2.46012
2.49546
2.49106
2.50982
2.52567
2.53169
2.54215
2.5284
2.53409
2.55638
2.57915
2.58837
2.59032
2.59934
2.61921
2.64115
2.6537
2.65139
2.66464
2.53917
2.52782
2.67959
2.70102
0.268623
0.331699
0.312287
0.383055
0.515737
0.582965
0.480801
0.516138
0.421836
0.428463
0.431972
0.452352
0.553884
0.510258
0.580654
0.582238
0.576005
0.636613
0.71176
0.88468
0.802409
0.967352
1.05183
1.04493
0.958889
1.11301
1.12216
1.20957
1.27305
1.23734
1.31842
1.2569
1.45298
1.37446
1.48324
1.48581
1.49874
1.56196
1.68855
1.69639
1.63511
1.66537
1.69714
1.64413
1.75312
1.67889
1.65562
1.69346
1.82545
1.83653
1.90344
1.95436
1.83945
1.92861
2.07626
2.023
2.09179
2.06384
2.25485
2.22082
2.28632
2.3003
2.37022
2.38331
2.44208
2.41091
2.45645
2.44111
2.46015
2.49298
2.46494
2.49602
2.50388
2.46137
2.45018
2.49386
2.49215
2.46269
0.001
0.001
0.001
0.001
0.001
0.001
0.001
0.001
0.001
0.001
0.001
0.027736
0.293215
0.001
0.001
0.376848
0.128404
0.546881
0.403182
0.475192
0.569424
0.400823
0.292177
0.001
0.001
0.001
0.001
0.001
0.001
0.001
0.00141544
0.00100995
0.001
0.001
0.001
0.001
0.001
0.00100156
0.001
0.001
0.001
0.001
0.001
0.001
0.001
0.001
0.0010095
0.00101
0.00100891
0.001
0.001
0.001
0.001
0.00129245
0.001
0.001
0.00129239
0.001
0.001
0.001
0.00100996
0.00168757
0.001
0.00125141
0.001
0.001
0.001
0.001
0.00101
0.001
0.001
0.001
0.001
0.001
0.001
0.001
0.001
0.001
0.001
0.001
0.001
0.001
0.001
0.001
0.001
0.001
0.001
0.001
0.001
0.001
0.001
0.001
0.001
0.001
0.001
0.001
0.001
0.001
0.001
0.001
0.001
0.001
0.001
0.001
0.001
0.001
0.001
0.001
0.001
0.001
0.001
0.001
0.001
0.001
0.001
0.001
0.001
0.00104064
0.001
0.001
0.001
0.00125142
0.001
0.001
2.70914
2.688
2.70752
2.69449
2.66428
2.7072
2.68294
2.66424
2.67474
2.52688
2.52407
2.5571
2.57709
2.65632
2.63647
2.6917
2.64534
2.48622
2.51604
2.46928
2.46906
2.46639
2.51077
2.39938
1.29999
1.40202
1.30441
1.33515
1.34778
1.2474
1.25748
1.25873
1.25092
1.25021
1.22885
1.1511
1.12559
1.0423
1.03936
1.15354
1.26289
0.00447501
0.0224213
0.927353
0.933259
0.0372617
0.0489482
0.867603
0.732597
0.0504013
0.0671537
0.606057
0.543483
0.206412
0.175862
0.134273
0.54254
0.464466
0.225537
0.251653
0.359156
1.40894
1.33385
1.31032
1.39575
1.26302
1.28699
1.42005
1.35133
1.39886
1.47442
1.46812
0.00409711
0.00129199
0.00950399
0.00142009
0.0565607
0.0320111
0.0555658
0.0587106
0.0617628
0.0883651
0.148047
0.118095
0.147658
0.150121
0.213843
0.172074
0.259036
0.256545
0.26834
0.234759
0.268239
0.261031
0.266821
0.273924
0.001
0.001
0.001
0.00362116
0.001
0.00100998
0.00372736
0.001
0.001
0.001
0.001
0.001
0.001
0.001
0.001
0.001
0.001
0.001
0.001
0.00101
0.001
0.373397
0.403983
0.344623
0.409587
0.420065
0.486169
0.390175
0.0871532
0.541121
0.561729
0.31972
0.272082
0.001
0.001
0.001
0.001
0.001
0.001
0.001
0.001
0.001
0.001
0.001
0.001
0.001
0.001
0.001
0.001
0.927457
0.928449
0.959758
0.927925
0.927184
0.922726
0.92385
0.743824
0.745788
0.828564
0.840279
0.70689
0.706059
0.666071
0.664322
0.665479
0.660256
0.634158
0.630697
0.671331
0.666121
0.573614
0.561923
0.521126
0.536081
0.848415
0.777815
0.715547
0.930032
0.834693
0.960488
1.05938
0.984039
0.666881
0.628382
0.727382
0.70472
0.497333
0.500012
0.506737
0.537268
0.562602
0.590431
0.625057
0.605274
2.23939
2.3084
2.24063
2.26804
2.27865
2.30016
2.28063
2.31582
2.33069
2.36461
2.368
2.36449
2.40496
2.37089
2.46781
2.18199
2.1861
2.19103
2.19554
2.19654
2.19614
2.20507
2.21673
2.21559
2.16237
2.16888
2.17994
2.18201
2.18199
1.85987
1.93453
1.74401
1.73822
1.65777
1.75759
1.81643
1.74931
1.9705
1.98382
1.98735
1.97112
2.09831
2.06297
2.031
2.06569
2.11106
2.10424