/*--------------------------------*- C++ -*----------------------------------*\
  =========                 |
  \\      /  F ield         | OpenFOAM: The Open Source CFD Toolbox
   \\    /   O peration     | Website:  https://openfoam.org
    \\  /    A nd           | Version:  8
     \\/     M anipulation  |
\*---------------------------------------------------------------------------*/
FoamFile
{
    version     2.0;
    format      ascii;
    class       surfaceScalarField;
    location    "21780";
    object      phi;
}
// * * * * * * * * * * * * * * * * * * * * * * * * * * * * * * * * * * * * * //

dimensions      [0 3 -1 0 0 0 0];

internalField   nonuniform List<scalar> 
788991
(
-0.0348299
-0.0645347
-0.0266543
-0.0253017
-0.0173281
0.00603395
-0.00348765
-0.0132767
-0.0523049
0.0389848
-0.0685913
0.0347911
-0.00896297
-0.0403163
-0.0675144
-0.0283748
-0.0181129
-0.041522
-0.0351251
0.0337861
0.00511309
0.0261321
-0.00306735
0.00576906
-0.0523229
0.0352646
-0.0420713
0.0246493
0.0170187
0.0172435
0.0397631
0.0431506
0.0157681
0.020042
0.0478188
0.0130442
0.0126287
-0.019029
-0.0170465
0.0267153
-0.0243839
0.0289004
0.00770495
-0.045995
0.0189981
0.0210043
-0.0141571
-0.00413734
-0.0182082
-0.0168561
-0.102999
0.0657807
-0.0315382
0.0340059
0.0574311
-0.0214601
0.0418082
-0.0266239
0.0310273
0.0181403
-0.0343498
-0.0515062
-0.0506859
-0.0253421
-0.0370774
0.0155591
-0.0195271
-0.0547182
0.0365068
-0.0495581
-0.0743458
0.0460934
0.0340832
0.0164212
-0.0226983
-0.0320826
0.0179495
0.0309233
0.02178
0.0208479
0.0428834
-0.061244
-0.0034052
0.0141786
0.00642465
-0.0233391
0.0441772
-0.0132718
0.00871032
-0.00789356
0.0336795
0.0159482
-0.0273666
-0.027746
-0.0294288
0.0492177
0.0125859
0.0430978
-0.0239378
0.00962841
0.0964278
0.0272653
-0.0710121
-0.0424507
0.0121861
0.0493604
0.0159568
0.0348203
-0.029744
-0.026259
0.0500236
0.000872499
-0.050413
-0.0617344
-0.0128408
0.050278
0.0204787
-0.0486975
-0.0241065
-0.000509071
-0.017029
-0.00272248
0.0498859
0.075416
-0.0442935
-0.0162152
-0.0335776
-0.0509595
-0.0393723
-0.000944872
0.0342203
-0.0415901
-0.0571099
0.0167176
0.0474226
0.0111298
0.0354908
0.00499286
0.0419593
0.00576496
0.0482993
0.0309194
0.0212009
0.0622954
0.0403605
-0.0335219
0.0513286
0.0293556
0.0213582
0.0524684
0.0223383
-0.0296045
0.0085888
0.0246454
0.0158125
0.00907692
0.0246112
0.0259713
-0.000502375
0.0444238
-0.033414
0.0130006
0.0176542
-0.0238906
0.0286522
-0.0317037
-0.00754102
0.011556
-0.0228656
0.0260185
-0.0236728
0.0126689
0.0107095
-0.0122061
-0.010404
-0.0171914
0.000149188
0.0149311
-0.000460844
-0.00287251
-0.0106846
-0.00970909
0.0172186
0.0161904
-0.00403466
-0.00282677
-0.0181997
0.0201551
0.0244977
0.00995682
0.0020059
0.0258916
0.0215459
0.0273392
-0.0115761
0.00104325
-0.0335188
0.00704094
0.0278301
0.00911333
0.0244705
0.0135862
0.0486798
0.0363069
0.0456758
-0.0258345
-0.0608425
0.0255675
-0.0234617
-0.00988937
0.0289983
0.0205984
0.00526751
-0.0210418
0.0174864
0.00182815
0.00451062
0.020105
0.0834987
0.00923055
0.0497913
0.0636277
0.0236388
-0.058544
0.055924
0.0021388
-0.0676262
0.0686996
0.0197725
0.0563277
0.0449755
0.00718461
-0.0485917
0.0523587
-0.0129034
0.0552456
0.016217
0.00589836
-0.0497962
-0.0518313
0.028454
-0.0384162
0.0164677
-0.0197641
0.0376495
0.00231
-0.0157311
-0.0339186
0.00366358
-0.024611
0.00615354
0.00784656
-0.00170667
-0.000376965
0.0117925
0.0123129
-0.0102559
0.0144899
0.0216559
0.0147328
0.0160292
0.0271826
-0.0126597
0.0153769
0.0306608
0.0145679
0.0126091
0.012375
-0.0102228
-0.0175657
0.0112314
0.0495294
0.0466704
0.027013
0.00956537
-0.00464378
0.0318164
0.0216442
0.0423655
0.0108078
0.00563823
-0.0505132
0.0111338
0.0562708
0.0166146
-0.0408932
-0.0271435
-0.00980165
0.0533252
-0.0372968
-0.000677947
-0.100877
0.0106425
-0.0025239
-0.0127166
-0.0345942
0.0316178
0.00643068
-0.0500324
-0.0311346
-0.0457558
-0.0586617
0.0512842
-0.0135169
-0.0534828
-0.0163446
0.0164112
-0.0580811
0.0619596
-0.0172569
-0.0267672
0.0182733
0.00135278
-0.0281955
-0.0273218
-0.048955
0.0626006
-0.00411381
0.0511544
0.0204964
-0.00299496
-0.0387462
0.0313938
-0.00568941
-0.0350737
0.0420021
0.0146551
-0.00171718
-0.00974977
-0.0666109
-0.0315287
0.00752834
-0.0591158
-0.00288664
-0.0302785
-0.0510758
-0.0181234
0.0244223
-0.0747865
-0.0298051
0.0168239
-0.0587659
-0.0552044
0.0140043
-0.0391191
-0.0368952
-0.0111523
-0.0179358
-0.0454389
0.0107321
-0.0500649
-0.0299731
-0.00555914
-0.0356224
-0.0217781
-0.0296789
0.0264859
0.0192958
0.0344292
-0.000385809
0.0142893
0.0508732
0.0403555
0.0110517
0.0319194
0.0355433
-0.0039085
0.0483874
0.033942
0.0195431
0.0554222
0.0362616
0.0127319
0.0763437
0.0128854
-0.0274673
0.0684001
0.0440152
-0.0335291
0.0240092
0.0302728
0.0208804
-4.58672e-05
0.0571353
-0.00652493
-0.0284824
-0.0263372
-0.00320103
-0.0252094
-0.0157592
0.0125516
-0.0160561
-0.0191248
-0.00636939
-0.016741
-0.0132909
-0.00816563
-0.0179551
-0.00774563
0.0118807
-0.0206086
-0.00424138
-0.0181998
-0.016248
0.00210631
0.0298669
0.0168198
-0.0182526
0.0181101
-0.0314917
-0.00394348
-0.00457265
0.008475
0.0210031
-0.00106569
-0.0307445
0.0209779
-0.00473857
-0.0184921
0.00245946
-0.0198056
0.00314576
0.0217429
-0.042786
-0.00373034
-0.0398845
-0.00432028
0.0165919
-0.0120005
-0.04043
-0.00259952
-0.0464994
-0.0233836
-0.0304214
0.00515483
-0.00839458
-0.0262832
-0.0115876
0.0320313
-0.0182703
0.0199143
-0.017588
-0.0605825
0.0818423
0.0810633
-0.0641475
0.060466
0.0111364
-0.0547171
0.0790987
0.0044126
0.0528491
0.088453
0.00984874
0.0590538
0.0700914
0.0118345
-0.0699363
0.0507551
0.0128095
0.057202
0.0585977
0.00029577
0.0476855
0.0145787
0.0083433
0.0449615
-0.0490572
0.027619
-0.0397724
0.00369229
-0.00592411
-0.0349707
-0.00220665
-0.0186614
0.0119329
8.93689e-05
-0.00931184
-0.0028863
0.00438026
0.00914615
0.0192938
0.00739495
0.0216548
-0.0177375
0.0118263
0.0258008
-0.0167584
0.0141409
0.023221
-0.0129483
0.01428
0.0216097
0.00357149
-0.0134082
0.020351
0.0144705
0.0255956
0.000416857
0.0213836
-0.00117045
0.00170744
-0.0166404
0.0310147
0.0113564
-0.0119878
0.022728
0.00789957
0.0289669
0.0214178
0.0231136
0.00784885
0.0254033
-0.0381737
0.0265721
0.00493956
0.025372
0.0334882
-0.00155256
0.0410222
-0.00812025
0.0320772
0.0315516
0.00335285
-0.0888832
-0.0285416
-0.0747313
0.0218771
-0.0978067
-0.0282463
-0.0619266
-0.0717663
-0.020373
0.0331198
0.0717762
0.00618911
-0.095966
-0.0331341
-0.0240195
-0.0568455
-0.0148279
-0.033528
0.0521641
0.0594482
-0.0221125
-0.0596375
-0.0500748
0.00259239
-0.0634928
0.0448773
-0.0348387
-0.0776515
0.0605556
-0.0206813
-0.0816089
0.0351884
0.0101511
-0.033486
-0.0303996
0.016369
-0.0126861
0.0297348
-0.00155679
-0.0232435
0.0330521
0.0100805
0.0158677
-0.0316189
-0.024598
0.0650669
-0.169758
-0.0651825
0.0666641
-0.0128339
-0.0989189
-0.0257963
0.0148872
-0.0697347
0.0397032
-0.00919908
-0.0309719
0.0422833
0.00362883
0.0130982
-0.00837099
-0.0047597
-0.00253285
0.00322876
-0.0654074
-0.00842319
0.0191062
-0.041532
-0.0304978
-0.0413904
-0.0445894
-0.0433901
0.00365555
-0.0453885
-0.0162278
-0.00976049
-0.0409895
-0.0411685
0.00647976
-0.0367712
-0.0218593
-0.0150961
-0.0429455
-0.0274597
0.0267715
-0.0428224
-0.0151294
0.0192396
-4.97373e-07
0
9.37026e-07
0
0
-3.85834e-06
-1.20413e-07
2.65126e-06
4.12865e-07
-8.27851e-07
2.2393e-07
-0.0178298
-0.225727
0
0
0
0.0793226
0.0218636
-0.128654
-0.00407891
0.0189486
0.0488581
0.0308484
0.00181176
0.043304
0.0145718
0.016455
0.0428742
0.0356744
-0.0137264
0.0402448
0.0318083
0.0168166
0.0503813
0.0262455
-0.0149452
0.040181
0.0285876
-0.0227023
0.0602003
0.0403569
0.0146074
0.0671217
0.0324204
-0.0234687
0.0533482
0.0488429
0.0132303
-0.0409777
0.0129374
0.019353
-0.0321638
-0.0135415
0.0291385
-0.0266885
-0.0134476
-0.0156196
-0.0224509
-0.0119519
0.0155983
-0.0175491
-0.0090806
-0.0122714
-0.0164904
-0.00567975
-0.0109544
-0.0231389
-0.00611984
0.0183395
-0.0134197
0.00579609
0.0244042
-0.0177223
-0.0167185
7.97949e-05
0.00850728
-0.0256346
-0.0259449
-0.0227788
0.00750966
0.0128659
-0.0275109
-0.0232638
-0.00327276
0.026531
-0.0180394
0.00119831
0.0202021
-0.0324153
-0.00406101
0.0263945
-0.0373212
0.00406448
0.0305534
-0.0285654
0.00212941
-0.0286021
-0.048716
-0.00750971
0.040496
-0.00145165
0.0408736
0.048771
0.00405516
-0.0557528
-0.0074658
0.0479429
-0.035793
-0.0109828
0.0247682
-0.0415326
-0.0104741
0.0310144
-0.0136509
-0.029573
-0.0175448
-0.0135366
-0.00990978
-0.0814306
0.0443699
0.00363613
-0.0686905
0.0812108
0.0706406
-0.0809043
0.0818346
0.0153341
-0.0648386
0.0585385
0.0128545
0.057035
0.0647348
0.00504208
0.0569435
0.0679836
0.0115775
-0.0532642
0.0519742
0.014096
-0.0455732
0.0528911
0.00947955
0.0482039
0.00811523
0.0108619
-0.0380489
0.0414427
0.0203518
-0.0344027
-0.000268699
-0.00903394
-0.0175544
-0.0169771
-0.0177357
0.00197212
-0.00547345
-0.0108435
-0.0148716
0.000493823
0.00416237
-0.0186879
0.00561026
0.0198341
-0.0135127
0.0115675
0.0211606
-0.00677019
0.0123213
0.0178481
0.0050249
0.0126836
0.0118948
-0.00763484
0.0018751
0.0165922
-0.00351641
0.018876
0.0104075
0.011401
0.0188101
0.00308631
0.013424
0.0296768
0.0142141
0.0153033
0.0377319
0.0106148
-0.0183751
0.0244515
0.0319472
-0.00859441
0.0310029
0.0388071
-0.0020136
0.0308872
0.0346025
0.00338274
0.0444027
0.0372221
0.00168324
0.0498605
0.0463046
-0.00193233
0.0534734
0.0509143
0.0491686
3.1129e-05
-0.0275083
-0.0708572
0.0218723
0.00952771
0.148622
-0.0188824
-0.0150628
0.107545
-0.0521218
-0.0349248
0.0794957
-0.0482626
-0.0669798
-0.0862766
0.00650659
-0.0836319
0.00259562
-0.0399334
-0.0457861
-0.0176869
-0.0440963
-0.0347206
-0.0144378
-0.0492086
-0.0229648
-0.00845051
-0.0560693
0.0363343
-0.0247024
-0.0558225
0.0294066
0.0213142
-0.0250561
-0.0392612
0.0164039
-0.0268735
0.0174978
0.00508597
-0.00998156
-0.0290738
-0.0427987
0
-0.017106
0
-0.0398916
0
-0.199014
0
-0.0526623
-0.00744528
-0.0701851
0.0118911
0.0271189
-0.0618169
0.0353298
0
0
0
0
0
0
0
0
0
6.01753e-06
0
3.79776e-06
0
-1.21232e-05
-3.4452e-09
-8.41516e-06
4.82695e-06
7.6814e-06
-2.6416e-05
0
0
8.48889e-06
0
0
0
0
0
0
0
0
0
0
0
0
0
0
0
0
0
0.0252078
-0.00928097
-0.0130416
0.0118204
0.0114147
0.00275882
-0.00386723
-0.00800289
0.0165753
-0.0670236
-0.0295754
-0.0126341
-0.065097
-0.0140597
-0.0262219
-0.0459183
-0.0212891
0.0242124
-0.0491407
-0.043789
-0.0164225
-0.0384123
-0.0113093
-0.0357763
-0.050448
-0.0266753
0.0057453
-0.0452823
-0.00860728
-0.0498603
-0.040627
-0.0302864
-0.00996997
0
4.88082e-06
0
0
0
0
0
0
0
2.92956e-06
0
0
0
0
0
0
0
0
0
0
0
0
0
0
0
0
0
0
0
0
0
0
0
0
0
-0.0259689
-0.00896078
0.00395694
0.0219539
0.012606
0.00286623
0.0402022
0.0256469
-0.00804252
0.0412198
0.0179247
0.010257
0.0495894
0.0252934
-0.0185039
0.0480848
0.0291807
0.0207671
0.0549603
0.043917
0.0234305
0.0590581
0.0338628
-0.0127599
0.0480168
0.0295858
-0.00821549
0.0375916
0.0377567
-0.00675017
0.0255436
0.0251889
-0.000477317
-0.0405544
0.0119028
-0.0446007
2.12334e-05
0
0
-4.02868e-05
-2.16582e-06
0
0
2.50772e-05
0
0
0
0
0
0
0
0
0
0
0
0
0
0
-0.0358197
-0.00624746
0.0277282
-0.0304427
-0.0110634
0.0251157
-0.024108
-0.00926972
-0.0199984
-0.0185288
-0.00617855
-0.014064
-0.0155618
-0.00541332
-0.0109587
-0.0187708
-0.00450795
0.0160085
-0.0275139
0.00164792
-0.0292104
-0.0246283
-0.0018617
0.0218012
-0.0223107
-0.00549289
0.0157651
-0.0220353
-0.0101983
-0.0121907
-0.0235489
0.0015662
-0.0304122
-0.0234164
0.00689471
0.0336511
-0.0158332
-0.00089655
-0.0119254
-0.0260452
-0.00259115
0.0157867
-0.0246956
-0.00207345
-0.0235374
-0.0265465
0.00361557
0.0323532
-0.00742602
0.05721
0.0502798
-0.00448144
0.0510188
-0.00646452
-0.0568609
-0.0492904
0.0502041
-0.00680544
0.0565928
-0.00718041
0.0486867
-0.049906
-0.00736449
0.0386001
-0.0537436
-0.00465572
0.0455473
-0.0337899
-0.00972042
-0.0230652
-0.0429815
-0.0086828
-0.0304413
-0.0111336
-0.0269341
0.0155713
-0.0113956
-0.0297676
0.064081
-0.0590929
-0.00087667
-0.0618568
-0.0546868
0.056054
-0.0623587
0.0625146
0.0133313
0.0648034
0.0777533
0.0197982
-0.0640679
0.071891
0.014427
-0.0603785
0.062735
0.0176884
-0.0426738
0.0536527
0.0269937
0.0318344
0.0406898
0.0187253
0.0354002
0.00579525
0.00632177
-0.0202678
0.0192946
0.0057237
-0.0135821
-0.0140622
-0.00948253
0.00135733
-0.0260129
-0.011636
0.0102213
-0.0127752
-0.0206498
-0.0149902
0.00455532
0.00563583
0.00274439
0.00638406
0.00968407
-0.00151972
0.0124451
0.00923398
0.00237477
0.0167632
0.0103893
-0.000155551
0.0105762
0.0153257
0.00226646
0.0122826
0.0159498
0.0105464
0.0219148
0.0142668
0.0179072
0.0249884
0.00990665
-0.00652418
0.0349531
0.0169793
0.0184293
0.0353917
0.0163659
0.0144078
0.0254473
0.0341329
0.0116649
0.0362474
0.0404069
0.00110708
0.0356395
0.0332307
0.00948975
0.0447287
0.0434656
0.0031044
0.0468033
0.046787
0.000625301
0.0494687
0.0485939
0.00366942
0.0526689
0.0493092
0.00143277
0.0524156
0.0464198
0.046102
-0.00364118
0.00573776
-0.00797642
0.0569178
-0.0485988
0.0470915
0.0523531
0.0475801
0.0484988
0.0467361
-0.00504305
0.056498
-0.0111551
-0.0463962
0.0447992
-0.00809949
0.063913
-0.0142044
0.0532983
0.0479568
-0.00846176
0.0686797
-0.0131255
0.0641335
0.0564698
0.0045337
-0.0717196
-0.00519632
0.0738363
0.0672496
0.00298396
0.074491
0.00168021
0.0781917
0.0770506
0.00835959
0.0714966
0.00446991
-0.0767504
0.0828993
0.0113041
0.0059055
0.0661795
-0.0715354
0.082569
-0.012917
-0.0181192
-0.0912559
0.0797215
0.0104395
-0.088628
-0.0556072
0.0186187
-0.132452
-0.0481472
-0.0285496
-0.0556633
-0.0257276
0.0387188
0.0195554
-0.0334374
0.0665544
-0.0532753
-0.0120929
0.0321968
-0.00382953
-0.027167
-0.0221454
-0.0121556
-0.0373253
-0.0178123
-0.0242662
-0.047621
0.0218225
-0.0281046
-0.0548768
0.0257678
-0.0213417
-0.0461688
-0.0264203
0.0182821
-0.0348842
0.0317201
0.0234233
0.00497585
0.0330061
-0.00648021
0.00574092
0.0148996
0
0
0
0
0
0
-0.061309
0
0
0.0135871
0.0373734
0.0756606
0.0136678
-0.0198665
-0.0325775
0
0
0
0
0
0
0
3.92082e-05
-9.76122e-05
0
0
0
0
0
0
0
0
0
0
0
0
-4.64432e-05
0
0
0
0
0
1.34604e-07
1.03904e-06
0
-2.89396e-06
0
-2.06039e-06
0
0
0
-1.90373e-06
0
0
0
5.75578e-05
-1.87948e-06
-4.38061e-05
-1.82278e-05
-2.57353e-05
6.6012e-06
7.64812e-08
0
2.83836e-05
-6.78106e-05
0
-7.86241e-06
0
4.14338e-05
0
0
0
0
0
0
0
0
0
0
0
0
0
0
0
0
0
0
0
0
0
0
0
0
-0.00183271
-0.0650137
0.00246348
0.000539081
-0.0327306
-0.0247487
-0.0397238
-0.0219257
-0.053934
-0.033858
-0.000337838
5.02118e-05
-0.044848
-0.0261723
0.0465865
-0.0481624
-0.0238113
-0.0110445
-0.0455052
-0.00641928
-0.0352874
-0.0462196
-0.0366674
0.0377973
-0.00430118
-0.0504409
-0.0192591
-0.0341271
-0.0441839
-0.0113456
-0.0390512
-0.0332149
-0.00484846
0
0
0
-4.28117e-05
2.24433e-05
7.12113e-05
0
0
0
0
0
0
2.96568e-05
0
-2.94716e-05
0
0
0
0
0
0
0
0
0
0
0
0
0.0121664
0
0
0.0327133
0.0164594
0.0409879
0.0260509
-0.00985326
-0.0173062
0.0253345
0.0096058
0.00345355
0.0458273
0.0149503
-0.0141668
0.048309
0.0253653
0.0206533
0.0349407
0.0284283
-0.00415291
0.0539962
0.00777823
-0.00159037
0.0564424
0.0478908
-0.0221792
0.0373826
0.0278288
0.00689645
0.0147058
0.0440357
-0.00461673
0.0249452
0.0575944
0.0110738
0.00928495
0.00935312
0.0492125
0
0
0
0
0
0
0
-4.02057e-07
0
2.14402e-07
0
-3.05027e-07
-1.00284e-07
0
0
0
0
0
0
0
0
0
0
0
0
0
0
0
0
0
0
0
0
0
0
0.00492523
0.0326786
-0.0053545
-0.0376611
-0.00875452
-0.0306893
-0.0343578
-0.0103448
-0.028516
-0.0284314
-0.00824781
-0.0223282
-0.0229596
-0.0060474
0.0159764
-0.015886
-0.00367493
-0.011102
-0.0149485
-0.00102721
-0.0112319
-0.0264231
0.00140038
-0.0296876
-0.0260963
-0.00153048
0.0263108
-0.0250046
-0.0065415
-0.0172351
-0.0269804
-0.0108585
0.0150426
-0.0264738
0.00464038
0.0364381
-0.0323281
0.00127036
-0.0354587
-0.0176445
-0.00293949
-0.0108678
-0.018739
-0.00485378
-0.0173001
-0.0209652
0.00102742
0.0236359
-0.0277093
0.00271146
-0.0288611
-0.00904112
-0.0587524
-0.0456845
-0.00802132
-0.0589749
-0.0505195
-0.00770757
-0.057338
-0.0470153
-0.0586421
-0.00975491
-0.0471014
-0.0131809
-0.0606631
0.0484222
-0.0134037
-0.063458
-0.0465835
-0.068918
-0.0181993
-0.0511231
-0.0756432
-0.020199
0.0621542
-0.0766062
-0.0139002
-0.0681599
-0.076629
-0.00650778
-0.0732881
-0.0724704
-0.00273983
0.0693352
-0.0665832
-0.00128004
0.0655643
0.00712803
0.0782804
-0.0132472
-0.0603547
0.0689954
0.000134283
-0.0630195
-0.0646061
-0.0494959
-0.00668571
-0.0402703
-0.0538933
-0.00774586
0.0424894
-0.0355506
-0.0100124
-0.0253155
-0.0439459
-0.0330925
-0.00705207
-0.0135311
-0.035998
0.0198228
-0.00369591
-0.00828952
-0.0572798
0.0531072
0.00077946
-0.0668837
0.0464905
0.0806588
-0.0440419
0.0710406
0.00428881
0.0431036
0.0649214
0.0094682
-0.0542914
0.0700922
0.0137429
0.0478128
0.0667944
0.0291566
-0.0273667
0.050064
0.0347363
0.0201676
0.0257361
0.0309977
-0.0129651
0.00237486
0.0145985
-0.00508005
0.00507999
0.00422825
0.00604073
-0.0259667
0.00232558
-0.0273022
-0.0236213
-0.0101894
-0.0186322
-0.000621019
-0.00322878
0.0059275
0.00349885
0.00456063
0.00350737
0.00461154
0.00425375
-0.00802758
0.0124763
0.000202921
0.0067837
0.0166963
0.00556957
0.000876201
0.0154554
0.0149114
-0.000848319
0.0109394
0.0207672
0.00717352
0.0259319
0.0144122
0.0160011
0.0196612
0.011567
-0.0115747
0.0349427
0.0200218
-0.0163094
0.0299625
0.0179523
0.0155346
0.0245169
0.0349497
0.0157238
0.0388164
0.0380676
0.00660815
0.0386041
0.0302583
-0.0134967
0.0429492
0.0446546
0.00356555
0.0450882
0.04454
-0.00055129
0.0441832
0.0481669
0.00446757
0.0446466
0.0470996
0.00168821
0.000438767
0.0450633
0.0460738
0.0421437
0.0453918
-0.000738501
0.048872
0.0441066
-0.00357175
0.0546135
0.0455432
-0.0042745
0.0600339
0.054008
-0.00252685
0.0651811
0.061637
0.00237127
0.0690392
0.0712272
0.0086204
0.0722169
0.0792832
0.0134578
0.0710054
0.0866347
-0.017084
0.0655147
0.0874521
0.0186965
0.0593341
0.0726865
0.0834997
0.0202147
0.0585995
0.0148881
0.0752028
0.0787089
-0.0216375
-0.0550306
0.0175855
0.0752042
0.0230994
0.0808484
-0.102485
-0.0441988
-0.0432091
0.0100467
-0.0284324
-0.104869
0.00427388
0.045636
-0.0347537
-0.0134566
0.0543731
-0.0191637
0.0455634
0.0427357
-0.0444791
-0.0644237
0.0676116
-0.0308177
-0.0659514
-0.0430872
-0.016951
0.0345627
-0.0105412
-0.0167523
-0.000676208
-0.0165675
-0.0172048
0.00964118
-0.017973
-0.0269132
-0.017048
-0.0145519
-0.0318752
0.0129961
-0.0125602
-0.0295765
-0.0174412
0.0333686
0.032152
-0.0439259
0.00492797
0.0608656
-0.015733
-0.00976138
0.00195459
-0.0198435
0
0
0
0
0
0
-0.0667917
0
0
-0.0799749
0
-0.0228979
0.0790603
-0.0251308
-0.0722599
0
-1.45903e-05
-4.98093e-05
0
0
0
0
-0.000201776
0
0
0
0
0
0
0
0
5.1151e-09
-4.42584e-07
0
0
0
0
0
0
0
0
0
0
-2.20506e-05
0
0
0
0
3.55197e-05
0
0
-6.2109e-05
0
0
0
0
0
0
0
0
0
0
0
0
0
0
0
0
0
0
0
0
0
0
0
0
4.47968e-07
0
0
0
0
-0.0228033
-0.064504
0.00799933
5.50657e-05
-0.00943706
-0.0500325
-0.037662
0.0042597
-0.0538606
-0.0479796
-0.0281009
-0.0222897
-0.0472713
0.0104613
-0.0499189
-0.0517593
-0.0161349
0.0353175
-0.0462378
-0.00785624
0.0469587
-0.0392013
-0.042749
0.0374594
-0.00661822
-0.0448154
-0.0362684
0.0031605
-0.0499828
-0.00125629
-0.0341278
-0.0471933
-0.00639655
-7.92444e-05
0
-4.86155e-06
8.41052e-05
-5.06534e-05
-1.30094e-05
0
0
0
0
0
0
0
0
0
0
0
0
0
0
0
0
0
0
0
0
0
0.0516328
0
0.0439499
-0.00499061
0.139272
0.034763
0.00258251
0.0458967
-0.0162153
0.0248651
0.022163
0.00732765
0.0490106
-0.0124032
0.0280107
0.0507917
0.0334628
0.0164916
0.0407667
0.0487042
-0.025687
0.0304591
0.0471676
-0.00688031
0.0490328
0.0285794
-0.00176827
0.0411441
0.065238
0.00321812
0.0123615
0.0199124
0.0249621
0.0197896
-0.00368447
0.0151069
-0.025805
0.051896
-0.025504
0
0
0
0
0
0
0
0
0
0
2.65003e-07
0
0
0
0
0
0
0
0
-0.00754613
0
0
0
0
0
0
0
0
0
0
0.00365759
0
0.00282692
0
0
0
0
0
0
0
0
0
0
-0.00657914
0
-0.0382101
-0.010847
-0.0339592
-0.0337663
-0.00949864
0.0278439
-0.0303061
-0.00808372
-0.0213526
-0.0217152
-0.00398524
0.0181812
-0.0471651
-0.0109301
-0.0412744
0.0389285
-0.0162866
0.000186592
-0.0184998
-0.0154635
-0.000174762
0.0122515
-0.033201
-0.00347681
-0.0334975
-0.0309745
-0.00440856
0.0292548
-0.0297783
-0.00879784
-0.0221765
-0.036963
-0.0149055
-0.0198688
-0.0371942
-0.000562109
-0.0316054
-0.0437797
-0.00526354
0.0361413
-0.017623
-0.00589171
-0.0103233
-0.0208044
-0.000314688
0.0195697
-0.0234652
0.00343649
-0.0219323
-0.0308543
-0.000838499
0.0239714
0.0289623
0.0241338
0.0511514
-0.0173039
0.0226898
-0.0452751
0.0334481
0.0480534
0.0237589
0.0199661
-0.050444
0.0553303
-0.0332176
-0.0211513
0.0270192
0.060947
-0.0471281
0.0204545
0.0787304
-0.0246369
0.0708382
-0.0493671
0.0721816
-0.0263576
0.0229362
0.0735703
-0.0485303
0.0746269
-0.0254381
0.0226818
-0.0722968
0.0692247
-0.0275737
-0.0486848
0.0187682
0.0645979
-0.0595509
0.00916662
0.0705361
-0.0561455
0.012002
-0.0725606
-0.0489328
0.0164882
0.0685577
-0.0147444
-0.0609127
-0.0425848
-0.0100587
-0.0611755
-0.049431
-0.0131008
-0.0607983
0.0462977
-0.0607803
-0.0158212
-0.0442519
-0.0194578
-0.0703597
0.0517165
-0.0191296
-0.071312
0.0400118
-0.0826484
-0.0219824
0.0625878
-0.079709
-0.0219696
0.064453
-0.0780195
-0.0155611
0.0653651
-0.0728241
-0.0107787
0.0634176
-0.0670243
-0.00826855
0.0592666
-0.0655918
-0.00623564
0.0599105
0.00279261
-0.0624084
0.068158
-0.00370187
-0.0661266
0.0636222
-0.00715242
-0.0509926
-0.0369743
-0.0389942
-0.00529196
-0.0471619
0.033332
-0.0586182
-0.0140353
-0.0395895
-0.0124955
-0.0332964
0.0165802
-0.0119088
-0.0373132
-0.0231728
0.0522798
0.0571499
0.0842424
0.0284646
0.0428057
0.0805008
-0.0298402
0.0452625
0.0710588
0.0298606
0.0386073
0.0728239
0.0284029
0.028825
0.0644504
0.027269
0.0208101
0.0517574
0.0276538
0.0241599
0.0502121
0.0328137
0.0529929
0.019604
0.0552152
0.0354336
-0.00245523
-0.0038926
0.0743256
0.067917
0.0126603
-0.0494883
0.064481
0.0477152
-0.0577929
0.0638522
0.0161033
-0.0493198
0.0686375
0.0164662
0.0428359
0.0688008
0.0222156
0.0296812
0.0604204
0.0336742
0.0166996
0.0458573
0.036978
-0.00569527
0.0173682
0.055135
-0.0101501
0.0101123
0.0264506
-0.0456564
-0.0321519
-0.0194543
0.0418549
-0.0153926
0.014498
0.0314116
-0.0139619
0.0067434
-0.00494186
0.0124875
0.0140844
-0.0148907
0.00475985
-0.000150577
0.0198275
0.00575819
-0.0117141
-0.0157005
0.0118983
-0.00600891
-0.0141639
0.0144836
0.000487406
0.00530874
0.0168393
0.00693308
-0.00362211
0.015758
0.0177802
-0.00243283
0.0240794
0.0130911
0.0124482
0.0175728
0.011078
0.00892878
0.0327805
0.0225423
-0.015163
0.0279335
0.0177121
0.0167181
0.0248664
0.0365811
0.016642
0.0398679
0.0341837
0.010557
0.0387867
0.0254677
-0.0141904
0.0393594
0.0401615
-0.00582455
0.0434683
0.0420653
0.00285029
0.0416614
0.048311
0.00407245
-0.0034864
0.0459416
0.0400197
0.0397151
0.0398263
-0.00622025
0.0427939
0.0432603
0.00255143
0.0485096
0.0434238
-6.55468e-05
0.0554317
0.0508127
0.000972106
0.0597916
0.0594298
-0.00402993
0.0627936
0.0664121
0.00786337
0.066511
0.0724649
-0.0127763
0.070751
0.0798975
-0.0179946
0.0708
0.0896377
0.0219815
0.0651358
0.0938317
-0.0243508
0.0581128
0.0890373
-0.0264945
-0.0280418
0.083374
-0.0461976
-0.0460519
0.0494614
0.00430491
-0.111137
-0.0567228
-0.00185292
-0.0415456
-0.124159
0.0147588
-0.0151028
-0.0486172
0.0601865
-0.00326634
-0.0533645
-0.0628705
0.0334479
-0.0522092
0.0602341
0.0673058
-0.0265186
-0.069234
-0.0446198
-0.000549234
0.0440438
-0.00696708
-0.0109561
0.0241456
-0.0131364
0.0193133
0.0139363
-0.0157767
-0.0198502
-0.000640488
-0.013793
-0.0137106
0.0197603
0.0151142
-0.0536639
-0.0387988
0.0294581
0.0836635
0.0917349
-0.0255568
-0.0103797
0.0950212
-0.0559653
-0.0458245
0.0334264
-0.067538
0
0
0
0
0
0
0
0
0
0
0
0
-0.0215545
0
-0.00223281
0
0
0
0
0
0
0
0
0
0
0.00329677
0.00209387
0
0
0
0
0
0
0
0
0
0
0
0
0
0
0
0
0
0
0
-4.48873e-06
7.56149e-06
0
0
0
0
-9.50958e-05
5.75794e-05
0
0
0
0
0
0
0
0
0
0
0
0
0
0
0
0
0
0
0
0
0
0
0
0
0
0
0
7.4445e-06
0
-3.38383e-05
0
0
0
-5.69852e-06
0
1.30668e-05
0.0431043
0.0163111
-0.0732757
-0.00340068
0.0710221
-0.0443592
0.0458207
0.0316769
0.0343861
-0.00637076
-0.0208292
0.048533
-0.0323082
0.0417917
-0.043544
-0.0276196
-0.0155874
-0.0433615
0.0182625
0.0570056
-0.0514654
-0.0169352
-0.0492361
-0.0448835
0.010995
-0.033679
-0.0510097
-0.00519957
0.0577493
-0.0458083
-0.0424382
-0.00758152
-0.0431496
-0.0409042
-0.000292787
-0.00297458
-0.0398479
5.14636e-06
0
0
0
0
0
0
0
0
0
0
0
0
0
0
0
0
0
0
0
0.0346309
0.0510197
-0.0085874
0.0366189
0
0
0
0
0
0
0.017576
0.00787432
0.0116977
0.0020878
0.00656603
0.00677095
0.0215145
0.0268214
-0.0177308
0.000542709
0.0356958
0.0437879
0.0426817
-0.000866758
0.0423607
0.0258837
-0.00721453
-0.0389865
-0.0281381
0.0232712
0.0300895
0.0402324
0.0272669
-0.00773073
0.0273806
0.0394624
0.0175761
0.0370985
0.0287915
-0.022472
-0.0117161
0.0293809
0.0385516
-0.0666605
0.00338844
0
0
8.95344e-06
9.19421e-07
0
0
0
0
0
0
0
0
0
0
0
0
0
0
0
0
0
0
0
0
0
0
0
0
0
0
0
0
0
0
0
0
0
0
0
0
0
0
0
0
0
0
0
0
0
0
0
0
0
0
-0.0477353
-0.0500825
-0.0113519
-0.0405802
-0.0328807
-0.00912112
-0.0317397
-0.028326
-0.00578172
-0.023937
-0.0235453
-0.00411666
-0.02086
-0.018484
0.00164974
0.0244093
-0.00753534
-0.0372982
0.0371117
-0.0122607
0.00579229
-0.0197148
-0.0106778
-0.00131362
0.00895473
-0.0411085
-0.00523347
-0.0397742
-0.0375791
-0.00621676
-0.0357769
-0.0359983
-0.0121109
-0.0307176
-0.0383378
-0.0173765
0.0228169
-0.042208
-0.006048
-0.0273686
-0.0503072
-0.0102078
0.0355509
-0.0199776
-0.00599364
0.014019
-0.0233798
-0.00142033
0.0240468
-0.0252147
-0.00266346
-0.0247741
-0.0309
-0.00412794
-0.0204588
-0.0283723
0.0156475
0.0439156
-0.0345753
0.013051
0.0582598
-0.0301458
0.00707208
-0.0590055
-0.0703014
0.0264996
-0.0310834
-0.0503709
0.0192357
-0.0715616
-0.0508362
0.0211537
0.0748416
-0.0457402
0.0217976
-0.0717223
-0.0326878
0.0246156
-0.0587974
-0.0596208
0.00641097
-0.0707178
-0.0517956
0.0111987
0.06843
-0.0518163
0.0145517
-0.0693893
-0.0190981
-0.0625439
-0.0388921
-0.0171192
-0.063956
0.0455288
-0.0197971
-0.0670148
-0.0426639
-0.0624081
-0.022281
0.0399411
-0.0333541
-0.0848009
0.0710985
0.0322919
-0.0267359
-0.0666865
0.0343134
-0.0154859
-0.0855612
-0.0646737
-0.039866
-0.0797333
0.0478517
-0.0802519
-0.0224652
0.0614524
-0.0733719
-0.0186812
0.057241
-0.0674516
-0.0145637
0.0545728
-0.0661207
-0.0124758
-0.0549663
-0.0669731
-0.0102573
-0.0573459
-0.000319051
-0.0640282
-0.067489
-0.00700699
-0.0665098
0.0610754
-0.0418671
-0.0161471
0.0253473
-0.0121843
-0.0537721
0.0340579
-0.0142316
-0.0518806
0.0327107
-0.0622029
-0.0204603
0.0343372
-0.0128603
-0.0427292
-0.0290781
-0.0161121
-0.0475571
0.0302072
0.0547064
0.056123
0.0889132
-0.0329887
0.048397
0.0861636
-0.0325757
0.0379298
0.032681
0.0802538
0.040183
0.068998
0.0331592
0.0375252
0.0695683
-0.029525
0.0232398
0.0685794
0.0313126
0.011553
0.0506793
-0.0399932
0.0222363
0.0476533
0.0443563
0.0131718
0.0629012
-0.0466805
0.0448678
0.0781084
0.0335165
0.0347162
-0.0058007
0.0487479
0.0491479
0.0461819
0.00683174
-0.0106994
-0.0785298
0.0779309
0.000847029
-0.0679949
-0.0642882
0.0605854
-0.0447036
0.0590893
0.0111065
-0.0375054
0.0549446
0.0240176
0.029113
0.0551976
0.0315064
-0.0187925
0.0516325
0.0376708
-0.00447582
0.0397396
0.0558969
-0.0169109
-0.0223273
0.0627261
0.0153196
0.0153169
0.00769586
-0.0480868
-0.0473085
-0.0107404
0.0626862
0.00687507
0.0378965
-0.0343169
0.00681535
0.0159453
-0.0266283
0.0253664
0.0361239
0.0100377
0.00704269
-0.015711
0.026023
0.00752471
-0.0191915
0.0199127
0.00697525
-0.0127169
-0.0128803
0.0102145
-0.00508289
0.00953776
0.0134465
0.00289774
-0.000942544
0.0161805
0.0117849
-0.002872
0.0181171
0.0143359
-0.0137811
0.0142682
0.00424188
-0.00832001
0.033092
0.0225719
0.0148147
0.0280368
0.0167534
-0.0164895
0.0257479
0.0365015
0.0143084
0.0373152
0.0288577
0.0101667
0.0379952
0.0251167
0.0106814
0.0355663
0.0367919
0.00737608
0.0415671
0.0433659
0.00275444
-0.000382
0.0430206
0.032313
0.039641
0.0111361
0.0370575
0.0422657
0.00807794
0.0409577
0.0427295
0.00692029
0.0486172
0.0480168
-0.00622347
0.0553052
0.0560597
0.00773691
0.0598434
0.0632177
-0.0102123
0.0598343
0.0693848
0.0124791
0.0634496
0.0716423
0.0170168
0.0702038
0.0806261
0.0223648
0.0705634
0.0936004
-0.025903
0.0648977
0.0970556
-0.0292023
-0.031667
0.0949359
-0.0684835
-0.0693156
-0.0778555
0.0283857
-0.0525448
-0.0974556
-0.0404661
-0.107685
-0.0963937
0.0526564
0.0223022
0.115934
-0.154671
0.0206266
-0.108819
-0.0976937
0.0231762
-0.0707123
0.0822977
0.0445176
-0.0555235
0.078674
0.0603271
-0.0371071
-0.0877642
-0.0383711
0.00312991
0.10088
0.0225668
0.0118606
0.00719091
-0.04933
0.0414109
-0.0521834
-0.0156578
0.0207724
-0.0121901
0.0167578
-0.0150032
0.00354055
0.0471509
-0.0274715
0.0131872
0.000390984
0.0104592
0.0241733
-0.000931819
0.0985804
-0.0642163
0.0693175
0.142722
0.0180875
-0.129689
0.0314312
0
0
0
0
0
0
0
0
0
0
0.00385471
-0.00324332
-0.0532103
0
0.0638587
0
0
0
0
0
0
0.00536029
0
-0.00203263
0
-0.00206658
0
0
0
0
4.36154e-06
0
-2.67097e-05
0
0
0
0
0
0
0
0
0
-2.00675e-05
-7.25905e-06
-3.02278e-05
0
4.63071e-06
0
-5.28093e-05
-2.46936e-05
-1.13261e-05
0
-4.5635e-05
0
0
0
0
6.60307e-06
0
-5.0987e-05
0
-7.32217e-06
-1.45953e-05
0
0
0
0
0
0
0
0
0
0
0
0
0
0
0
0
0
0
0
0
0
-3.35036e-06
0
5.22207e-06
0
0
0
-3.39801e-05
0
0
0
0
0
0
0
0
0.048398
0.03354
0.109572
0.0357444
0.0354441
0.0481236
0.0179372
0.0486153
0.093142
0.0351401
0.0521394
-0.016932
0.134884
-0.00878812
-0.0158335
-0.0385047
0.0345427
0.00914962
-0.0292569
-0.0470844
-0.0415858
0.0196471
-0.0562161
-0.0421007
-0.00404381
0.0384133
-0.0373322
0.0174551
0.055525
-0.0505755
-0.0117979
-0.041706
-0.047372
0.0112227
-0.0496764
-0.0465932
-0.0416954
0.00595458
-0.00129054
-0.0462373
0
0
0
0
0
0
0
0
0
0
0
0.0371759
0.0467929
0.00306859
0.0435587
0
0
0
0
0
0
0.0299095
0.00601509
-0.0415563
0.00600072
0
-0.0643929
0.0298692
0.0187358
0.00557668
-0.0269257
0.0125332
-0.0277745
0.00482342
0.00131151
0.0145011
-0.000959469
0.0464379
0.00203585
0.0145309
-0.00329825
-0.0353608
0.0397594
0.0475389
-0.00453571
0.0328709
0.0464641
0.0024719
0.0122941
-0.0718673
-0.0359858
0.0348546
0.0335445
-0.00424583
-0.00352271
0.0317311
-0.00795482
0.0139279
0.0542544
-0.025979
-0.00985284
0.064898
-1.20492e-07
0
0
6.47958e-07
0
-7.50899e-06
0
0
0
0
2.14706e-05
0
-3.04024e-06
0
2.45105e-05
0
0
0
0
0
0
0
0
0
0
0
0
0
0
0
0
0
0
0
0
0
0
0
0
0
0
0
0
0
0
0