/*--------------------------------*- C++ -*----------------------------------*\
  =========                 |
  \\      /  F ield         | OpenFOAM: The Open Source CFD Toolbox
   \\    /   O peration     | Website:  https://openfoam.org
    \\  /    A nd           | Version:  8
     \\/     M anipulation  |
\*---------------------------------------------------------------------------*/
FoamFile
{
    version     2.0;
    format      ascii;
    class       volScalarField;
    location    "5580";
    object      H;
}
// * * * * * * * * * * * * * * * * * * * * * * * * * * * * * * * * * * * * * //

dimensions      [0 1 0 0 0 0 0];

internalField   nonuniform List<scalar> 
526318
(
0.758065
0.718582
0.791952
0.702025
0.775227
0.731125
0.744159
0.663854
0.723311
0.600834
0.582098
0.702482
0.646636
0.686423
0.6489
0.675325
0.644968
0.846114
0.758636
0.801973
0.799247
0.751186
0.508385
0.749668
0.634898
0.503255
0.77367
0.772082
0.773158
0.786844
0.817207
0.863562
0.845878
0.727518
0.727685
0.694719
0.704193
0.790135
0.717794
0.671184
0.727911
0.698493
0.36371
0.415729
0.321127
0.368856
0.345485
0.470197
0.652846
0.544508
0.634605
0.629408
0.586174
0.543006
0.0392145
0.290381
0.288729
0.0920141
0.803656
0.818968
0.840063
0.788236
0.732476
0.864311
0.857112
0.814202
0.802432
0.80168
0.703958
0.695028
0.809339
0.591627
0.643686
0.538679
0.495252
0.483997
0.584983
0.573451
0.492709
0.533805
0.615089
0.613495
0.567616
0.524988
0.550122
0.616967
0.61801
0.595449
0.550537
0.616925
0.520727
0.475187
0.464996
0.403415
0.391481
0.398808
0.394907
0.395251
0.394077
0.397834
7.97638e-05
2.15653e-06
0.000997336
2.29763e-11
0.000738488
0.000148343
0.301137
0.114915
0.427386
0.390043
0.4321
0.547437
0.773373
0.66493
0.772975
0.790662
0.856491
0.824521
0.870773
0.389512
0.390051
0.392102
0.394374
0.350038
0.389671
0.300803
0.343616
0.251282
0.303169
0.253357
0.251272
0.239611
0.21924
0.206082
0.23786
0.179694
0.23174
0.182906
0.203067
0.148429
0.155345
0.175755
0.201769
0.188928
0.144607
0.146307
0.161124
0.152447
0.143211
0.15399
0.169704
0.153729
0.155001
0.160638
0.156376
0.119668
0.148344
0.163205
0.122593
0.0758294
0.163214
0.105824
0.161896
0.661314
0.752388
0.696307
0.682101
0.485327
0.55219
0.489203
0.484205
0.486925
0.482613
0.508966
0.482954
0.417928
0.39071
0.354752
0.296933
0.35553
0.396238
0.397332
0.396978
0.283883
0.336295
0.222183
0.233439
0.242592
0.235076
0.233765
0.235834
0.228049
0.226707
0.226391
0.213794
0.193805
0.222439
0.21346
0.179826
0.161377
0.189864
0.174193
0.171829
0.18524
0.171196
0.176644
0.147394
0.158091
0.184338
0.186732
0.641101
0.650972
0.686676
0.656017
0.642144
0.644062
0.636759
0.519464
0.559793
0.310639
0.275466
0.283016
0.411062
0.545851
0.412649
0.449639
0.453538
0.396408
0.380068
0.000376583
3.72649e-16
0.0221586
0.235461
0.00027704
9.76159e-09
0.000995694
0.000255125
0.000396609
0.000963311
0.853059
0.838215
0.885251
0.878497
0.841478
0.835106
0.746284
0.829731
0.67129
0.616714
0.621212
0.620281
0.616081
0.616688
0.601995
0.610546
0.525896
0.58868
0.405256
0.460832
0.389422
0.402502
0.00100536
4.55059e-11
0.000154997
0.00100202
0.000103589
0.000987509
1.05997e-10
0.0238702
0.402759
0.217239
0.45019
0.449813
0.560976
0.662791
0.783637
0.790597
0.828968
0.799399
0.8684
0.901731
0.369689
0.369887
0.330316
0.300876
0.195959
0.237141
0.162535
0.172375
0.163068
0.156673
0.140976
0.152911
0.0729265
0.104409
0.130088
0.167059
0.228603
0.188304
0.15715
0.149068
0.0898038
0.0853771
0.126971
0.183129
0.107247
0.146011
0.14286
0.116822
0.109901
0.0789249
0.0721802
0.0381292
0.0368417
0.0419834
0.0289404
0.146006
0.184603
0.154158
0.189279
0.556914
0.513422
0.408932
0.499333
0.42385
0.472502
0.482698
0.474417
0.482797
0.48493
0.394368
0.309764
0.237825
0.222634
0.295802
0.236708
0.222667
0.335971
0.225947
0.274933
0.214177
0.215408
0.223911
0.217825
0.227681
0.224895
0.221542
0.225424
0.224544
0.222305
0.229695
0.226918
0.236935
0.23578
0.23918
0.21256
0.234798
0.208912
0.182351
0.185836
0.212704
0.245258
0.235592
0.211447
0.192233
0.223378
0.265568
0.26118
0.280144
0.241634
0.280269
0.294138
0.320929
0.272527
0.290021
0.307155
0.339509
0.463461
0.542886
0.461522
0.49833
0.571486
0.632679
0.54288
0.405118
0.521954
0.419836
0.437554
0.168026
0.122396
0.141725
0.136709
0.259307
0.376133
0.30435
0.372717
0.3757
0.394397
0.379896
3.99013e-09
0.0009304
0.000437855
9.70928e-06
0.0286635
0.000818003
0.000599399
0.00100998
0.000160582
0.00100962
0.000664765
0.00100889
0.000730728
0.000955715
0.000582482
0.000952703
0.876112
0.870112
0.904875
0.8957
0.873707
0.843623
0.771674
0.684528
0.617008
0.629236
0.609452
0.613215
0.587641
0.581671
0.564755
0.570571
0.516219
0.554089
0.484081
0.428553
0.370242
0.327942
0.000979336
0.00112016
0.00112127
0.000663073
0.000415743
0.000731205
0.000581452
0.000647121
0.00111913
0.00112088
0.000832923
0.00100984
0.000691702
0.00100942
0.00126188
0.00017911
0.00029449
0.000487392
0.000977135
0.00096135
7.31626e-08
0.000978536
0.000793614
1.85613e-05
0.108947
1.26279e-08
0.315753
0.475693
0.487711
0.580009
0.800902
0.691388
0.811895
0.814529
0.824787
0.858664
0.887249
0.907403
0.289602
0.286185
0.24089
0.268552
0.20785
0.166427
0.163716
0.163186
0.152679
0.160227
0.109658
0.101356
0.0570925
0.0638881
0.133785
0.104877
0.0611069
0.128783
0.113432
0.124787
0.0382336
0.0269858
0.0544724
0.0665477
0.0652289
0.0199433
0.0255259
0.0213038
0.0271003
0.0100427
0.00783499
0.30843
0.281527
0.29333
0.279513
0.301826
0.414533
0.366309
0.346295
0.227523
0.277297
0.258921
0.264799
0.159794
0.0959098
0.275274
0.388648
0.28231
0.284536
0.268148
0.349238
0.329949
0.394377
0.42969
0.359534
0.339239
0.371252
0.251432
0.220201
0.219674
0.223429
0.14011
0.187267
0.112624
0.0675235
0.0508743
0.169544
0.165948
0.21874
0.21614
0.214735
0.216184
0.216348
0.221965
0.217375
0.228324
0.219864
0.241095
0.229832
0.237267
0.240312
0.262868
0.251486
0.274418
0.283836
0.227012
0.214995
0.279956
0.260473
0.253595
0.270128
0.255773
0.238372
0.285598
0.271413
0.365996
0.366509
0.320892
0.361155
0.381427
0.346116
0.442917
0.40585
0.472726
0.50175
0.517828
0.434028
0.438963
0.438927
0.399935
0.377452
0.349817
0.437827
0.289164
0.274605
0.32067
0.340958
0.0199872
0.0643221
0.152704
0.267081
0.303409
0.33885
0.242373
0.209718
0.171276
0.115822
0.000965631
0.000310861
1.73403e-06
1.84795e-07
0.000976024
0.0158146
0.000993891
0.000234006
0.00100979
0.000545241
0.00024476
0.000470015
0.000926911
0.000208943
0.000854962
0.000986846
0.000766556
0.000551352
0.000138864
0.000388285
0.00097475
0.00101
0.000134211
0.00100021
0.000980072
0.000380326
0.00118636
0.000967751
0.000995392
0.00118636
0.00118637
0.00118636
0.000889331
0.000999494
0.0009727
0.000201819
9.59135e-05
0.000989075
0.000892979
0.0009482
0.00100959
0.000881287
0.00100809
0.00100869
2.68317e-05
0.000948133
0.871578
0.883596
0.905629
0.89331
0.874153
0.798372
0.616522
0.704706
0.583968
0.59409
0.571173
0.564669
0.561467
0.56182
0.557337
0.552833
0.496557
0.468492
0.368827
0.414119
0.263943
0.309952
0.000851104
0.000624444
0.000948563
0.000967574
0.000969466
0.000982262
0.000986514
0.000879074
0.000998153
0.00065842
0.000677989
0.000965569
0.000971308
0.000759356
0.000380116
0.000991326
0.000690401
0.00100737
0.000803925
0.000839513
0.000369052
0.000975289
0.000889611
0.000439439
0.000917861
0.000689286
0.00101016
0.000641467
9.49927e-06
6.82991e-05
0.000726018
0.000719123
0.00158415
0.000590783
0.289647
0.123583
0.499258
0.45609
0.521937
0.628834
0.734813
0.814433
0.825731
0.81441
0.854401
0.886894
0.871494
0.869726
0.00101
0.000734461
0.000886173
0.000267669
0.000895477
0.000922867
0.00081396
0.000932732
0.000890554
0.000725685
0.000975785
0.00092383
0.000794854
4.22081e-07
0.00079829
0.00101
0.000170373
0.267994
0.267066
0.269919
0.230699
0.152844
0.186019
0.115623
0.111232
0.0721596
0.0645807
0.0207875
0.0185913
0.0521291
0.0448166
0.00704
0.0408183
0.0340572
0.0836427
0.0776639
0.0642135
0.000998836
0.000963182
0.000869861
0.00276847
0.011113
0.0106218
0.000939407
0.0002452
0.000489953
0.000996791
0.000920408
0.000390313
0.515738
0.473647
0.519449
0.527621
0.467477
0.428548
0.600559
0.623443
0.689019
0.693851
0.23743
0.273326
0.326564
0.417217
0.241428
0.181845
0.223264
0.218885
0.0589187
0.111831
0.159981
0.0499195
0.262956
0.266327
0.261612
0.260448
0.281482
0.263864
0.27787
0.29466
0.17419
0.165294
0.0706633
0.155873
0.150512
0.1019
0.0575267
0.0638868
0.00910593
0.0312268
0.0167515
0.101394
0.166999
0.0968843
0.163575
0.217038
0.215018
0.216591
0.214697
0.219679
0.243522
0.231173
0.250038
0.247826
0.271957
0.261936
0.282489
0.281845
0.283473
0.280329
0.294933
0.2904
0.330139
0.303791
0.265293
0.26497
0.335152
0.303025
0.310318
0.347122
0.392871
0.389386
0.382851
0.390068
0.416113
0.479074
0.529344
0.555725
0.563586
0.541374
0.680331
0.623283
0.751533
0.789508
0.778156
0.815804
0.871708
0.74049
0.821581
0.842929
0.921436
0.967477
0.994753
1.01341
1.04713
0.98988
1.04443
1.00106
1.08187
1.08277
1.12919
1.09769
1.16162
1.19062
1.18074
1.12961
1.19696
1.2187
1.18797
1.1848
1.25
1.22562
1.25302
1.20138
1.19751
1.26753
1.23234
1.18334
1.18374
1.21102
1.24526
0.239319
0.201307
0.374647
0.368755
0.337826
0.333834
0.335583
0.102738
0.237222
0.000255647
0.000802245
0.0683613
0.054919
0.000944265
0.00982692
0.00120604
0.168397
0.0759802
0.0776946
0.000149146
0.00101148
0.0010011
0.00688466
0.000348441
0.00102086
5.52624e-07
5.8384e-05
1.05385e-05
1.89669e-05
0.00101
0.000966006
0.000995857
0.000651093
1.90234e-05
0.00143164
0.000842141
0.000928041
0.000844807
0.000714915
0.000264057
0.00069126
0.000943677
0.000831092
0.0012285
0.000619715
0.00012748
0.000146108
0.000949
0.000255762
1.04617e-05
1.61879e-05
0.000990101
0.000818938
0.00100231
0.00095079
0.000911134
0.000410555
0.000764289
0.000995661
0.00117094
0.000885978
0.00100983
0.000952393
0.000944357
0.00101009
0.00106268
0.000680849
0.00105279
0.000909691
0.00105163
0.00105141
0.00102112
0.000982946
0.00104989
0.00105027
0.00046961
0.000671735
0.00101
0.000773625
0.000908767
0.000377029
0.000991017
0.000960908
0.00100983
0.00100977
0.000136678
0.000933775
0.000950381
0.000921886
0.000915695
0.000919934
0.000775844
0.00119499
0.000765188
0.000968314
0.860599
0.849474
0.822821
0.82224
0.738989
0.807431
0.63288
0.571426
0.560785
0.560282
0.560711
0.559941
0.499547
0.502252
0.347032
0.308486
0.267789
0.441734
0.441144
0.38804
0.394293
0.392926
0.000647301
0.000461715
0.00106036
0.00106039
0.000962471
0.000414864
0.000711517
0.000410365
0.00106049
0.000991484
0.000161511
0.00100893
0.000972717
0.000941946
0.000297472
0.000985833
0.000726155
0.00091818
0.00021426
0.00071546
0.000540351
0.000951565
0.00123169
0.00123193
3.81621e-05
7.29866e-06
0.000183935
0.00157622
0.120582
2.30172e-06
0.286004
0.457901
0.48407
0.518575
0.597533
0.711078
0.776891
0.756277
0.797019
0.734293
0.782701
0.823158
0.778543
0.774897
0.00123248
0.000909329
0.00101
0.000849207
0.000995422
0.00120054
0.000757134
0.000798671
0.00120054
0.000963972
0.000964985
0.00100947
7.69537e-05
1.14836e-05
0.00089453
0.000443603
1.4277e-05
0.000656439
0.00098774
0.000236686
0.000248866
0.000773084
0.00096459
0.000795867
0.00146824
0.00100958
0.242125
0.244676
0.164431
0.178178
0.0559717
0.0788636
0.0173234
0.0159686
0.0151265
0.0166957
7.32265e-05
0.000939703
0.0010005
0.000866856
0.000118438
0.000766005
0.0577096
0.0180635
0.0594457
0.062374
0.000516158
0.0002975
0.000341322
0.0008342
0.00030944
0.000950196
0.000717662
0.000602104
0.000980152
0.000764758
0.00124223
0.00073979
0.735951
0.731108
0.563359
0.467509
0.457731
0.442051
0.729826
0.641217
0.886014
0.957185
0.858703
0.787004
0.971319
0.956853
1.0214
1.07169
1.10245
1.09941
1.13122
1.10397
1.1592
1.18527
1.181
1.18034
1.19741
1.18215
1.1823
1.23281
1.17155
1.16657
0.283898
0.216021
0.354126
0.434642
0.220919
0.166154
0.225298
0.220072
0.0500409
0.0899886
0.000805317
0.103578
0.000337171
0.262302
0.206457
0.261373
0.259129
0.266941
0.161574
0.0630801
0.000904131
0.000382287
2.47521e-08
0.0205467
3.88854e-103
1.77911e-22
1.83125e-06
0.00100972
0.0279801
0.0231736
1.13123e-06
0.0413086
0.114284
0.0523911
0.159947
0.110619
0.150824
0.207251
0.242643
0.219969
0.253749
0.257825
0.268565
0.257625
0.279075
0.296428
0.301704
0.31526
0.317524
0.314918
0.355241
0.364533
0.347039
0.347201
0.350506
0.342185
0.355448
0.37515
0.41483
0.417507
0.378492
0.419152
0.410575
0.434709
0.475357
0.537582
0.566441
0.5689
0.585879
0.647959
0.738006
0.805257
0.819603
0.945186
0.817321
0.873255
1.02598
1.04468
1.04902
1.08249
1.13331
1.18096
1.19467
1.19442
1.22705
1.24933
1.28309
1.2778
1.27074
1.27409
1.28877
1.26443
1.19707
1.2584
1.22755
1.18189
1.17984
1.21637
1.2467
1.2542
1.18231
1.24485
1.19899
0.028696
0.0210102
0.0955847
0.170108
0.0588345
0.126661
0.258833
0.197478
0.221789
0.059984
0.000336416
2.98528e-06
0.000770968
0.0292155
0.0211408
2.43986e-05
2.10584e-05
9.37943e-16
0.000992957
0.00148671
0.00147818
0.000293237
0.000337357
0.00103637
0.010018
0.000871197
0.000902178
0.00112956
0.000831031
0.00126878
0.00126761
0.00086849
0.000172666
0.000695519
0.0014313
0.000981197
0.000836998
0.000478021
0.000315336
0.00058096
0.00101
0.00074909
0.00122807
0.000934557
0.000984534
0.000766519
0.000660221
0.000998234
0.000701989
0.00100779
0.000868975
0.00105268
0.000950826
0.000963101
0.000744326
0.00108642
8.44193e-05
0.00099613
0.000976554
0.000190759
0.000667295
0.000544652
0.000936558
0.000816347
0.000896147
0.000807474
0.000993967
0.000978339
0.000943996
0.000974885
0.00092222
0.000236465
0.00130897
0.000931942
0.00103836
0.000808146
0.00100962
0.000641972
0.000367709
0.000916152
0.000960434
0.000958816
0.000892128
0.000603126
0.000479733
0.768504
0.771695
0.755169
0.759508
0.686851
0.749901
0.556606
0.628059
0.518999
0.522103
0.464755
0.449282
0.39022
0.392146
0.30556
0.202496
0.1788
0.348326
0.390347
0.39125
0.392859
0.393176
0.0010602
0.000925495
0.00105996
0.000346396
0.000973634
0.000973647
0.00094649
0.000972052
0.00100548
0.000830393
0.000135327
0.000443538
0.00093376
0.000997208
0.00060297
0.00100999
0.00098232
3.53596e-05
0.000985985
0.000873381
0.000276721
0.000635504
0.000655599
0.00101
0.000321117
3.32274e-05
0.000168206
0.000956936
0.18552
0.0168462
0.322491
0.463692
0.430434
0.544206
0.709253
0.611252
0.688885
0.68832
0.681476
0.708742
0.766167
0.760001
0.764652
0.738544
0.000769413
0.000922585
0.000573493
0.000958878
0.000712787
0.000933944
0.000627141
0.000378515
0.00081501
0.000879841
0.000957505
0.00105257
0.000980656
2.68379e-05
0.000915771
0.000873917
0.00096514
0.000987798
0.000849722
0.00123233
0.000561664
0.00122732
0.00126088
0.000901385
0.00101
0.000860782
0.000668131
0.000489708
0.000136748
7.89195e-05
0.00098545
0.117033
0.117856
0.0814249
0.059621
0.0161628
0.0378389
0.00546175
0.00534118
0.160146
0.102135
0.0825376
0.000187204
0.000972288
0.000408908
0.00100989
0.00134765
0.00134741
0.000258318
0.000941228
0.0326509
0.000597151
0.0209105
0.00667126
0.000830286
0.000589356
0.000349619
0.000338929
0.000587295
0.00100971
1.30661e-05
0.00052455
0.000737284
0.000689738
0.000594218
0.000809643
1.3043
1.31327
1.3371
1.3202
1.35843
1.34614
1.36637
1.35802
1.41318
1.3977
1.36734
1.41877
1.37926
1.43628
1.27145
1.22425
1.23967
1.29074
1.27632
1.24196
1.24824
1.30237
1.30678
1.28169
1.26
1.31613
1.29709
1.31106
1.33476
1.17945
1.17977
1.17996
1.18061
1.19671
1.21571
0.781309
0.723296
0.622068
0.519641
0.433602
0.511882
0.709495
0.694165
0.934737
0.953841
0.848983
0.927878
0.966481
1.01091
1.06056
1.10388
1.10173
1.10347
1.1002
1.12955
1.14414
1.16752
1.15242
1.1568
1.15824
1.16816
1.14446
1.14116
0.336491
0.267959
0.220002
0.211479
0.266086
0.436703
0.405977
0.14134
0.19139
0.0799939
0.00500357
1.29081
1.3111
1.3297
1.33712
1.34075
1.35508
1.35601
1.38398
1.36644
1.37982
1.37998
1.42364
1.44702
1.47188
1.47191
1.47944
1.4922
1.51742
0.000809559
0.00065139
0.0013815
0.189991
0.0774568
0.246622
0.151984
0.0678136
0.00120729
0.000439025
0.00120648
0.00120758
0.000150505
0.00023971
0.000528206
0.000634227
1.56935e-49
6.10001e-120
0.0321426
0.000864525
0.000417998
0.0559999
0.0565327
0.0614044
0.109076
0.0680641
0.192629
0.146062
0.230205
0.196878
0.231424
0.251865
0.27827
0.306844
0.321484
0.327078
0.325802
0.313556
0.374752
0.362084
0.356807
0.355481
0.413672
0.38177
0.455201
0.413067
0.399772
0.441875
0.485895
0.479707
0.503834
0.536373
0.539087
0.486969
0.589462
0.625245
0.600934
0.57666
0.672681
0.744018
0.82075
0.887107
0.833297
0.851481
0.982492
1.03855
1.08514
1.06307
1.13322
1.16057
1.20137
1.22136
1.21593
1.22848
1.2859
1.27204
1.27148
1.28281
1.29144
1.28653
1.26915
1.26391
1.28252
1.28726
1.27851
0.0131125
0.00397777
0.0292179
0.000716486
0.000360219
0.000754015
0.00074546
0.0650941
0.00030015
0.000380875
0.000560205
0.000992538
0.000181728
0.000573964
0.00137975
0.000307489
0.000982843
2.60721e-05
4.28478e-05
0.00148402
0.000845481
0.00038011
0.000953162
0.000107799
0.000735431
0.00014751
0.000728231
0.000935794
0.00111156
0.000947455
0.0012666
0.000858877
0.00106986
0.000979824
0.000776109
0.00096702
0.000896738
0.000998449
0.00026155
0.000888291
0.00100984
0.000894905
0.00110911
0.000456998
0.000398457
0.000668916
0.00100238
0.000270015
0.000740386
1.79632e-09
1.7202e-06
0.00241141
0.000350275
0.00100904
0.000694792
0.000545923
0.000997667
0.000404114
0.00100993
0.000972649
0.000977525
0.000963111
0.000999516
0.000710253
0.00108785
0.000866907
0.000753634
0.00098799
0.000840646
0.00108795
0.00089779
0.000955844
0.000631827
0.000258775
0.000781792
0.000964465
0.000941166
0.000838222
0.00101
0.000334973
0.000769708
0.000685233
0.000978177
0.000925692
0.000935309
0.00091857
0.00091709
0.000695524
0.000567275
0.0019455
0.00021361
0.000674617
0.000835469
0.000997615
0.00194586
1.46965
1.43054
1.39248
1.50837
1.54155
1.54154
0.751467
0.753411
0.74506
0.735952
0.655621
0.7301
0.560131
0.479803
0.405213
0.422443
0.389882
0.392063
0.392457
0.391744
0.267426
0.187005
0.274127
0.356217
0.356485
0.00093523
0.000815338
0.000875173
0.000890082
0.000953234
0.0009764
0.000965395
0.000493094
0.000931051
0.000554111
0.00100943
0.0010397
0.000996305
0.000978028
0.000821862
0.016582
0.00100998
0.000498781
0.000128694
0.000927014
4.59314e-06
0.000273563
0.000921556
0.000785239
0.00052174
0.000783296
0.000978157
0.159199
0.2993
0.414606
0.411263
0.730663
0.651197
0.663461
0.450546
0.539546
0.627333
0.679907
0.680986
0.678448
0.69735
0.728339
0.719789
0.000738338
0.00112609
0.00062277
0.000982796
0.000760102
0.00074134
0.00100904
0.000845157
0.000733749
0.00089221
0.000817811
0.000932446
0.000763197
0.000957893
0.00100996
0.000988883
0.000835613
0.00101386
0.000980013
0.000896686
0.000921901
0.000824304
0.000770427
0.000953517
0.00101559
0.000999297
0.000329479
0.000973119
0.000966173
0.000973622
0.00101
0.000984843
0.000871643
0.000978065
0.000827832
0.00114011
0.000929797
0.118271
0.151195
0.140335
0.083414
0.0812134
0.052806
0.0745373
0.000227086
0.000859239
0.000278868
0.000919076
0.0875509
0.0727501
0.000406768
0.000936178
0.000612942
0.000962556
0.000490688
0.000432878
0.00086247
0.000136085
0.000356738
0.00065721
0.000378761
0.00107962
5.79952e-05
0.000680105
0.000702988
0.000420221
0.000653842
0.000551523
0.000693939
9.93495e-05
0.000358069
0.000994303
6.37245e-05
0.000979051
1.3043
1.32038
1.34435
1.35767
1.3642
1.36846
1.40683
1.37804
1.23377
1.23213
1.21614
1.23774
1.27556
1.23234
1.28012
1.25475
1.16457
1.15357
1.15409
1.18501
1.21603
1.18899
0.779375
0.705162
0.598198
0.689649
0.531565
0.442998
0.699376
0.69768
0.939389
0.945119
0.954788
0.858973
0.928543
1.04326
0.990475
0.9312
0.971974
1.076
1.08818
1.08496
1.08613
1.09708
1.1182
1.14445
1.13484
1.14139
1.14504
1.13822
1.14316
1.141
1.1391
0.186687
0.19643
0.327814
0.406406
0.198009
0.271537
0.421177
0.442702
0.172227
0.110527
0.034674
0.106216
1.32542
1.27428
1.30289
1.34905
1.34697
1.34918
1.3579
1.37842
1.39874
1.40457
1.40806
1.41069
1.43209
1.47322
1.45592
1.47726
1.49377
1.54452
1.51717
1.3556
1.36213
1.37777
1.54423
1.54708
1.54845
0.00138026
0.00138002
0.00137991
0.0003458
0.000715382
0.0124878
0.000800576
0.000929551
0.000692516
0.000659527
0.000757232
0.000881632
0.00065264
0.00122543
0.000625722
0.00122539
0.000969713
4.78051e-06
0.000832287
2.59246e-09
0.00178046
0.00101433
0.0586227
0.000950924
0.131671
0.160363
0.0965754
0.137605
0.190611
0.161981
0.286289
0.236882
0.298363
0.308512
0.314542
0.303776
0.362456
0.407508
0.441973
0.442892
0.444084
0.433339
0.456841
0.442645
0.490583
0.490201
0.517242
0.516475
0.499515
0.494884
0.617722
0.658123
0.559471
0.619422
0.672788
0.627233
0.737259
0.772909
0.877878
0.912274
0.891036
0.979681
1.03517
1.13304
1.11958
1.17929
1.15666
1.25439
1.25361
1.24713
1.28333
1.30778
1.30195
1.35849
1.32297
1.35727
1.32068
1.2997
1.33214
1.29402
1.34036
1.27262
0.000329187
0.000830338
0.000809039
0.000599838
0.000769361
0.000964183
0.00057408
1.30341e-06
0.00101
0.000199154
0.000200132
0.000512431
0.000152805
0.000632165
0.000515412
0.000348924
0.000894469
7.74916e-05
0.000302915
2.87121e-05
0.000124015
4.98173e-05
5.50518e-07
0.000289453
0.000978557
0.000869302
0.000999883
5.31112e-05
0.00110993
0.00111121
0.000977856
0.000995782
0.000992745
3.82214e-05
0.00101
0.000912008
0.0010004
0.000112849
0.00044385
0.000919656
6.47134e-05
0.000297927
0.00198975
1.68788e-05
0.000984734
7.34273e-05
0.0009581
0.000364482
0.000989043
2.5498e-05
0.000988067
0.00220055
0.000979749
0.000134455
0.000996865
0.00122333
0.00116562
0.000447044
0.00100983
0.000979813
0.000465046
0.000983408
0.000969573
0.000835887
0.00108784
0.00108768
0.000938621
0.000973416
0.0010877
0.00108778
0.000955402
0.000702439
0.000711032
0.000919589
0.00135998
0.000106643
0.00135972
0.000899199
0.00098702
0.000966821
0.000992009
0.0010023
0.00105706
0.00105711
0.000835662
0.000805878
0.000827454
1.23268e-05
9.12481e-06
0
0.000996439
0.000799517
0.000430028
0.000882672
0.00116553
0.000898711
0.00100958
0.00100997
0.000972467
0.000998553
0.000946811
0.000914726
0.00101
1.44737
1.42821
1.44305
1.44844
1.48415
1.58291
1.5644
1.56254
1.58972
1.52519
0.664926
0.646993
0.581773
0.58672
0.543562
0.571423
0.489594
0.437882
0.425564
0.389418
0.365897
0.367168
0.276172
0.289595
0.158296
0.198317
0.193524
0.000529692
0.000965684
0.000913493
0.00101
0.000975908
0.000917688
0.000585991
0.00137478
0.126009
0.000374116
0.000919443
0.000220381
0.000954139
0.000961382
1.6324e-06
0.000368616
0.00101
0.000973131
0.000926424
0.00102235
0.000849804
0.000992195
0.000944045
0.000847483
0.00025022
0.526167
0.529652
0.574087
0.271558
0.411809
0.411112
0.445757
0.571262
0.644926
0.602843
0.509396
0.592956
0.619384
0.626302
0.538343
0.57052
0.000957717
0.000986866
0.00112615
0.00103577
0.000579174
0.00084982
0.00101941
0.00119293
0.000974344
0.000990561
0.000160682
0.00193216
0.000971953
0.000936631
0.000510229
0.00293231
0.00293137
0.0029318
0.000685089
0.000971214
0.000969126
0.00101386
0.000857137
0.000942895
0.000899301
0.00100998
0
0
0
0.000959356
0.000920205
0.000959732
0.00100136
0.000954035
0.000464602
0.000956617
0.00108312
0.000999608
0.00097325
0.000341416
0.000950085
0.000929535
0.000975634
0.00085019
0.000953913
0.134937
0.143943
0.151157
0.0196063
0.0444779
0.00280128
0.00318103
0.000960618
0.000768972
0.000903655
0.000479969
0.00107745
0.00207745
0.000879223
0.000574159
0.000406739
0.000500025
0.000242686
0.000584634
0.000389242
0.000858502
0.000270985
0.000575667
0.000666396
0.000877991
0.0068594
9.50188e-05
0.00015786
0.00113541
0.000628341
0.00117951
0.000312228
0.000747328
0.000739263
0.000346646
0.00101
0.000942721
0.000637195
0.00113503
1.31696
1.26579
1.34593
1.30561
1.31198
1.34589
1.33364
1.40354
1.34316
1.40896
1.36599
1.35654
1.42105
1.38181
1.2011
1.19879
1.1901
1.20529
1.21669
1.2304
1.2295
1.2479
1.14312
1.13933
1.16545
1.14696
1.17866
1.19304
0.779153
0.703859
0.625257
0.702688
0.490982
0.583628
0.702117
0.709824
0.934153
0.928787
0.928846
0.860871
1.01875
1.06314
0.976346
0.930534
1.06897
1.07333
1.0837
1.07416
1.11327
1.13232
1.13802
1.14399
1.13868
1.137
1.14269
1.13671
1.13458
1.14033
0.189184
0.181806
0.348462
0.41725
0.324976
0.249565
0.477384
0.420666
0.146288
0.177112
0.152338
0.0663916
1.31082
1.37175
1.35025
1.36515
1.38205
1.37684
1.41325
1.41664
1.39201
1.40483
1.39758
1.40504
1.40914
1.43239
1.45427
1.47432
1.47889
1.53067
1.50445
1.55259
1.56384
1.42982
1.4428
1.55819
1.56619
0.000415286
0.000121957
0.000696944
0.000551543
0.000525579
9.41698e-05
0.000260243
0.00021449
0.00101
1.00585e-05
0.000927799
0.000258474
0.000626595
0.000657476
5.07035e-06
0.000780461
0.0017804
0.000542431
0.000872027
0.000687083
0.000546253
4.65793e-16
0.0451948
1.82036e-68
0.14942
0.150248
0.118943
0.0732016
0.187964
0.228987
0.283019
0.271086
0.304409
0.290608
0.403561
0.358042
0.455063
0.449377
0.473718
0.480983
0.44412
0.510714
0.549411
0.524582
0.512689
0.542461
0.58768
0.573532
0.548523
0.596457
0.687027
0.680931
0.681838
0.69437
0.825242
0.738337
0.911567
0.937591
0.935512
1.00258
1.07418
1.15347
1.16357
1.17374
1.22782
1.26813
1.31066
1.30338
1.34347
1.32143
1.37127
1.38507
1.38718
1.38638
1.38262
1.38446
1.36399
1.40649
1.33271
0.000849137
7.89591e-05
0.0064254
0.00102563
0.000692975
7.74287e-05
0.000686777
0.000538285
0.00079675
0.000685168
0.00101426
0.00127989
0.000487965
0.0012802
0.00127951
0.00127989
0.00128016
0.000994475
0.00128026
0.00627383
0.00100473
0.000638589
0.000184916
0.00207756
0.000412547
0.00207901
0.00207808
0.000419938
0.000287176
0.00100217
0.000993637
0.000687571
0.000857799
0.000782597
0.0010122
0.00104371
0.000779991
0.000959982
0.00100986
0.000887496
0.000962023
0.000984213
0.00178027
0.000984498
0.000146754
1.36216e-05
0.000607696
0.00096357
0.000988249
0.000479144
0.000826696
0.000957073
0.00100941
0.00031059
8.86951e-05
0.000987756
0.00100992
0.000817418
0.000560979
0.000837899
0.00101
0.000799183
0.000972723
0.000279366
0.000904827
0.00095865
0.000976047
0.000998751
0.000952709
0.000941374
0.000886752
0.00100949
0.00097168
0.000773375
0.000984106
0.000952799
0.000788147
0.00098992
0.000934564
0.000964099
0.000974876
0.000974485
0.00114047
0.000991123
0.000905098
0.000537626
0
0
0
0
0
0
0
0
0
0
0
0
0
0
0
0
0
0
0
0.00099334
0.000901067
0.000937661
0.000812305
0.000904974
0.000434354
0.00093059
0.00106795
0.000325168
0.000811332
0.00035232
0.000878445
1.61043
1.59979
1.6174
1.60819
1.61731
1.61584
1.46065
1.44768
1.52708
1.49024
1.59677
1.62177
1.58483
1.49237
1.43927
0.523241
0.523279
0.525009
0.510747
0.529039
0.456392
0.499479
0.289619
0.342767
0.208955
0.208989
0.152508
0.153846
0.15903
4.53839e-05
0.000884009
0.000495047
0.000982711
0.000934824
0.155771
0.000600055
0.000961728
0.000977449
0.000625545
0.000686377
0.000984192
0.000961616
0.000962997
0.00097202
0.000717645
0.000335301
0.000982828
0.00101064
0.000213436
0.00101064
0.000932938
0.0004632
0.000629343
0.528053
0.526875
0.526947
0.526332
0.531639
0.239831
0.352317
0.300354
0.415405
0.482196
0.500112
0.43424
0.517395
0.465841
0.473108
0.452672
0.000954778
0.00113974
0.000694161
0.000970576
0.000973219
0.000935143
0.000882641
0.00101527
0.000140913
0.000879385
0.00101406
0.000621493
6.92933e-05
0.000527482
0.000645705
0.000616055
0.000763669
0.000919235
0.000981988
0.00101582
0.000698237
0.000908374
0.000740767
0.000726241
0.000621516
0.00100972
0.000684552
0.000970938
0.000351873
2.15212e-05
0
0
0
0
0
0.000978181
0.000983105
0.000968882
0.00116632
0.00107534
0.000940096
0.00080046
0.000977579
0.000975435
0.000944306
0.000977372
0.000845929
0.000979339
0.000967902
0.000787048
0.00089515
0
0
0
0
0
0
0.126709
0.0632339
0.0493482
0.000617267
0.000212401
0.000705021
0.000800268
0.000960083
0.000791447
0.000311719
0.00100956
0.000855623
0.000375808
0.000550644
0.00033854
0.000760208
0.000752664
0.000795758
0.000905726
0.000971356
0.000997473
6.51335e-05
0.00199881
0.000490829
0.000486704
0.000727273
0.000634249
0.000404769
0.000958393
0.00027789
0.000630622
1.31742e-05
0.000467482
0.00182785
0.00182987
0.0007022
0.000959699
0.000281529
0.000798649
0.00100972
0.000818552
1.25919
1.2602
1.28207
1.28355
1.28839
1.28896
1.34863
1.34641
1.34553
1.31903
1.41975
1.36636
1.35539
1.19038
1.19045
1.21931
1.20682
1.23069
1.23057
1.25886
1.23871
1.14045
1.14984
1.17582
1.15331
1.17151
1.18
0.820421
0.741887
0.666096
0.703419
0.6479
0.548611
0.743065
0.703787
0.935236
0.935133
0.893271
0.938501
1.02601
1.07457
0.936755
0.987277
1.07858
1.0736
1.09537
1.07859
1.11929
1.1347
1.14293
1.13585
1.1359
1.13841
1.13853
1.13351
1.14015
1.13443
0.178918
0.237525
0.420534
0.401186
0.325156
0.406564
0.426763
0.500527
0.171565
0.157471
0.157444
0.0830648
5.3971e-05
0.000103916
0.0409387
1.38745
1.40781
1.41424
1.41435
1.43603
1.43982
1.45294
1.44455
1.48529
1.45904
1.47472
1.43904
1.4712
1.48376
1.50747
1.52684
1.54057
1.53732
1.58695
1.58764
1.60914
1.58465
1.50233
1.50508
1.62399
1.62471
0.00016622
0.000334169
0.00101
8.39374e-06
0.000729054
0.00122423
0.00122396
0.000973213
0.000305007
0.000144869
0.000161953
0.00191825
0.00123531
0.000491206
0.000822227
0.000856626
0.00100232
0.000626775
0.000320397
0.000824137
8.63116e-05
0.000995528
0.000340771
0.0135369
0.000596308
0.0911679
0.168009
0.0476788
0.270865
0.205826
0.287501
0.280604
0.372964
0.306578
0.428542
0.468101
0.46576
0.466363
0.595792
0.559834
0.530704
0.579501
0.604309
0.595161
0.593273
0.578994
0.601478
0.602909
0.681123
0.719951
0.759467
0.711747
0.76103
0.785626
0.923748
0.855788
0.949913
0.935164
1.01259
1.09081
1.17923
1.17365
1.2132
1.2449
1.321
1.31423
1.33251
1.34011
1.36853
1.3779
1.39774
1.38861
1.40676
1.39995
1.39006
1.40615
1.39545
1.38806
0.000972802
0.000864682
0.00101
0.00067133
0.000955788
0.000657298
0.000566723
0.000800737
0.000642839
0.00127991
0.000350626
0.000777264
0.000295436
0.00128005
0.00128013
0.0012792
0.0012802
0.00127984
0.00127914
0.000315515
0.000371652
0.00100461
0.000689527
0.000938422
0.000788581
0.00100179
0.000949152
0.000997704
0.000180038
0.000954666
0.000624923
0.00101
0.000209386
0.000616187
0.00100863
0.00104372
0.000661769
0.000881619
0.000973825
0.00355986
0.000110816
0.000210438
0.00024578
0.00100992
0.000871155
6.51125e-09
0.000988323
0.00100983
0.000265494
0.000848872
0.00100647
0.000131712