/*--------------------------------*- C++ -*----------------------------------*\
  =========                 |
  \\      /  F ield         | OpenFOAM: The Open Source CFD Toolbox
   \\    /   O peration     | Website:  https://openfoam.org
    \\  /    A nd           | Version:  8
     \\/     M anipulation  |
\*---------------------------------------------------------------------------*/
FoamFile
{
    version     2.0;
    format      ascii;
    class       volScalarField;
    location    "4380";
    object      nut;
}
// * * * * * * * * * * * * * * * * * * * * * * * * * * * * * * * * * * * * * //

dimensions      [0 2 -1 0 0 0 0];

internalField   nonuniform List<scalar> 
526318
(
0.000198403
0.000285491
0.000238779
0.000239063
0.000231518
0.00016786
0.000269788
0.000323914
0.000254858
0.00036162
0.000325736
0.0004416
0.000291841
0.000154127
0.000286953
0.000204915
0.000312772
0.000239766
0.000142483
0.000175979
0.000166702
0.00016393
0.000379946
0.00017867
0.000565871
0.000293576
0.000251128
5.95227e-05
0.000254585
0.000161995
6.74939e-06
0.000123181
3.95953e-05
9.45093e-05
0.000246854
0.000261186
0.000310484
0.000209293
0.000225339
0.000260842
0.000192282
0.000260907
0.000308816
0.000748912
0.000576947
0.000439305
0.000228863
0.00033089
0.000226215
0.000270766
0.000265968
0.000203611
0.000191106
0.00023343
0.000325214
0.00057635
0.000684571
0.000684748
0.00025855
0.000334473
0.000307035
0.000263574
0.000272484
0.000176538
0.000165256
0.000290232
0.000154897
0.00021607
9.93078e-05
0.000132139
0.000264047
0.000198179
0.000149764
7.69495e-05
0.000114364
8.86841e-05
8.40368e-05
6.32488e-05
6.91463e-05
9.27037e-05
7.80846e-05
6.13108e-05
7.20547e-05
0.000111649
0.000118182
2.61884e-05
6.21381e-05
6.2155e-05
9.53544e-05
5.86582e-05
0.000106153
4.4275e-05
5.45339e-05
7.1697e-05
7.16536e-05
3.55847e-05
8.1224e-05
8.51867e-05
4.03435e-05
5.25111e-05
0
0
0
0
1.11686e-05
0
0.000313016
0.000112844
0.0004657
0.000235345
0.00052428
0.00053274
0.000361307
0.000669521
0.000391944
0.000335083
0.000290057
0.000284753
0.000174834
1.82439e-05
6.61508e-05
5.90656e-05
3.43155e-05
3.65648e-05
4.23223e-05
4.2956e-05
5.37002e-05
4.95671e-05
3.46757e-05
4.54895e-05
7.53399e-05
4.99866e-05
4.73766e-05
4.83423e-05
6.72468e-05
2.39836e-05
1.61017e-05
4.37439e-05
7.20772e-05
3.9559e-05
3.65575e-05
8.4562e-05
6.15709e-05
8.79316e-05
5.83212e-05
6.33152e-05
5.15262e-05
8.06717e-05
2.06666e-05
5.32583e-05
6.27287e-05
3.83402e-05
0.000107993
0.000107641
3.60239e-05
8.9876e-05
5.42959e-05
0.000106141
3.99228e-05
5.22614e-05
3.07534e-05
7.31302e-05
7.53327e-05
0.000124053
0.000303571
8.95444e-05
0.000315347
0.00012096
8.24591e-05
7.43821e-05
8.67541e-05
6.41783e-05
9.52114e-05
4.65188e-05
8.9618e-05
8.98192e-05
2.84573e-05
4.06402e-05
9.20837e-05
5.783e-05
7.31722e-05
3.77473e-05
7.34421e-05
3.79461e-05
4.09243e-05
5.09622e-05
4.61259e-05
6.65833e-05
5.64671e-05
8.68842e-05
6.23859e-05
8.40871e-05
7.53831e-05
0.000133471
2.70426e-05
2.06761e-05
7.72173e-05
1.20502e-05
6.30888e-05
3.92243e-05
1.80264e-06
6.23882e-05
3.62542e-05
5.27409e-05
5.38088e-05
4.86219e-05
5.33876e-05
1.33922e-05
5.93389e-05
0.000104274
0.00017459
0.000196595
0.0002283
0.00017645
0.000382109
0.000150171
0.000270592
0.000178652
0.000141963
0.000620226
0.000356784
0.000434581
8.05885e-05
0.000255825
0.000227692
2.13073e-05
0.000208418
0.000116088
0.000186742
1.84747e-06
0
0.00031444
0.000407081
0
0
0
0
0
0
0.000331386
0.000236305
0.000427809
0.000369877
0.000332378
0.000195979
0.000101229
0.000176665
0.000115295
0.000108893
4.4066e-05
1.57719e-05
4.53235e-05
7.7154e-05
8.63572e-05
2.13464e-05
0.000102031
4.65138e-05
5.45562e-05
4.70276e-05
2.61522e-05
6.8099e-05
0
0
0
0
0
0
0
5.88189e-05
0.000256487
0.000136531
0.000404301
0.000160274
0.000474041
0.000623025
0.000620943
0.000595462
0.00060786
0.000538146
0.00052807
0.000558926
6.56794e-05
8.76722e-05
5.8762e-05
7.59502e-05
6.92732e-05
4.61772e-05
4.01514e-05
6.02806e-05
3.36654e-05
1.60454e-05
4.17773e-05
1.27048e-05
5.4691e-05
4.69426e-05
8.16589e-05
7.11045e-05
5.98797e-05
5.01407e-05
5.01247e-05
1.87217e-05
1.78495e-05
3.141e-05
2.65417e-05
7.04056e-05
6.51868e-05
4.8307e-05
3.46215e-05
2.09627e-05
4.48535e-05
2.98297e-05
3.23069e-05
3.30713e-05
1.23783e-05
1.11928e-05
2.20232e-05
8.10168e-05
5.32942e-05
9.24561e-05
3.23305e-05
0.000180843
0.000180863
6.47513e-05
6.48845e-05
8.0612e-05
6.78657e-05
7.76009e-05
3.38474e-05
4.21629e-05
6.41158e-05
7.26694e-05
2.97935e-05
1.31285e-05
5.43442e-05
4.57821e-05
3.61698e-05
6.93809e-05
4.0699e-05
4.27967e-05
9.53213e-05
5.53019e-05
7.43538e-05
5.67924e-05
4.58317e-05
6.23026e-05
5.52391e-05
7.72049e-05
6.53471e-05
3.30807e-05
9.93316e-05
3.0659e-05
8.20847e-05
2.86869e-05
3.31876e-05
4.55128e-05
0.000104706
7.41601e-05
0.000103944
0.000106802
0.00012499
0.000117472
9.56494e-05
9.3198e-05
6.8051e-05
1.51607e-05
6.10658e-05
5.48115e-05
8.14558e-05
9.54288e-05
3.79975e-05
2.96435e-05
1.1382e-05
5.74568e-05
4.10812e-05
6.66113e-05
0.000118225
4.28521e-05
0.000145037
0.00020203
8.76624e-05
0.000131118
0.000232377
0.000379363
0.000214274
7.81851e-05
0.000224506
9.82906e-05
8.61274e-05
0.000286183
5.78362e-05
0.000236356
8.57176e-05
0.000353427
0.000304316
7.72266e-05
0.000104757
0.000210324
9.95255e-05
0.000144648
0
0
2.38565e-06
0
4.22416e-05
8.72373e-07
0
0
0
0
0
0
0
0
0
0
0.000383279
0.000323935
0.00046802
0.000453485
0.000237815
0.000205899
0.000153862
0.000143899
7.24316e-05
9.25247e-05
8.73384e-05
5.27691e-05
5.8907e-05
4.80166e-05
4.72776e-05
0.000117235
8.59518e-05
5.95505e-05
6.54158e-05
7.13041e-05
7.04152e-05
6.77378e-05
0
3.54646e-09
1.26336e-09
0
0
0
0
0
2.33704e-10
1.80579e-09
0
0
0
0
2.44397e-09
0
0
0
0
0
0
0
8.80289e-07
0
0.00023696
4.75565e-06
7.56465e-05
0.000316963
0.000205678
0.000339688
0.000591071
0.000327375
0.000500091
0.000645853
0.000569553
0.000577969
0.000505331
0.000488876
7.07574e-05
7.71381e-05
7.01497e-05
4.44404e-05
3.08583e-05
8.01214e-05
4.74845e-05
5.20669e-05
3.85751e-05
5.39179e-05
2.16465e-05
4.50638e-05
1.01309e-05
5.27532e-05
6.31545e-05
7.72518e-05
5.72932e-05
3.73815e-05
6.19297e-05
6.09583e-05
1.13848e-05
2.53455e-05
3.28834e-05
1.71217e-05
1.14386e-05
9.90437e-06
4.51081e-05
8.11271e-06
3.82793e-05
9.25168e-06
3.46681e-05
7.4702e-05
8.34487e-05
0.000179087
0.000152592
9.61406e-05
0.000126986
0.000204505
0.000106881
5.29944e-05
8.67927e-05
6.69211e-05
0.000159487
1.90581e-05
7.72525e-05
4.40199e-05
0.000241831
3.78854e-05
5.21453e-05
3.39332e-05
3.56442e-05
2.77043e-05
3.21452e-05
8.41211e-05
1.18252e-05
4.66143e-05
3.87481e-05
3.85528e-05
4.13261e-05
5.49542e-05
3.46383e-05
5.3266e-05
4.6131e-05
3.19986e-05
1.03315e-05
3.3555e-05
6.10429e-05
4.86333e-05
5.52658e-05
2.96175e-05
7.32523e-05
5.47298e-05
7.88163e-05
6.7979e-05
4.53977e-05
4.64001e-05
7.02128e-05
8.30179e-05
5.48174e-05
9.86999e-05
0.000160032
0.000126208
0.000119422
8.70224e-05
0.00010643
9.14253e-05
6.49024e-05
0.000132966
1.66281e-05
6.0575e-06
3.17289e-05
6.61785e-05
2.32791e-05
1.66305e-05
2.90523e-05
6.90175e-05
8.58704e-05
0.000111443
2.59821e-05
8.7505e-05
0.000111737
0.000154145
0.000148675
0.00016107
0.000107045
0.000189155
0.00012683
5.00581e-05
0.000121767
5.88213e-05
0.000174422
7.88277e-05
0.000301264
0.000185278
0.000148103
3.23943e-05
7.51973e-05
3.97326e-05
0.000172549
0.000139408
0.000270808
0.000273077
0.000171914
9.43249e-05
0.000149727
0.000135911
2.88516e-05
0
0
0
0
3.10142e-06
3.90825e-05
0
0
0
0
0
0
0
0
0
0
0
0
0
0
0
0
0
0
0
0
1.74667e-10
0
0
3.34222e-10
5.24061e-11
1.35035e-10
0
0
0
0
0
0
0
0
0
0
0
0
0
0
0.000290286
0.000302928
0.000347795
0.000355797
0.000195907
0.000216697
9.13473e-05
0.000151805
7.57766e-05
0.000108474
5.27286e-05
6.0062e-05
8.72964e-05
5.55228e-05
4.7601e-05
8.29482e-05
3.18854e-05
8.20749e-05
3.70621e-05
3.51239e-05
5.97952e-05
6.4996e-05
0
0
0
0
0
0
0
0
0
0
0
0
0
0
0
0
0
0
0
0
0
0
0
0
0
0
6.62094e-09
0
0
0
8.49641e-05
0
4.96548e-05
3.20956e-05
0.000297736
0.000119057
0.000289911
0.000206925
0.00030542
0.000233034
0.000111235
0.000455152
0.000384517
0.000345006
0.000365238
0.000324335
0.000253552
0.000246199
0
0
0
0
0
0
0
0
0
0
0
0
0
0
0
0
0
3.75855e-05
3.30898e-05
3.27995e-05
6.71394e-05
5.26262e-05
2.30324e-05
9.38992e-06
4.80918e-05
4.29817e-06
3.42773e-05
7.05257e-06
1.64155e-05
3.03999e-05
2.88477e-05
2.07158e-05
1.34519e-05
2.18692e-05
7.8507e-05
9.1933e-05
6.75395e-05
2.47001e-05
3.9372e-06
1.16858e-06
1.26904e-05
2.31033e-05
1.33682e-05
1.20378e-05
2.74279e-05
1.14166e-06
0
0
0
0.000224398
0.000154006
0.000219322
0.000302557
0.000202991
0.00016922
0.000322612
0.000260814
0.000296071
0.000289261
2.01228e-05
0.000197257
0.000165924
0.000214791
5.7747e-05
2.96441e-06
6.74068e-05
5.85011e-05
7.28024e-05
8.22385e-05
6.56998e-05
8.43879e-05
0.000112736
7.82924e-05
6.59906e-05
3.88211e-05
3.22429e-05
8.42672e-06
2.38313e-05
5.15303e-05
7.58041e-06
1.69419e-05
2.61941e-05
4.59906e-05
0.000144507
9.74375e-05
4.13828e-05
0.000176741
9.34328e-06
2.36899e-05
3.48552e-05
3.39972e-05
4.90287e-05
4.14009e-05
7.99647e-05
4.87816e-05
7.99965e-05
5.22646e-05
3.67419e-05
8.14763e-05
0.00011736
0.000124042
0.000151077
9.37261e-05
4.47265e-05
0.000102047
0.000113473
7.59723e-05
0.000146601
9.73011e-05
0.000122575
1.21766e-05
4.22857e-05
0.000136658
8.19297e-05
7.08075e-05
0.000117273
4.51744e-05
0.000121918
4.79403e-05
0.000131584
7.46637e-05
0.00013693
7.78527e-06
0.000135545
0.000159479
0.000143322
0.000191496
0.000170163
0.000278311
0.000260534
0.000209435
0.000307882
0.000271134
0.000351394
0.000330045
0.000357299
0.000324366
0.000302347
0.000401616
0.000316213
0.000288728
0.000298137
0.000215969
0.000266014
0.00023793
0.000187544
0.000169028
0.000171196
0.000226162
0.000204141
0.000170685
0.000217058
0.000225538
0.000232135
0.000164317
0.000243492
0.000210882
0.000228794
0.000177476
0.000235671
0.000178699
0.000223302
0.000204347
0.000241657
0.000241971
0.000168222
0.000101002
0.000167482
0.000180961
0.000163082
9.67058e-05
0.000107329
6.55759e-05
7.73786e-05
2.39418e-05
0.000105124
0.000115316
8.55715e-05
2.08838e-05
0
9.67352e-06
8.61762e-05
4.70532e-05
0
8.62101e-05
9.2567e-05
0.000116108
2.90786e-05
3.23882e-05
9.69048e-06
9.89279e-06
3.04724e-05
4.20644e-05
0
3.26022e-09
0
0
0
0
0
0
0
0
0
4.76075e-09
0
0
0
0
0
0
0
0
4.61366e-09
0
0
0
0
0
0
0
0
0
0
0
0
0
0
0
0
0
0
3.27111e-09
0
0
5.29492e-09
0
1.58776e-09
1.47577e-09
1.61671e-09
0
2.12674e-09
0
5.48961e-09
5.35726e-09
0
0
2.70271e-09
0
0
0
0
0
0
0
0
0
0
0
0
0
0
4.13955e-09
0
0
0.000206307
0.000241589
0.000168885
0.000114311
0.000124202
0.000149677
0.000124576
0.000115947
7.63111e-05
6.72474e-05
1.63395e-05
6.184e-05
7.55258e-05
7.79149e-05
3.10625e-05
7.01067e-05
5.48071e-05
4.20589e-05
4.84998e-05
3.36338e-05
1.8442e-05
3.65052e-05
0
0
2.3978e-09
1.30657e-09
0
0
0
0
0
0
0
0
0
0
0
0
0
0
0
0
0
0
4.89526e-09
3.58989e-09
0
0
0
4.29757e-05
6.58682e-05
5.10592e-05
0.000228054
0.000234132
0.000315419
0.000205438
0.000343501
6.26335e-05
0.000195967
0.000112323
7.96392e-05
0.000118295
5.81035e-05
7.0978e-05
4.08352e-05
7.33524e-05
3.89305e-09
0
0
0
0
3.48055e-11
0
0
1.04616e-10
0
0
0
0
0
0
0
0
0
0
0
0
0
0
0
6.20322e-08
1.20188e-06
3.01982e-05
1.25256e-05
7.03017e-05
7.72825e-06
2.1371e-05
3.9427e-05
3.05609e-05
1.49338e-05
1.42357e-05
3.57204e-05
1.72837e-05
1.263e-05
2.04424e-06
9.21714e-07
0
6.32926e-06
6.15316e-05
2.02479e-05
2.43097e-05
3.91698e-05
0
0
0
0
0
0
0
0
0
0
9.61783e-10
0
0.000315768
0.000293558
0.000270785
0.000202906
0.000244021
0.000194551
0.000291156
0.000269313
0.000321852
0.00024951
0.000315733
0.00032478
0.000195043
0.000179886
0.000162543
0.000158803
0.000196972
9.3133e-05
0.0001159
0.000121205
0.000188525
0.00018092
0.000199804
0.000130296
0.000125013
0.000114518
7.00865e-05
0.000114189
0.000142805
0.000163975
0.000157152
0.000161973
0.000249551
0.000219635
4.89799e-05
0.000105794
4.06555e-05
0.000110458
6.0372e-05
7.36006e-05
0
4.96557e-05
4.4886e-05
3.13618e-05
5.25291e-05
5.31564e-05
6.60223e-05
6.64301e-06
2.43781e-05
6.29123e-06
1.29767e-05
5.29241e-06
1.11852e-05
2.43283e-05
0
0
0
0
5.30417e-05
3.31313e-05
0
2.76352e-05
4.20506e-05
2.92865e-05
8.7756e-05
0.000112796
3.74359e-05
9.68873e-05
0.000131472
0.00010591
0.000135786
6.0038e-05
6.96407e-05
0.000123106
0.000145665
9.23946e-05
9.39273e-05
9.84566e-05
7.55206e-05
6.74636e-05
0.000120971
6.1081e-05
8.90123e-05
7.4382e-05
5.94271e-05
0.000113846
0.000126383
5.00195e-05
0.000153077
5.41857e-05
0.000122156
0.00010449
9.64543e-05
6.64422e-05
0.000124327
0.000253463
0.000288635
0.000176444
0.000179985
0.000259973
0.000231235
0.000376722
0.000282845
0.000354431
0.000387767
0.000338966
0.000334175
0.000255308
0.000273596
0.000220883
0.000217025
0.000225887
0.000259866
0.000229175
0.000242411
0.000212818
0.000235749
0.000141031
0.000191209
0.000215295
0.000208064
0.000109673
2.39904e-05
0.000179171
0.000120627
9.85047e-05
8.47123e-05
9.42764e-05
6.7682e-05
8.9655e-05
0.000118233
3.75856e-05
7.84233e-05
1.00656e-05
6.14469e-05
2.8893e-05
5.3847e-05
8.14897e-05
2.24546e-05
5.10976e-05
0.000223068
0.000226807
6.514e-05
1.02559e-05
0
0
3.09136e-05
2.47726e-05
0
0
2.89299e-05
0
1.75122e-05
3.47524e-05
8.56386e-06
3.15352e-05
5.46759e-05
3.68007e-05
0
0
0
0
3.27901e-09
2.45078e-09
0
0
0
6.45911e-09
0
0
0
0
0
0
0
5.65388e-09
0
0
0
0
0
0
0
0
8.78148e-11
0
0
0
1.5784e-09
0
0
0
0
0
0
0
0
0
0
0
0
0
0
0
0
4.80282e-09
0
1.57279e-09
0
0
0
0
0
0
0
0
0
0
4.59371e-05
0.000128842
9.23729e-05
0.000104075
9.55746e-05
0.000103045
5.86462e-05
9.45532e-05
2.10401e-05
6.93307e-05
6.47038e-05
9.46326e-06
4.69159e-05
7.40711e-05
6.1397e-05
2.83444e-05
4.0979e-05
5.43316e-05
3.85809e-05
4.2812e-05
1.74594e-05
3.11775e-05
2.52954e-09
0
1.47838e-09
0
0
0
0
0
0
0
0
0
0
0
0
0
0
0
0
0
0
0
0
0
0
0
7.68288e-06
2.58926e-05
3.94196e-05
5.4223e-05
0.000184873
0.000163347
0.000304403
0.000170085
0.000140965
0.000292756
0.000127524
9.5052e-05
6.40839e-05
6.66753e-05
9.8496e-05
1.03866e-05
5.2912e-05
7.39312e-05
0
0
0
0
0
0
0
0
0
0
0
0
0
0
0
0
0
0
0
5.13287e-10
0
2.22296e-08
5.20714e-08
0
0
0
0
0
0
0
4.15659e-08
3.02542e-05
1.65385e-05
5.50138e-05
3.23742e-05
1.81001e-05
3.23948e-05
2.97675e-05
2.89969e-05
4.51701e-05
5.1201e-05
3.59374e-05
0
0
0
0
6.06494e-08
5.10652e-08
0
8.79004e-06
4.2343e-05
1.05271e-05
1.04794e-05
2.16457e-05
0
0
0
0
0
4.0429e-09
0
0
0
0
0
0
7.11372e-05
0.00023818
9.90698e-05
8.20792e-05
0.000150408
2.44777e-05
6.7708e-05
0.000227175
0.000144035
0.000173198
0.000230936
0.000207808
0.000222755
0.000148819
7.75048e-05
0.000119871
0.000140353
0.000114254
0.000113108
0.000151395
9.71997e-05
0.000102285
0.000186506
0.000127333
0.00023573
0.000126252
0.000186127
0.000169717
8.3661e-05
0.000109012
7.97369e-05
0.000147645
0.000125852
0.000161851
0.000105979
0.00029833
0.000307658
0.000286136
0.000199086
0.000205873
0.000219744
0.000276167
0.000249894
0.000290011
0.000251011
0.000316728
0.000280126
0.000102994
0.000130233
0.000107549
0.000102632
0.000116692
0.000121731
0.000104611
0.000128608
0.000169569
0.000201092
0.000200098
0.000217254
5.50977e-05
8.87206e-05
0.000178311
0.000211795
0.000112295
0.000209606
7.09871e-05
0.000118075
5.70248e-05
0.000170088
0.000231933
0.0001087
0.000103371
7.01885e-05
3.15379e-05
3.1451e-05
7.47657e-05
2.52195e-05
7.29145e-05
0.000126519
0.000149677
0.00013403
0.00016844
0.000158355
0.000166963
0.000139136
0.000170647
0.000210923
0.000150429
0.000189872
8.29548e-05
0.00018332
0.000171367
1.95799e-05
0
3.17934e-08
3.10206e-05
8.03559e-06
2.57621e-05
5.49858e-05
3.01129e-05
7.28255e-06
1.00555e-05
5.86196e-06
7.0682e-06
0
0
0
0
0
0
1.68454e-05
5.2669e-06
0
3.84821e-05
8.64166e-05
7.05997e-05
1.24024e-05
0.00010701
5.32345e-05
4.36089e-05
7.89202e-05
7.80328e-05
9.98745e-05
5.59659e-05
0.000118297
7.17641e-05
8.81139e-05
7.24287e-05
6.06087e-05
6.65341e-05
0.000153277
3.84838e-05
9.4406e-05
0.000114331
5.81161e-05
6.68772e-05
8.43381e-05
0.000151725
0.000101592
0.000103558
3.86011e-05
9.14531e-05
0.000102288
0.000278759
0.000166141
9.82391e-05
0.000305967
0.000191044
0.000228618
0.000295782
0.000223863
0.000370148
0.000293232
0.000318948
0.000330036
0.000361865
0.000375446
0.000315158
0.000313075
0.000256037
0.000232199
0.000210584
0.000208193
0.000262855
0.000189516
0.000153017
0.000137027
0.000208254
9.39167e-05
0.000130362
0.000314853
0.000224779
0.000166555
0.000323254
9.95094e-05
0.000260829
0.000103127
1.4585e-05
3.76044e-05
0.000127704
1.63766e-06
8.53963e-06
4.57186e-05
0
0.000100823
2.48208e-05
0
0
0
0
0
2.37385e-08
0
0
0
0
3.87146e-05
0
0
0
0
0
0
0
0
1.98637e-09
2.12537e-09
3.45596e-09
0
1.86905e-10
0
0
0
0
0
0
0
0
0
7.01229e-09
0
0
0
0
0
0
0
0
2.78686e-07
0
0
0
0
0
0
0
0
0
0
0
0
6.08901e-09
0
0
6.67312e-10
0
0
0
0
0
0
0
0
0
0
0
0
0
0
0
0
0
0
0
0
0
5.63501e-08
0
0
0
0
6.87979e-08
0.000292176
0.000356768
0.000106473
0.000239745
0.000214238
0.00024416
0.000109565
7.30265e-05
0.00012159
9.19751e-05
0.000108829
6.24909e-05
4.92267e-05
5.66659e-05
3.97655e-05
5.21095e-05
4.05e-05
4.45727e-05
2.80738e-05
7.66978e-05
4.92732e-05
3.61081e-05
5.6855e-05
3.59772e-05
2.59735e-05
0
0
0
0
0
0
0
0
0
0
0
2.9436e-08
0
1.77889e-06
2.67661e-05
5.32938e-05
0
0
0
0
0
0
0
0
0
0
0
1.80125e-05
6.07265e-05
9.79161e-05
0.000194079
8.55484e-06
0.00010358
8.81835e-05
0.000215997
0.000179769
0.000177271
0.000188804
0.000175419
0.000139645
0.000133483
7.24977e-05
8.5988e-05
0
6.89337e-10
0
0
0
0
0
0
0
0
0
0
0
0
0
0
0
6.07887e-10
0
0
0
0
0
0
4.92045e-09
0
0
0
0
0
1.19283e-09
0
0
0
0
0
0
5.92774e-05
4.02193e-05
3.75259e-05
2.85578e-05
3.79124e-05
1.79616e-05
4.71257e-05
0
1.26578e-05
0
0
2.40789e-05
3.71161e-05
0
0
0
0
0
0
0
0
9.29743e-06
0
1.70461e-05
1.17461e-05
0
0
0
0
0
0
0
0
0
0
0
0
0.000168807
0.000104463
0.000176969
8.84835e-05
0.000175876
9.78876e-05
0.000301451
6.66046e-05
5.58641e-05
0.000154345
0.000209582
0.000115017
9.49108e-05
0.000169245
7.97279e-05
0.000200065
0.000105107
7.21697e-05
7.52083e-05
9.71753e-05
8.58015e-05
0.00017373
0.000306979
0.000280217
0.000258434
0.000306527
0.00022939
0.000173397
0.000265458
0.000309593
0.000204748
9.93037e-05
0.000292131
0.000273312
0.000184209
4.17708e-05
0.000253402
0.000226436
5.32584e-05
7.03379e-05
0.000131554
7.09548e-05
6.08587e-05
0.000104562
0.000228783
0.000330843
0.000182027
0.000310692
0.000235825
0.000132634
0.000146971
0.000134245
0.00015169
0.000105784
0.000148571
0.000163829
0.000150873
0.000139897
0.000177251
0.000131461
0.000192718
8.97236e-05
9.44774e-05
3.66746e-05
8.06556e-05
5.81403e-05
0.00010126
0.000202447
4.56282e-05
8.99656e-05
0.000169807
0.000107564
0.000167003
0.000127852
0.000162202
0.000166281
0.000181107
0.000143844
0.000179087
0.000210286
0.000106348
0.000174857
0.000250352
0.000173421
0.000149606
0.000167739
8.72601e-05
0.000206668
0.000183228
0.000201863
7.82012e-08
5.08612e-08
8.03156e-08
0
4.60528e-05
4.26948e-05
0
0
0
0
0
0
0
3.22639e-09
0
1.47962e-09
0
0
0
0
3.45707e-09
6.99891e-05
0.000140358
0.000117372
1.54517e-05
6.47445e-05
0.00010291
0.000105504
5.11391e-05
4.07125e-05
6.90917e-05
2.67545e-05
3.36199e-05
0.000103163
8.32882e-05
3.05183e-05
7.54134e-05
0.000204182
0.000135744
9.42349e-05
9.35909e-05
0.000109461
0.000106428
8.8319e-05
6.14831e-05
8.85444e-05
0.000119727
0.00012111
0.000128656
9.31906e-05
0.000153871
0.000134934
0.000152893
9.08741e-05
0.000273494
0.000173079
0.00037106
0.000273634
0.000199689
0.000404503
0.000296933
0.000351548
0.000338208
0.000330911
0.000299591
0.000251766
0.000268034
0.000212776
0.000170823
0.000112427
0.000189682
0.000106212
8.22976e-05
6.74913e-05
7.65124e-05
0.000132809
0.000235713
0.00026424
0.000220304
0.000261544
0.00049795
0.000313936
0
0
0
0
0
1.40502e-08
0
0
1.83996e-07
0
0
0
0
0
0
0
0
0
0
0
0
0
0
0
0
0
0
0
3.37979e-09
1.03572e-09
0
0
0
0
0
0
0
0
0
0
0
0
1.10114e-07
0
0
0
0
0
0
0
0
1.38958e-07
0
0
0
1.67136e-09
1.37806e-09
0
0
0
0
0
0
0
1.80639e-08
2.03002e-08
0
0
1.17656e-08
1.59509e-08
0
0
0
0
3.47514e-09
0
5.43214e-09
0
0
0
0
0
4.96967e-09
4.96969e-09
0
0
0
0
0
0
0
0
0
0
1.64691e-09
0
0
0
0
0
0
0
0
0.000329259
0.000340208
0.000255787
0.000202602
0.0001274
0.000195468
0.000267524
0.000224528
0.00021543
0.000283026
8.81711e-05
6.78321e-05
9.26308e-05
0.000113796
8.00537e-05
5.99385e-05
4.32982e-05
9.60565e-05
3.71241e-05
7.57966e-05
4.19028e-05
2.70229e-05
5.16695e-05
3.57343e-05
3.88503e-05
2.28938e-05
3.56769e-05
0
0
0
0
0
0
0
1.61452e-05
7.95025e-05
2.76643e-05
0
0
0
0
0
0
0
0
0
8.49465e-11
0
0
0
0
0
5.47933e-05
7.83931e-05
1.08852e-05
0.00018597
2.63622e-05
0.000161112
0.000127466
7.61382e-05
3.10255e-05
0.000211589
0.000141471
0.00013123
0.0002064
0.000109853
7.18893e-05
0.000114526
0
0
6.27094e-10
2.77559e-09
0
0
2.77182e-09
7.74189e-10
0
0
0
2.05773e-08
0
0
0
7.04814e-08
3.6109e-08
2.04297e-08
0
0
0
6.66755e-10
0
0
0
8.43508e-10
0
0
0
0
0
0
0
0
0
0
0
0
0
0
0
0
0
0
0
2.81653e-05
1.70223e-05
2.85526e-05
5.62899e-05
4.63496e-05
6.08869e-05
1.72837e-05
0
0
0
0
1.09503e-09
1.4139e-09
0
0
0
0
0
0
0
0
0
0
8.63695e-06
0
3.48721e-05
5.57481e-06
0
0
0
2.7164e-09
0
0
0
0
0
0
0
2.44689e-09
0.000159889
0.000128791
7.33392e-05
0.000284315
0.000301498
0.000518256
0.000195587
0.000454478
0.00013474
0.000145008
0.000267672
4.00588e-05
0.000125591
4.069e-05
0.000218955
8.62507e-05
0.000166372
0.000130748
0.000116342
0.000150404
0.000197539
0.000129017
5.56785e-05
9.5614e-05
2.27375e-05
5.58567e-05
9.90284e-05
6.63983e-05
0.000269026
0.000308001
0.000247238
0.000348091
0.000175672
0.000268455
0.000255958
0.000332049
0.000224933
0.000132757
0.000182628
0.000292481
0.000100531
2.40967e-05
4.47339e-05
0.000130976
0.000110598
3.6278e-05
0.000140001
2.0057e-05
4.95821e-05
0.000285228
0.000201876
0.000364036
0.000387611
0.000377438
6.17517e-05
0.000181298
0.000186771
0.000352901
0.000110927
0.000179086
0.000124346
0.000200387
0.000177002
0.000101048
0.000238646
0.000140033
0.000100504
7.33687e-05
6.95918e-05
4.67484e-05
0.000278274
0.000356868
0.000104904
5.82939e-05
0.000168131
0.000161928
0.000184738
0.000150155
0.000188545
0.000161108
0.000213301
0.000231804
0.00015601
0.000215426
0.000129504
0.0002005
0.000160934
0.000129211
0.00015157
0.0002285
0.000189402
0.000188846
0.000249833
0.000245042
0.000215569
0
0
0
0
0
0
0
0
0
0
0
0
0
0
0
0
2.33282e-09
0
0
0
0
0
7.23132e-05
1.62228e-05
8.23504e-05
1.41259e-05
4.31818e-05
3.88144e-05
3.83348e-05
2.81399e-05
7.48958e-05
1.42314e-05
2.97715e-05
2.65906e-05
0.000110272
0.00010994
0.00010504
9.3204e-05
0.000186744
4.60638e-05
0.00018065
0.000129255
0.00012716
3.1284e-05
0.000110699
0.000108232
0.00013045
0.000157415
0.000145694
0.000121671
0.000246063
0.000147008
0.000198127
0.000175936
0.000244726
0.000327515
0.000402268
0.000237958
0.000368281
0.000251425
0.000345914
0.00031498
0.000302956
0.00024812
0.000269838
0.000111376
0.000181483
0.000113313
3.17057e-05
0.00013948
6.39783e-05
7.33341e-05
1.12304e-05
0.000149577
0.000127322
0.000203384
0.000587437
0.000313274
0.000387409
0
0
3.03139e-07
8.32022e-11
0
0
0
0
0
0
7.97451e-09
3.11574e-09
0
6.14757e-09
2.03012e-08
1.71451e-08
4.83547e-09
0
3.47001e-09
6.58851e-08
0
0
0
1.80663e-09
0
2.64327e-09
5.12925e-09
0
0
0
0
0
0
0
5.42332e-09
3.07654e-10
0
0
0
0
0
0
2.78324e-06
0
0
0
0
0
0
0
0
0
0
0
0
0
0
0
0
0
0
0
0
0
0
0
0
0
0
0
0
0
0
0
0
0
0
0
0
0
0
0
6.08603e-09
0
0
0
0
0
0
0
0
0
0
0
0
0
0
0
0
0
0
0
0
0
0
0
0
0
0
0
0
0
2.30237e-10
0
0
0
0
0.000200643
0.000115853
0.000169613
0.000189357
0.000294132
0.000146188
0.000141914
0.000317976
0.000243251
0.000215118
0.000251701
0.000291376
0.000243533
0.000239932
0.000137002
6.41326e-05
9.26355e-05
0.000127815
5.01447e-05
5.81308e-05
7.90811e-05
1.08478e-05
5.19982e-05
2.0245e-05
3.94963e-05
2.54686e-05
2.2534e-05
2.77126e-05
1.81615e-05
0
0
0
2.41116e-09
3.91376e-06
6.55929e-05
9.11577e-06
0
0
1.23776e-07
0
0
0
0
0
0
0
0
4.83454e-10
0
6.85728e-10
0
0
0
3.30524e-05
1.69239e-05
0.000117769
9.73889e-05
2.47051e-05
9.60602e-05
8.70729e-05
9.01102e-05
0.000135503
6.26146e-05
8.00484e-05
8.96022e-05
0.000142448
7.56791e-05
0.00011084
6.87833e-05
0
1.01467e-09
0
0
0
0
0
5.17831e-10
0
0
5.03341e-10
0
0
0
0
0
0
0
0
3.83704e-11
0
0
0
0
0
0
0
0
0
0
0
0
0
0
0
0
0
0
9.85585e-10
0
0
0
0
0
0
0
0
0
0
0
0
0
0
0
0
0
0
4.90559e-05
5.75275e-05
3.09731e-05
5.97381e-06
5.63358e-06
0
0
3.07196e-08
0
0
3.05526e-08
0
0
0
0
0
0
0
0
0
0
0
4.53659e-05
0
0
0
0
0
0
0
0
0
0
1.82549e-08
9.03098e-09
0
0
0
0
0
0
0.000342014
0.000265891
1.47861e-05
0.000889149
0.00010596
0.000746107
0.00044616
0.00104282
0.000628746
0.000314824
0.000489484
0.00027134
0.000312066
0.00013698
0.000202902
0.000153472
0.000118217
0.000202405
0.000123235
0.000139069
0.000137883
0.000150124
0.000145667
0.000102957
8.58085e-05
6.18491e-05
6.70041e-05
0.000281461
0.000294655
0.000193559
0.000314831
0.000251352
0.000197767
0.000330239
0.000248386
0.000172569
0.000109072
0.000291196
0.000209701
8.36243e-05
6.77954e-05
5.53457e-05
9.72757e-05
9.94998e-05
8.98259e-05
0.000141879
9.42573e-05
9.07259e-05
0.000431677
0.000143006
0.000340769
0.000124192
0.000197612
0.000166775
0.000169298
0.000153932
0.000268822
0.000161957
0.000112523
0.0002692
4.44561e-05
2.32705e-05
0.000239625
9.94672e-05
0.000173322
6.85491e-05
1.76276e-05
2.12748e-05
3.05783e-05
0
4.97052e-06
4.49058e-05
0.000164313
0.000150334
0.000201787
0.000230086
0.000160212
0.00016716
0.000127657
0.000180561
0.000126125
0.000209859
0.000266892
0.000197138
0.0001989
0.000224439
0.000219857
0.000219961
0.000176373
0.00018732
0.000214406
0.000140246
0.000244431
0.000199634
0.000170695
0.000233596
0.000203346
0.000112723
0
0
0
0
0
2.04502e-09
4.0504e-09
0
0
0
0
4.23509e-09
2.08488e-09
0
0
0
0
0
0
0
0
4.4729e-06
5.51633e-05
2.04078e-05
1.09129e-05
3.357e-05
8.64011e-05
1.8099e-05
0.000112854
7.93389e-05
5.77018e-05
1.09871e-05
5.44158e-05
5.57159e-05
0.000155068
0.00011523
0.00014919
0.000216564
9.3399e-05
0.000224052
0.000193894
0.000177937
0.000133688
8.15624e-05
0.000147392
0.000112036
0.000201883
5.05671e-05
0.000164843
0.000181139
0.000262386
0.000260348
0.000221584
0.000207345
0.000263988
0.000317372
0.000338908
0.000302052
0.000343119
0.000326505
0.000340468
0.000255389
0.000285382
0.000238306
0.000158308
0.000278765
0.000122943
0.000203642
0.00013668
4.21444e-05
5.13651e-05
0.000142663
1.14691e-05
0.000182267
0.000151071
5.13949e-05
0.000362357
0.000101411
0
0
3.35566e-09
0
0
0
0
0
0
7.48752e-10
0
0
0
2.29785e-08
1.00088e-08
6.71144e-09
1.44236e-08
4.83624e-09
1.86115e-08
0
0
0
0
0
0
0
0
0
0
0
0
0
0
0
0
1.42545e-09
0
0
0
8.08223e-08
0
0
0
0
0
0
0
0
0
0
0
0
0
0
0
0
0
0
5.24273e-08
0
0
0
0
0
8.27083e-10
2.14924e-10
1.19302e-09
0
0
0
0
0
0
0
0
0
0
0
0
0
0
0
0
0
0
0
0
0
0
0
0
0
0
0
0
0
0
0
0
0
0
0
0
0
0
0
0
0
2.21271e-09
0
3.07409e-10
0
0
1.10627e-10
3.73809e-09
0
0.000197704
0.000231733
0.000146947
0.000136108
0.000139272
0.000207635
0.000212407
0.000325997
0.00017002
0.000229141
0.000268864
0.000274936
0.000200713
0.000244718
0.000136612
0.000341096
0.000144135
0.000225088
0.000340766
0.0001365
2.17742e-05
3.7737e-05
0.000114072
5.57761e-05
3.55691e-05
4.04975e-05
4.44519e-05
1.85395e-05
2.33945e-05
5.10286e-05
3.91222e-05
3.51088e-05
2.41382e-05
0
0
2.76268e-05
4.45957e-05
2.65398e-06
0
0
0
0
0
0
0
0
0
0
0
0
4.78367e-09
0
0
0
0
0
0
0.000138321
7.60236e-05
0.000116192
7.91633e-05
3.79037e-05
7.83984e-05
7.4382e-05
5.0571e-05
9.56823e-05
0.000107041
9.19578e-05
0.000111193
7.94623e-05
0
0
0
0
0
0
6.68022e-09
2.21912e-09
0
0
1.28953e-09
0
0
0
0
0
0
3.61794e-07
0
0
0
0
0
0
0
0
0
0
1.58043e-08
0
0
0
0
0
0
0
0
0
0
0
0
0
0
0
0
0
0
0
0
0
0
7.37156e-09
0
0
0
0
0
0
0
0
0
0
0
5.00828e-05
1.45636e-05
4.98601e-06
0
0
0
0
0
7.1939e-09
0
0
0
0
0
0
0
0
0
0
0
0
0
0
0
0
0
0
0
0
1.28136e-05
0
0
0
0
1.95001e-09
0
0
0
0
0
0
0
0
0.000457519
0.000782958
0.00103171
0.000915763
1.71389e-05
0.000328609
0.000488908
0.00025769
0.000249643
0.000191093
6.85963e-05
0.000123459
0.000179803
0.000228271
9.78494e-05
0.000146637
0.000116812
0.000212683
0.000128626
9.7778e-05
0.000147316
0.000353186
8.3823e-05
8.4687e-05
4.0808e-05
0.000216469
1.55028e-05
0.000132182
0.000341837
0.00032976
0.00026127
0.000281956
0.000202299
0.00023613
0.000326366
0.000345927
0.000114301
0.000203753
0.000276282
0.00036602
6.80492e-05
8.83457e-05
0.000149313
9.73747e-05
7.86192e-05
0.000204297
1.44024e-05
9.74519e-05
0.000354837
0.000278256
0.000473311
0.000458993
0.000348477
0.000302629
0.000204087
0.000101922
0.000253844
0.000286474
0.000103865
0.000116612
0.000151804
0.000102234
9.69021e-05
0.000126226
0.000148498
0.000169426
7.30512e-05
4.95685e-05
0.000155517
5.03569e-05
2.14978e-05
5.02251e-05
0.000100437
0.00017421
0.000197603
0.000127633
0.000132725
0.000209616
0.000122599
0.000192077
0.000196425
0.000215675
0.000228127
0.000206564
0.000125884
0.000200135
0.000237936
0.000182849
0.000137643
0.000235546
0.000109861
0.000166551
0.000198199
0.000232097
0.000181461
0.000210027
0.000209993
0
0
0
0
0
0
0
0
0
4.81792e-09
0
0
0
0
0
0
4.01677e-09
0
0
0
0
0
4.02906e-05
5.34422e-05
0
9.33747e-05
3.85847e-05
2.35438e-05
0.000158741
6.6354e-05
4.14634e-05
0.000164936
0.000208344
0.00012669
0.000249492
0.000101036
0.000203911
4.10011e-05
0.000225707
0.000183941
0.000239721
0.000266377
7.42162e-05
5.28947e-05
7.65407e-05
0.000202756
0.000279254
2.85304e-05
0.000219803
9.781e-05
0.000244878
0.000269893
0.000223089
0.000156518
0.000269487
0.000254915
0.00032997
0.000300535
0.000286282
0.000347096
0.000273437
0.000335149
0.000359914
0.000164482
0.000300091
0.000180827
0.000208399
0.000115398
0.000134296
0.000109076
0.000157976
0.000117258
0.000111953
0.00012474
0.000229471
9.70214e-05
0.000112086
0.000151121
0
0
0
0
0
0
0
0
0
0
0
0
0
0
0
0
0
4.98478e-09
0
0
3.29597e-09
0
0
0
2.30537e-09
0
0
0
0
0
8.89862e-11
3.70166e-09
0
0
0
0
0
0
0
0
0
0
0
0
0
0
1.9761e-09
2.93318e-09
2.72386e-09
0
0
0
0
1.0501e-09
0
0
1.31847e-09
0
0
0
0
6.08539e-10
0
1.66509e-09
0
0
0
0
0
0
0
0
0
0
0
0
0
0
0
0
0
0
0
0
0
0
0
0
0
0
0
0
0
0
0
0
0
0
0
0
0
0
0
0
0
0
0
0
0
0
0
0
0
0
0
0
0
1.00459e-09
0
0
0
3.21215e-09
0
0
8.28928e-05
0.000123379
0.000274629
0.000140048
0.000177108
0.000160518
0.000213417
5.24535e-05
0.000143761
0.000216587
0.000283135
0.000333891
0.000271794
0.000185111
0.000204431
3.66895e-05
0.000274878
0.00027451
0.000156615
6.69839e-05
0.000435667
0.000321712
0.000260637
8.17028e-05
7.10201e-05
4.42679e-05
6.73488e-05
9.10494e-05
3.03569e-05
3.30252e-05
6.00007e-05