/*--------------------------------*- C++ -*----------------------------------*\
  =========                 |
  \\      /  F ield         | OpenFOAM: The Open Source CFD Toolbox
   \\    /   O peration     | Website:  https://openfoam.org
    \\  /    A nd           | Version:  8
     \\/     M anipulation  |
\*---------------------------------------------------------------------------*/
FoamFile
{
    version     2.0;
    format      ascii;
    class       surfaceScalarField;
    location    "4380";
    object      phi;
}
// * * * * * * * * * * * * * * * * * * * * * * * * * * * * * * * * * * * * * //

dimensions      [0 3 -1 0 0 0 0];

internalField   nonuniform List<scalar> 
788991
(
-0.0658979
-0.000710852
-0.0503452
-0.0597584
0.0156104
-0.0672425
-0.0195187
0.0534575
-0.0653312
0.0634151
-0.0580573
0.0990709
-0.0135393
-0.0808498
-0.084621
-0.0692333
0.0639989
0.00919306
-0.0951918
0.0757354
0.0351035
0.0321438
-0.047316
0.0380856
-0.0281585
0.0253121
-0.125125
0.104986
0.17166
-0.0193163
-0.00372858
0.0544138
0.0406299
0.0396313
0.0389572
0.0114364
0.0125733
-0.0154943
-0.069905
-0.0139776
-0.00381466
0.0107439
0.0176656
-0.0415993
0.0626238
-0.0188549
-0.0473905
0.0622702
0.000457823
-0.0638153
-0.0853143
0.0825087
-0.0594625
0.0235452
0.0641537
0.0185595
0.140635
-0.291699
-0.0803923
0.032728
0.0605551
-0.042825
-0.122482
-0.0177516
-0.0544672
0.0656306
-0.0205487
-0.0784964
0.0450906
-0.0109719
-0.0943753
0.0563239
0.345236
-0.242978
-0.089678
-0.350238
0.0373291
-0.0845225
-0.0268133
0.0708148
0.0853837
-0.0797584
0.0343606
-0.0213484
-0.0392488
0.0187712
0.0608629
-0.0512934
-0.0593208
0.0331671
0.0577806
0.0270951
-0.0393697
-0.0374356
-0.0380425
0.026864
0.0375858
0.0122457
-0.00946536
0.0310399
0.0146804
0.0264824
0.00265273
0.00518568
0.017359
-0.0027526
0.00334117
-0.0145674
0.0106738
0.000620357
0.00381037
0.00484098
0.0089598
0.00913603
0.00857176
0.00106559
0.00541235
0.00949601
0.00391784
-0.0178142
-0.0179015
0.00655313
-0.0219004
0.000613553
0.0202633
0.0347892
-0.00632676
0.0306754
0.0204885
-0.0236024
0.0882573
0
0
0
0
0.0337505
-0.0635834
-0.266963
0.0574383
0.0062752
0.195237
-0.0622943
-0.0500538
0.145668
0.227608
0.0575227
0.0939976
0.211128
-0.0362747
0.0346017
0.118603
0.0531827
0.0101679
0.0815086
-0.0552082
-0.0360029
0.0603768
0.0128686
0.0324797
-0.0141527
0.0200612
-0.0243201
0.0143645
0.0331018
-0.00483563
0.00827286
-0.0238529
0.0225772
0.0402799
-0.0146949
0.00972385
-0.0311676
0.0288654
0.0350555
0.0221092
0.0128562
0.0359167
0.0207929
0.0279785
0.00771294
0.01688
-0.0277284
0.0513285
0.0509276
-0.015104
-0.00105538
-0.0323907
0.0461301
0.068238
0.00688309
0.00485907
0.0575575
0.0550056
0.041225
-0.0104209
0.00396826
-0.0232127
0.0728804
0.0370694
-0.0410992
-0.00751865
0.0474173
0.0704851
0.070076
0.022839
-0.00335663
-0.0423935
-0.00359376
0.0149925
-0.0281459
0.0560403
0.0515238
-0.00688195
0.0541764
0.0648586
-0.0115997
0.058899
0.0586147
0.0509628
0.0175439
0.0244845
0.0197815
0.0323413
-0.00309647
-0.00542677
0.00601812
0.00578108
-0.0145366
0.010297
-0.0107086
-0.00969727
0.00621995
0.0134234
-0.00270085
0.00122172
-0.0117767
0.00804759
-0.00164812
0.0155902
-0.00630976
0.0174482
0.0135367
0.0217174
0.0295545
-0.00995003
0.0305275
0.0339643
0.0147859
0.0251706
0.0344441
-0.010073
0.0241643
0.0414448
-0.0141275
0.0226785
0.0593136
-0.0148212
0.0315191
0.0784692
0.0208133
0.0212444
0.0267807
-0.0230868
-0.00118265
0.0121819
0.0252677
-0.0210727
0.0265896
-0.0181921
-0.0177438
-0.00722546
-0.0295165
0.00925162
0.0378064
0.00868489
0.0226426
-0.0207152
-0.018246
-0.00973852
0.0200644
0.0023944
0.009268
-0.0335663
0.0567791
-0.0535291
0.00705842
-0.04045
-0.0817307
0.0698899
-0.0776968
-0.0804091
-0.0624293
0.00559227
-0.050753
0.138674
-0.160108
0.092178
0.0116312
-0.00500075
-0.0410308
-0.0649297
-0.0122502
-0.0544256
-0.0455993
-0.038287
0.00120354
-0.0160787
-0.0796377
0.0377516
-0.67472
0
-0.0600414
0.0442905
0.455929
0.355132
0
0
0
0
0
0
0
0
-0.0214491
-0.0848511
0.0607584
0.0254086
-0.0848515
0.0929905
-0.0715166
-0.0242949
0.060353
-0.028344
-0.00928399
-0.0307792
-0.00897923
0.0155494
0.0267244
-0.00803319
0.020784
0.00440711
0.00825322
0.00818819
0.0108868
-0.00143805
0.0149052
-0.0104259
-0.0148742
0.0198471
-0.0323357
-0.0120848
0.0247088
-0.0288135
-0.0150801
0.024093
-0.0234457
0
0
0
0
0
0
0
0
-0.0301547
0
0.0783392
-0.116551
0.0265312
-0.0300489
0.178595
-0.0854452
-0.0132258
0.163831
0.179833
0.0513392
0.0886468
0.196154
0.0734449
0.0299034
0.151824
-0.0994629
-0.0726579
0.121259
0.128611
-0.0213242
0.0160824
-0.04171
-0.0250865
0.00855437
0.0392217
-0.0280611
0.00440359
-0.042675
-0.0146099
0.0168799
-0.042225
-0.0181536
0.00474812
0.0145156
-0.0297275
-0.000654621
-0.0210148
0.0068257
-0.0467953
0.0425138
0.080076
-0.0183823
0.000223328
-0.0532184
-0.00478084
-0.0239897
-0.00427609
0.00856153
0.0046402
0.0293369
0.0351695
0.0085292
0.0035208
0.00315386
-0.025757
0.0355313
0.0237761
0.00504666
0.000875883
-0.0233558
0.00575516
-0.0187514
-0.0332367
-0.0364919
0.00098179
-0.0233564
-0.0545892
-0.0015954
0.0382337
-0.0104466
-0.0370404
0.0241518
0.00479343
0.0330896
-0.00309944
-0.041671
-0.0378966
0.0503611
0.0322772
-0.0356491
0.0268246
0.0263048
-0.0168318
-0.00313903
0.0132499
-0.00409633
-0.0174868
0.013212
-0.0154093
-0.0236785
0.00814979
0.0184399
-0.029712
-0.0187661
-0.00839642
-0.00186151
0.00241605
-0.0110963
0.0124768
0.00187172
-0.000540005
-0.0133131
0.0301638
0.00492007
0.0355186
0.0461801
-6.76192e-05
0.03457
0.0343205
-0.00721791
0.0350446
0.0334203
-0.0127143
0.0301157
0.0518538
0.0188586
0.00799384
0.0652907
-0.0301975
0.0047161
0.0251976
-0.0316347
-0.000278145
0.0188823
-0.0173768
0.00186423
0.0251284
0.035772
0.0203744
0.0646961
0.0305946
0.0442436
0.0826428
0.0256096
0.0790309
0.0283289
-0.0233333
0.0593129
0.0527357
-0.0121993
0.0407692
0.00935982
0.00825339
0.012776
0.00573981
-0.0295622
0.0108884
-0.0498199
-0.00381058
0.0212367
0.00727456
0.00509369
-0.0114963
0.0516806
-0.0153945
0.000249101
0.0135985
0.014111
0.00891128
-0.018727
-0.039373
0.0424626
-0.0111145
-0.0387956
-0.0327545
0.0268598
-0.0626868
0.0474446
0.0161285
0.00195879
-0.0556726
-0.0327071
0.0110299
-0.0196422
0.106951
0.0989864
-0.0949752
-0.0892467
-0.142486
0.102132
0.168227
-0.0655293
0.0277695
-0.0494342
-0.0137693
-0.0365178
0.0325421
-0.0107298
-0.0369726
0.0188567
0.0174816
0
0
-0.100106
0
0.00829857
0.0420832
-0.0498899
-0.074806
0
0
0
0
0
0
0
0
0
0
0
0
0
0
0.00395544
-0.0874891
0.082932
0.0483375
-0.0859705
0.10666
-0.0406841
-0.00197439
0.0514611
-0.00157632
0.0188936
0.0320092
-0.00879761
0.0341974
-0.0220862
0.00428042
0.0234531
0.0157088
-0.00641085
0.0179683
-0.0170095
-0.00967643
0.0142283
0.0339027
-0.0140759
0.0288053
-0.0275187
-0.0204777
0.0250407
0.0239947
-0.0278251
0.00333788
0.032876
-0.000145863
0
1.47054e-05
0
0
3.93322e-05
-2.39941e-05
0.000156673
-6.14947e-06
4.10973e-06
0
-6.96911e-05
0
0
0
0
6.52292e-05
0
0
-4.34561e-06
0
0
0
0
0
0
0
0
0.011506
-0.0179374
-0.191214
0.0473021
-0.126661
-0.112357
-0.0357127
0.0513035
0.109571
-0.0814401
0.00965589
0.109408
0.115104
-0.0568915
0.0565467
0.152275
0.0921317
-0.0190319
0.146873
0.117391
-0.0610518
0.0902063
0.110739
-0.0303443
0.00770944
0.0451001
-0.0345184
0.00543578
-0.0359985
-0.0424919
0.000404734
0.0435346
-0.0353027
0.0095164
-0.0369766
-0.017766
-0.00807126
-0.0326724
-0.0321325
0.0101887
0.00852116
-0.0212066
-0.00856984
0.0425019
0.00948485
-0.0315386
0.0870966
-0.0252016
-0.00273031
0.025191
-0.0123421
0.0131695
0.0498684
0.0111124
0.00994496
0.0168605
0.00762318
-0.013388
-0.00242428
0.023033
0.00575662
0.000790633
0.00341139
0.028337
0.0456698
-0.0292342
0.00456709
0.00871348
-0.0411639
-0.0863834
-0.0356038
0.0328968
-0.041464
-0.00941626
0.00349712
0.0405521
-0.0876031
-0.0253661
0.0507889
-0.0216869
-0.00926852
0.00113117
-0.0497135
-0.0350581
-0.0147147
-0.0330233
0.0282985
-0.00227297
-0.000812472
-0.0187119
0.00820613
0.00645797
0.0157001
-0.0143091
0.0301142
0.0367946
-0.0256438
0.00331387
0.000711475
-0.00583782
-0.0122652
0.00592909
-0.0161729
-0.0294586
0.0233943
-0.0173475
-0.0183273
-0.0150994
0.0169183
0.0131637
0.0332761
-0.00400826
0.00865363
-0.0110621
-0.00672743
0.0262797
0.016967
-0.0333538
-0.0058271
0.0327712
-0.0042963
0.0263637
0.0192309
-0.0108269
0.0267674
0.0371109
-0.0112829
0.0294912
0.0380562
-0.0282682
0.0210256
0.0402781
-0.0301022
0.0204276
0.0450237
-0.0299728
0.0213799
0.032493
-0.0320741
0.0555495
0.0658853
0.0299153
0.0532634
0.0951444
-0.0166568
0.0214864
0.0683757
-0.0150608
0.0605839
0.0265144
0.0109745
0.0732384
-0.00208967
0.0184892
0.0170028
-0.00419652
-0.00757791
0.010219
-0.0292404
-0.00433162
0.000849955
0.00492636
0.00478794
0.0173032
0.0331687
-0.0128336
0.0245976
0.0240476
-0.00984603
0.0292689
0.0157901
-0.042669
0.0446128
-0.00359967
0.0487063
0.0604298
0.0176513
-0.000859059
0.0423192
0.0139321
-0.00736059
0.0263481
0.0225
0.0265286
-0.0180431
-0.0390112
0.0315878
-0.0162323
-0.0640916
-0.020333
0.00482222
0.00502319
-0.0133912
0.00987527
-0.00916053
-0.120399
0.0912914
0.127935
-0.0547883
0.0134101
0.021513
0.00769899
-0.055887
-0.0140169
0.00393866
0.0415254
0.0128173
-0.0309913
0.0139332
0.0448804
0
0
0
-0.0420654
0
0
-0.00816818
0.0201756
0.0819859
0
0
0
0
0
0
0
0
0
0
0
0
0
0
0
0
0
0
0
0
0
0
0
0
3.55204e-05
0
-7.28456e-06
0
-6.41609e-06
-9.81229e-06
5.11883e-06
0
1.21283e-07
-2.73275e-06
1.52271e-06
0
1.40348e-07
0
0
0
0
0
0
0
0
0
0
0
0
0
0
0
0
0
0.0174409
-0.0490331
-0.0705559
0.0445067
-0.0480549
0.0817252
-0.00923333
0.0244216
0.0430862
0.00540946
0.0402469
-0.0286175
0.00773668
0.0317687
-0.0280424
0.00217646
0.0237819
0.0149162
-0.00270943
0.0184998
-0.0250907
-0.00392201
0.0309597
-0.0231339
-0.0145035
0.0116613
0.0232545
-0.0200264
0.0106919
-0.01138
-0.0212739
-0.0370724
0.00302042
0
0
0
0
0
0
0
0
0
0
0
0
0
0
0
0
0
0
0
0
0
0
0
0
0
0
0
0
0
0
0
0
0
0
0
0
0
0
0
0.000169231
0.000224403
0
0
0
0.0169627
0
-0.23581
9.15265e-06
0.148823
-0.0018006
-0.11578
-0.0487362
-0.0845581
-0.0978905
-0.0574254
-0.0385306
0.0384473
-0.0853379
0.0150856
0.0626402
0.0478919
0.0424546
0.0151726
0.110022
-0.0686383
-0.0264206
0.0812035
0.0738449
-0.0347855
0.0421791
-0.0592552
0
0
0
-1.2574e-06
0
0
0
0
0
0
0
0
0
0
0
0
0
0
0
0
0
0
-0.0213379
0.0208076
0.0229971
-0.0148695
0.000114207
0.0293411
-0.0317821
0.0123973
-0.029152
-0.0282716
0.00505189
-0.0242474
0.00922842
0.0257672
-0.0239891
0.0059636
-0.00851401
0.0140113
-0.0790762
0.0172767
0.0182206
0.0373628
0.00136242
0.00707373
0.0231644
-0.0158863
0.0244681
-0.0780941
0.0199618
0.0986305
0.0425898
-0.0294661
-0.00452062
0.00857589
0.0366843
-0.0156751
0.00809326
0.0146133
0.0208052
-0.0443851
-0.0516852
0.0029438
-0.0469284
-0.0279489
-0.0102292
-0.0230029
-0.00329788
0
-0.059429
0.119356
0.0330127
-0.0509514
0.0334556
-0.0612913
-0.086459
-0.0363564
0.0608647
-0.0733471
0.102361
-0.0539427
0.0450337
-0.0892182
-0.0459869
0.0490909
-0.104207
-0.0612129
0.0581139
-0.00385954
-0.00982252
0.00791205
-0.0356471
-0.0389272
0.00425271
-0.00892839
-0.0263806
0.112222
-0.0271829
0.0165122
-0.0531436
0.0292988
-0.0149498
-0.0292024
-0.000541196
0.00893357
-0.0139806
0.00147489
-0.0032307
-0.00238823
-0.00566223
0.0161279
0.0211072
-0.0143932
0.00263951
-0.0113366
-0.00272884
0.00685093
0.0155997
-0.0125343
-0.00372562
-0.0234975
0.0159417
-0.0224695
0.00763539
0.00229839
-0.0188078
-0.0323418
0.0370217
0.0357321
0.00618656
0.0293541
0.0386435
0.0133691
0.0359073
0.0330409
0.0432428
0.0158266
0.0387665
-0.025155
0.00212504
0.0488861
0.0312927
0.0223637
0.0862672
-0.0575751
0.0455499
0.0910697
0.0513983
0.0275033
0.0619874
-0.0369365
0.0222521
0.0461821
0.0272556
0.02418
0.0626731
0.0340357
0.036906
0.0111535
0.00440586
0.0696049
0.0364327
-0.0151222
0.0114732
0.000745012
0.0138887
0.0322321
0.0346874
0.0126805
0.0364809
0.0428133
-0.0136331
0.0286517
0.0384522
-0.0300054
0.0255499
0.0366073
-0.00195731
0.0569636
0.0111974
-0.0468793
0.0645283
0.00628117
-0.0386762
0.105073
0.0205115
-0.0416978
0.103211
0.0463737
0.0599524
0.113205
0.0238059
0.0326983
-0.0665904
0.0563677
-0.0706588
0.103887
-0.0425718
0.0403253
0.0749773
0.0302212
0.108138
0.0365536
-0.0597282
0.0430828
-0.0520661
-0.00597563
0.0182777
-0.0462298
0.042289
-0.042389
-0.00271241
0.00228767
-0.0405509
0.0420285
-0.0365858
-0.00463832
0.00125857
0.0468992
-0.0229065
-0.0429481
-0.0231452
-0.00827598
-0.0475745
0.00873308
-0.0464778
-0.0308633
-0.0197015
-0.0464897
0.00342713
-0.0412664
0.0453466
-0.0323575
-0.0414369
-0.0385443
0.014271
0.0134912
-0.00423452
0.0242039
-0.0154336
-0.0526932
0.0373736
-0.00255104
-0.00894252
-0.022976
0.0141973
0.0175273
-0.012774
-0.0277299
-0.0950528
0.0337774
0.0158628
-0.077096
-0.00542434
-0.0258054
-0.0867425
-0.0368936
-0.0346663
0.0446615
-0.00868842
0.114453
-0.0141061
0.0312296
0.0278681
0.0405903
-0.0455788
0.000146336
-0.0054718
-0.00459756
-0.0357058
0.0573789
-0.0356878
-0.0385522
0
-9.64609e-05
1.47339e-06
-0.024982
0
0
0
0
0
0
0
0
0
0
0
0
4.11473e-05
0.000105844
0
0
0
-9.52201e-05
0
0
0
0
0
0
0
0
0
-2.78378e-05
-0.000146819
0
0
0
0
0
0
0
0
0
0
0
0
-3.66438e-07
0
0
0
0
0
-5.71244e-05
0
0
0
0
-6.7815e-05
0
0
0
-0.000126166
0
-0.000216155
-0.000102046
-1.81076e-05
-5.92781e-05
-1.81173e-05
8.9961e-05
6.48313e-05
-0.000138992
-6.57583e-05
-0.000119521
-0.000159734
3.23247e-05
-9.2685e-05
0
-9.48301e-05
-0.000171705
0
-6.5535e-06
0
0
0
0
0
0
0
0
0
0
0
0
0
0
0
0
-0.000131391
0
6.08802e-05
0
-7.07006e-05
0
0.0330284
-0.00868069
0.0467464
0.0282206
-0.0107133
-0.0297604
0.00629063
0.0429745
-0.0254015
0.0150827
0.0381285
0.0185634
0.01375
0.0372635
0.010938
0.00180289
0.021579
-0.00608775
-0.00503491
0.018791
-0.0286611
-0.0161613
-0.0165118
0.0378996
0.0145706
0.000962917
0.0231546
-0.019514
-0.0124013
0.00837062
-0.00808296
-0.015981
-0.000563437
0
0
0
3.99427e-05
-2.26748e-05
-0.000129973
0
0
0
0
0
0
-3.73859e-06
0
0
0
0
0
0
0
0
0
0
0
0
0
0
0
0
0
-5.51811e-05
0
0
6.34502e-05
7.08238e-05
4.43873e-05
0
-6.01823e-05
0
0.0400598
0
0.0215474
-0.0290812
-0.0126337
0.0278579
-0.0911388
-0.0258415
0.0543413
-0.0959955
-0.0706123
0.0200585
-0.00236908
-0.0775817
-0.00278847
0.0321504
-0.00856693
-0.00175625
-0.00387464
0.0463195
-0.0224145
-0.0168936
0.012214
0.0160954
-0.00359147
0.00206188
0.00233847
1.66338e-05
0
0
0.000107363
0
-9.73703e-05
0
-1.0895e-06
0
5.74369e-08
0
2.88329e-06
-1.98075e-06
0
0
0
0
0
0
-9.11194e-06
0
0
0
0
0
0
0
0
0
0
0
0
0
0
0
0.00123209
0.0590585
-0.0333061
-0.0155596
-0.000819396
-0.0124327
-0.016355
0.00533613
-0.0320884
-0.0431669
-0.00303221
-0.00463095
-0.0217431
0.0166819
0.0415299
-0.0201882
-0.0227275
-0.0295209
-0.0434993
-0.028359
-0.0188407
0.00537372
-0.0134751
0.003384
-0.0389457
-0.00786931
0.0109248
-0.0325721
-0.00637888
-0.0491181
0.0159704
-0.0196041
-0.0243563
-0.000136153
0
0
-0.00201061
0
0
-0.0120826
-0.00908961
0
0
0
0
0
0
0
-2.99564e-05
0
-2.64573e-05
-0.0795956
-0.111399
-0.0203745
-0.0709655
-0.124629
-0.0297701
-0.0675542
-0.104711
-0.0253952
-0.0969646
-0.0595803
-0.0350806
-0.0547898
-0.0561181
0.0226729
-0.0673888
-0.0875273
-0.039841
-0.0397877
-0.0471193
-0.00148587
-0.0401375
-0.0394549
0.00333053
-0.0212943
-0.0282264
0.0202157
-0.00374418
-0.0344082
0.0245274
-0.003971
-0.0348006
-0.0357205
-0.00947294
-0.0398946
-0.0250622
-0.0202241
-0.0168951
0.0184968
-0.0173053
-0.00672898
-0.0286304
-0.0164329
0.00890614
-0.112853
-0.0716271
-0.0549893
-0.105735
-0.0762216
0.0559442
-0.0288696
-0.00775191
-0.0344596
-0.0798143
0.0106581
-0.0352149
-0.0420512
-0.100329
-0.0226677
-0.0150625
0
0.0805859
-0.110867
-0.00721135
0.00856132
0.0114938
0.0259392
-0.00446663
0.0135709
0.00859279
-0.00335673
-0.00223547
0.0183067
0.0117019
-0.017083
-0.00821128
0.00252396
0.0350784
-0.0181072
0.0213418
-0.119564
-0.0259763
0
-0.00886083
0
0
0.0240359
0
-0.0351476
0.0454131
0.0390286
-0.0122642
0.0228888
0.040765
0.0162845
0.0226086
0.0708862
-0.103599
0.00676694
0.0509548
0.0561846
0.0261425
0.0792189
-0.0766288
0.00696646
0.0976828
0.0511195
0.0109152
0.0604647
-0.0479064
0.0455225
0.0700359
0.0445502
0.054407
0.0582714
-0.0357989
0.0381649
0.0575322
0.0221506
0.0439053
0.0410559
0.00660269
0.0414711
0.0368014
-0.0203999
0.0410052
0.0120229
-0.0196088
0.0438686
0.0237195
0.0127426
0.0326916
0.0231033
0.00823281
0.0187938
0.0647204
-0.033494
0.0240325
0.0617633
0.00804225
0.0727931
0.0210024
-0.0377976
0.074513
0.0344563
0.0491476
0.0833496
0.0225182
-0.0529393
0.108665
0.0268292
-0.0586723
0.06044
0.0477598
0.0909936
0.106362
0.0468313
0.065524
0.0652417
0.0263335
-0.053505
0.0490421
0.0178432
-0.0411706
0.043507
0.00924853
-0.0424316
0.0399054
-0.00965364
-0.0490685
0.0262773
-0.000571337
-0.0455844
0.016039
-0.0141952
-0.0312524
0.0207346
0.0164174
0.0209667
0.0102349
-0.0352987
-0.0264061
0.014578
0.00886558
0.0178975
-0.00516068
0.0095185
0.00151405
0.0189827
0.0100064
-0.00868067
0.0026892
0.0162789
0.0198242
0.00943155
0.0117173
-0.0469754
0.0549678
-0.0652667
-0.0134731
-0.00503692
-0.0491544
0.0179385
0.0306113
-0.0114182
-0.01092
-0.015411
0.00595217
0.000292004
0.00970261
0.0306442
0.00361316
0
-0.0309689
0
0.0315347
-0.0184311
-0.0135439
-0.149733
0
0
-0.0430021
0
-0.065668
-0.0601674
-0.0065193
0.0536913
-0.0538624
-0.00166784
-0.0263635
0.00314954
-0.025878
0.043829
0
0
0
0
0
0
5.32807e-05
5.09779e-05
2.9567e-05
0
0
0
-4.43041e-05
0
0.000132311
0
-5.89378e-05
0
0
0
0
0
0
0
0
-1.09027e-05
-6.26768e-05
0
0
0
0
-0.000193058
0
0
0
0
0
0
0
0
-1.48135e-06
-3.46111e-06
0
0
0
0
-6.47439e-05
-2.71227e-05
0
0
0
-0.000111245
-5.09694e-05
0
0
0
0
-7.7323e-06
0
0
-0.000151483
0
0
0
0
0
0
0
0
-0.000151485
0
8.54919e-05
-5.97719e-05
0
6.09577e-06
0
-5.3582e-05
0
0
0
0
0
0
0
0
1.98174e-06
0
0
0
0
0.0251144
0.0147379
0.00854914
0.00313526
0.0047618
0.00327608
0.0215091
0.0333089
-0.00503607
0.0139228
0.0259846
-0.00494796
0.010017
0.0243961
-0.00548924
0.00809563
0.0182667
0.0075584
-0.00258506
0.0116084
0.0289546
-0.0206042
-0.0219403
0.0246682
-4.04997e-05
-0.0158714
-0.0281719
-0.0012012
-0.0097304
0.0122998
-0.00973745
-0.00546729
0.00508353
0.000141891
0
-2.26655e-08
0
0.000124408
-2.73174e-06
0
0
0
0
0
0
0
0
0
0
0
0
0
0
0
0
0
0
0
0
0
0
0
0
-9.71133e-05
0
0
0
0
0
0
0
0
-0.00456452
0.0256473
0.0405801
-0.063067
-0.0247437
0.00867278
-0.0946924
-0.0307002
0.0450636
-0.0906352
-0.0751249
0.00990809
-0.0157846
-0.0722707
0.022085
0.0154391
-0.0357326
-0.0312463
-0.00139779
-0.00171635
-0.0162838
-0.0063009
0.0087382
-0.0124201
0.00990888
-0.0131853
0.00506364
0
0
0
0
0
0
0
0
0
0
2.25752e-06
0
0
0
0
0
0
0
0
0.00244687
0
0
0
-7.64874e-05
0
0
0
1.52901e-05
0
-7.52111e-06
0.024238
0.000707563
0.00250173
0
0
0
0
0
0
0
0
0
0.00146572
0.0022941
-0.000570892
0.000949491
-0.0108619
-0.0201142
-0.056668
-0.026124
0.00274851
-0.00818551
0.0185498
-0.0399884
-0.0665606
-0.0264101
-0.0246677
-0.0293746
-0.0234218
-0.000832289
0.0184014
-0.0168804
-0.0392256
0
0
0
0
-0.00147417
0.0004559
-0.00130428
-0.0319936
-0.00148583
0.0252973
-0.0400251
0.0127414
-0.000788462
0.0274781
-0.0118276
-0.0287216
0
-3.54784e-06
0
-0.000852191
0
0
0
-0.000108401
-2.73387e-05
0
0
0
0
0
0
0
0
0
-0.0252425
-0.0294182
-0.00609387
-0.01798
0.012177
0.00547376
-0.0209146
-0.00302752
0.0257337
0.0242849
-0.00265311
-0.00667608
-0.0257068
0.031747
0.0249761
0.0066532
0.0173594
0.0204737
0.00495955
-0.0189855
0.00951204
0.0167232
0.000864564
-0.0161031
0.0263197
-0.0059731
0.0212094
-0.00235143
-0.0274879
0.026904
-0.00857331
0.000222689
-0.0249335
0.0145455
0.028469
-0.00509553
-0.0162534
-0.00454928
0.0251776
-0.00837131
0.0155248
-0.029716
0.00846818
0.0220352
0.018826
-0.079346
-0.0942934
-0.00705885
-0.0785716
-0.110629
-0.0388777
-0.0756951
-0.0923888
0.0200856
-0.0893681
-0.0589422
-0.0161873
-0.049622
-0.0491713
0.0221786
-0.0641511
-0.0745742
0.0228214
-0.039138
-0.0424916
0.0115581
-0.00524452
-0.0170585
-0.0196989
-0.00140915
-0.0210406
-0.0280104
-0.00565806
-0.0241507
-0.0203849
-0.0159384
-0.030046
-0.0238328
-0.0317104
-0.0415366
-0.00718268
-0.0210997
-0.0188094
0.00357904
-0.0324185
-0.0200416
0.0041884
-0.0663028
-0.117938
-0.0370805
-0.0737111
-0.0630145
-0.0977761
-0.00354795
-0.09746
-0.0602914
-0.0390784
0.0369437
-0.0451027
0.0448953
-0.0214184
-0.0151209
0.0162809
-0.00977877
-0.00427729
0.00246118
0.00400952
-0.017058
-0.00115012
-0.0198952
-0.0157288
-0.00302805
0.0211147
-0.0146311
0.0058899
0.0249479
-0.0207459
0.00485402
0.0231522
-0.0329697
-0.00872057
0.0252977
-0.0235986
-0.0103743
0.0251426
0.00301173
-0.0114568
0.00277854
0.0295548
0.0077896
0.000248208
-0.000792619
-0.0355283
0.0053724
0.0492415
0.0164642
0.00565825
-0.0111166
-0.0111312
0.00882896
-0.007405
-0.0322669
-0.000738985
-0.00826664
-0.0185972
-0.00602023
-0.00602281
0
-0.016677
0
0
0
0
0
0
0
0.0176836
0
-0.0123017
-0.0110875
0.0320983
0.00584821
-0.00867851
0.00852906
0.0943826
-0.00443134
0.123389
-0.0721083
0.0132983
-0.0293592
0.0231768
0.0134133
0.0571281
-0.0543933
0.0241453
0.0644635
0.0319658
0.0292292
0.0563658
0.0318492
0.0289093
0.0393852
-0.0261942
0.0267908
0.0464508
-0.0196847
0.034907
0.0306664
-0.0345344
0.0456026
0.0496177
0.0239899
0.0635043
0.0177558
0.00640751
0.048465
0.0496174
-0.00502923
0.0472073
0.0409781
0.00612792
0.0311553
0.0173103
-0.00319269
0.0250274
0.0858697
-0.0338036
0.0254614
0.0532704
0.0216842
0.0778933
0.054788
0.0461431
0.06763
0.0304047
-0.0670111
0.093071
0.0105808
-0.0535537
0.0591707
0.0445276
0.0982065
0.0901906
0.0402416
0.0615216
0.0834039
0.0344732
-0.0598395
0.0642318
0.0238529
-0.0456117
0.0417861
0.0160829
-0.0341398
0.0346847
0.00111687
0.0448964
0.0361067
-0.00203235
-0.0340638
0.0284402
0.000786799
0.0243116
0.0215013
0.0161693
0.00754222
0.00256249
-0.0412417
-0.022218
0.0184403
0.0566222
-0.00696316
-0.001659
-0.0435409
0.00954951
-0.00565243
0.0175099
0.00835607
0.00917925
-0.117959
-0.00133098
-0.0856515
0.0216093
0.0389102
-0.057776
-0.0348196
-0.0698733
0.0101537
-0.0115141
-0.0826953
-0.0571714
-0.0541372
0
0
0
0
-0.000715587
0
-0.000318397
-0.0439291
-0.121723
0
0
-5.59306e-05
0
-0.0977073
0
-0.0748084
-0.0717697
-0.0504545
0
-0.0904094
0
0
0
0
0
0
8.90134e-05
0.000122724
-4.00836e-05
8.62724e-05
0
7.40532e-05
4.20156e-06
4.0672e-05
7.51385e-06
0
0
0
0
0
0
0
0
0
0
0
0
-9.70503e-05
0
-0.000255177
0
0
0
0
0
0
0
0
0
0
0.00330864
0.00210039
0
0
0
0
0
0
-3.76874e-05
0
0
0
0
0
0
0
0
0
0
0
0
2.92226e-05
-0.000193322
-1.5314e-05
0
-1.10792e-05
0
-2.63818e-05
0
0
0
0
0
0
0
0
0
0
0
0
0
0
0
0
0
0
0
0
0
0
0
0
0
0
0
0
0.000563705
0
-0.000840477
0
0
0
-3.62525e-05
0
0.00119646
0.0359287
0.0153612
-0.0105603
0.0424703
0.0217972
-0.0365248
0.0188554
-0.019628
0.0107185
0.0204847
0.00632225
-0.00859306
0.0106592
-0.0068747
0.0341253
0.0196997
0.00735316
0.0190673
0.0208849
-0.0178221
0.0118568
0.0115345
0.00400149
0.0102164
0.00564397
-0.00794981
-0.00359723
0.00730294
0.0118364
-0.0129399
-0.0274195
-0.0225806
-0.0170481
-0.0154271
-0.00340997
0.00997949
0.00439939
4.92439e-05
0
0
0
0
0
0
0
0
0
0
0
0
0
0
0
0
-0.000495978
0
-0.00126041
0.0162968
0.008115
0.0105833
0.0651962
0
0
0
0
0
0
0
0
0
0
0
0
0
0
0
-0.00316888
0
-0.0400218
0.0570694
-0.0156801
-0.0880133
-0.0378164
-0.00854668
0.00860361
0.0195406
-0.012202
-0.00738163
-0.0745076
-0.0636212
-0.0117311
-0.0138495
-0.0620038
-0.0360261
0.00788246
-0.0343233
0.0450639
0.0039759
-0.0262493
-0.0248899
0.0113194
-0.0163877
0
0
2.00001e-05
-3.62088e-06
0
0
0
0
0
0
0
0
0
0
0
0
0
0
0
0
0
0
0.000889679
0
0
0
0
0
6.40513e-06
1.55527e-05
0
0
0
0
0.000131975
5.08091e-05
-0.000160094
0
0
0
0
0
0
4.66952e-05
-1.84247e-05
0
0
0
0
0
0
0
0
0
-0.00768536
0.00498163
-0.0100496
0.0047427
-0.0327273
0.00880067
0.0341756
-0.00103328
0.00976605
-0.0121507
-0.0286465
-0.0395522
0.0241649
0
0
0
0.0306977
-0.00702518
-0.00146225
0
0
0
-0.000135739
0
0
0
0
0
-0.0188147
0
0
-0.00499424
0
-0.0214061
-0.0506262
-0.0260866
-0.0151137
0
0
0
0
0
0
0
0
0
0
0
0
0
0
0
0
0
0
0.0135733
0.018106
-0.0127423
0.0208849
-0.000381005
0.0179653
0.0320018
0.0146017
0.00128431
-0.0325986
0.0253001
-0.00718257
0.0161165
0.028726
-0.0161864
0.0220649
0.0260979
0.0140628
0.0190853
0.0233721
0.00198786
0.0219025
0.0222897
0.00872861
-0.0157776
0.00425452
-0.0150161
-0.00812048
0.00604922
0.0140513
0.0020612
0.0218188
-0.0214013
-0.0766272
-0.0753127
0.0158955
-0.0754039
-0.0968362
0.0310624
-0.0693543
-0.0883128
-4.70093e-05
-0.075939
-0.0654336
0.00156761
-0.0522197
-0.0552941
0.0203781
-0.0119641
-0.073142
-0.0362486
-0.00867405
-0.0401229
0.00606743
0.020185
-0.029283
-0.0185495
0.00707709
0.00991712
-0.0103669
-0.0264671
0.00154007
-0.014126
-0.0173915
-0.0204232
-0.0185943
-0.0225946
-0.0430275
-0.042118
-0.000357535
-0.0480772
-0.0511249
-0.00467028
-0.0322878
-0.0132784
-0.0114837
-0.0345875
-0.0245002
-0.00558822
-0.0837998
-0.0422958
-0.000694611
-0.0351682
-0.0918723
0.00652638
-0.0759433
-0.118246
0.0331976
-0.0816962
-0.0521805
0.0189827
-0.0542903
0.00636264
-0.0797303
0.0371298
-0.0337236
-0.0576547
-0.0113775
0.00232689
-0.0273882
-0.00433064
-0.0115023
0.00243067
-0.0108705
-0.0231716
0.0234047
-0.000834259
-0.0196449
-0.00176455
0.0243409
-0.0214193
0.00609116
-0.0248708
-0.0334624
3.87525e-05
0.0248345
-0.0348318
-0.0132741
-0.0287915
-0.0242048
-0.00443465
0.0220321
-0.013854
0.0153582
-0.040182
-0.0175562
0.00830561
-0.0236901
0.0207157
-0.0043771
0.0122983
0.0256955
0.0289531
-0.00152617
-0.00115835
-0.000477503
-0.00435786
-0.0490128
0.000627898
0.0803219
-0.018802
0.0270404
-0.0378981
-0.0471147
0
-0.0027346
0
0
0
0
0
-0.000106466
0
4.05347e-05
0
-1.91171e-05
-2.35569e-05
0
0
0
-0.00829429
4.6376e-05
3.85409e-05
0
-0.168219
0.0835702
-0.00241389
-0.217058
0.0178799
0.0200418
0.00354757
-0.0190895
-0.0244413
0.0299608
-0.00433231
-0.00221232
-0.012731
-0.020797
0.000605735
-0.00662525
-0.0288717
0.0181681
0.0195597
0.029856
0.0242453
0.0338195
-0.00775722
0.0432886
0.043069
0.0174855
0.0203456
0.0813257
0.00660136
0.0321513
0.0158819
-0.034208
0.0363933
0.0223533
-0.0170492
0.0195298
0.028834
-0.0101248
0.0454902
0.0407204
0.00185717
0.0384219
0.027163
-0.0164704
0.0405119
0.0596702
-0.0281771
0.0292813
0.0487608
-0.0217273
0.0625041
0.0390856
-0.0412757
0.0655611
0.0294232
-0.0565876
0.0521887
0.00808126
0.0879697
0.0552828
-0.0476872
0.0981039
0.0335909
-0.056201
0.0740429
0.0296278
-0.0454995
0.0522717
0.0206419
0.0349291
0.0338578
0.01722
-0.034262
0.0272851
-0.00305579
0.0241693
0.0278935
0.00503628
-0.0147589
0.00433585
0.00351133
0.000108306
-0.00323184
-0.0127577
0.00133568
0.00980685
0.0430336
-0.0148013
-0.0192612
-0.0869379
0.015409
-0.0165654
0.0574327
0.0124149
0
0
0
-0.0104782
0
0
-4.82118e-05
0
-0.000596196
-0.0678844
0.00591505
-0.0047661
0
0
0
0
0
0
0
0
0
0.000518363
0
0
0
0
0
0
-3.3075e-06
0
0
0
0
0
0
0
0
0
0
0
0
5.90713e-05
5.70892e-06
-1.44611e-06
0
4.05032e-05
0
0
0
0
0
0
0
0
0
0
0
0
0
0
0
0
0
0.00147039
-0.00132748
-0.000109232
0
0
0
0
0
0
0
0
0.00431086
0
-0.00188292
0
-0.00298555
0
0
3.57679e-05
-6.43971e-05
7.57666e-06
0
-3.49782e-05
0
0
0
0
0
0
0
0
0
0.000632807
-8.89908e-05
0.00132234
0
-0.000233882
0
-0.000281468
0.0011229
-0.000858982
0
0.000139793
0
0
0
0
1.42544e-05
0
-7.80142e-05
0
-3.6133e-05
-3.90496e-05
0
0
0
-0.000174357
-3.11053e-05
0
0
0.000363956
0
6.97207e-06
0
0
0
0
0
-0.000210123
0
0
0
0
0
-9.80674e-06
0
1.06457e-05
0
0
0
-0.000245606
0
0
0
0
0
0
0
0
0.0367303
0.0301
0.0462438
-0.0305665
0.0284052
-0.0125212
-0.0107939
0.0417954
0.0361455
0.0305464
-0.00431531
-0.0333784
0.0340824
0.00900169
0.00682285
0.0208977
-0.015167
0.00861807
0.02386
0.0130084
0.0191463
0.00890947
0.0139358
0.0242551
0.015009
-0.0291017
0.023448
0.00313428
-0.0139299
0.0126962
-0.00122939
0.00357744
-0.00775454
0.00212818
-0.00221369
0.00537041
0.00402613
0.00742556
0.0240313
-0.00553178
0
0
0
0
0
0
0
0.000824021
0
0
0
-0.0118064
0.00566918
-0.0825314
0.014587
0
0
0
0
0
0
0
-0.0270477
0
0
0
0
-1.7111e-06
0
3.35365e-06
0
1.63873e-06
0
0
0
0
0
0
0.0131241
0.0021758
0.00551063
0.0128881
-0.0366582
-0.0280527
-0.0130441
-0.0629839
-0.0416795
-0.00970181
0.00732131
0.0155833
0.00857946
-0.0322304
-0.0555288
0.0230881
0.000654546
-0.0564602
-0.0423044
0.0161848
-0.0408499
0.0272709
0.0268698
-0.029591
2.01637e-06
0
0
5.23705e-06
7.06781e-05
-1.63671e-05
9.20655e-05
8.40675e-05
-2.14471e-05
2.35663e-05
1.31766e-06
0.000107463
-2.10286e-05
0
2.23895e-05
0
0
-0.000262271
0.000245043
0
0
0
0.00031627
-0.000840276
-0.00107205
0
0.00149461
5.52335e-05
1.14387e-06
0.000185572
0
-2.33805e-05
0
-2.69095e-06
0
0
2.28965e-05
-3.49361e-05
0
0
0
0
0
0
0
0
0
0
0
2.83201e-05
0
0
0
0
0
0
0
0
0
0
0
0
0
0
0
0
-0.000798563
-0.0167552
-0.00829286
0.0076922
-0.0701934
-0.0520006
0.0223719
-0.019237
-0.0380281
0.0250822
-0.0127702
-0.0868013
0
0
0
0
-3.6048e-05
-2.44079e-05
1.80612e-05
-0.0589876
-0.0249822
0
0
-2.13805e-05
0
0
0
0
0
0
0
0
0
0
-0.0142807
0
-0.00750098
-0.0119588
-0.0513864
-0.0261458
0
0
0
-7.73163e-05
0
8.42913e-05
0
0
0
0
0
0
0
0
0
-7.76278e-05
0
5.24832e-05
-0.0106856
-0.00617142
0.0247426
0.000476484
-0.00115809
0.0123137
0.0445021
0.0154822
0.0263176
0.0396498
0.0382118
0.00686717
0.000983593
0.0229501
0.00668297
-0.0385646
0.000494071
0.0072818
0.00197419
0.00858379
0.0026934
0.0209756
0.032142
0.0157389
0.0253075
0.0287774
0.0330861
0.023278
-0.00125501
0.019693
0.0224079
-0.0189333
-0.000309641
-0.0143679
0.00825018
0.00517435
-0.000605608
-0.000209276
-0.00635432
0.00507326
-0.0054752
-0.086419
-0.0506405
0.0258694
-0.0770061
-0.0891669
0.01148
-0.0788574
-0.0736731
-0.0247005
-0.0717499
-0.080369
-0.00940139
-0.0381143
-0.0434873
0.0196715
-0.0679579
-0.0440484
0.00248025
-0.00883086
0.00700797
-0.00151655
-0.0127182
-0.0121802
-0.00935107
0.0111917
0.00384626
0.0117104
-0.00986588
-0.00863008
0.00490615
-0.0438548
-0.0185904
-0.00500419
-0.052229
-0.0398674
0.00461929
-0.049007
-0.0602021
-0.0225295
-0.0191446
-0.00935689
-0.0157254
-0.0713941
-0.0232548
-0.0161661
-0.102235
-0.0580992
0.0283514
-0.0544547
-0.0689508
0.00414575
-0.060646
-0.0922628
-0.0192531
-0.0616232
-0.0718494
0.00450246
-0.0440509
-0.0392654
0.0400633
-0.0289955
-0.0391991
0.0134447
-0.0207402
0.00660194
-0.0553057
-0.0177196
-0.00949415
0.0149402
-0.0276256
-0.0191673
0.000899949
-0.0268565
-0.023569
0.00155097
0.0244621
-0.0224545
-0.00340192