/*--------------------------------*- C++ -*----------------------------------*\
  =========                 |
  \\      /  F ield         | OpenFOAM: The Open Source CFD Toolbox
   \\    /   O peration     | Website:  https://openfoam.org
    \\  /    A nd           | Version:  8
     \\/     M anipulation  |
\*---------------------------------------------------------------------------*/
FoamFile
{
    version     2.0;
    format      ascii;
    class       volScalarField;
    location    "11460";
    object      H;
}
// * * * * * * * * * * * * * * * * * * * * * * * * * * * * * * * * * * * * * //

dimensions      [0 1 0 0 0 0 0];

internalField   nonuniform List<scalar> 
526318
(
0.675626
0.634436
0.711128
0.619441
0.68458
0.64613
0.664133
0.578798
0.638129
0.516828
0.501584
0.612235
0.562014
0.607107
0.568392
0.593899
0.562027
0.757923
0.672374
0.716434
0.710866
0.667459
0.428045
0.668109
0.549603
0.413941
0.688323
0.68846
0.690548
0.706421
0.732918
0.778245
0.763344
0.640792
0.64537
0.61627
0.618017
0.715439
0.631017
0.576963
0.636388
0.615776
0.280645
0.331953
0.233567
0.2844
0.256985
0.384044
0.557779
0.464985
0.548065
0.559305
0.50214
0.456726
0.000931134
0.20341
0.204266
0.00042043
0.72217
0.737205
0.750246
0.701514
0.651735
0.774622
0.775042
0.735111
0.719092
0.721283
0.619169
0.609837
0.730413
0.508206
0.558135
0.450212
0.406728
0.402093
0.500156
0.489261
0.409153
0.450263
0.525228
0.529427
0.485265
0.438151
0.464368
0.539568
0.533318
0.510069
0.459948
0.533472
0.4377
0.3875
0.38507
0.31715
0.310722
0.312657
0.316438
0.31143
0.310031
0.307689
7.97638e-05
2.15653e-06
0.000431238
5.59436e-10
0.000829226
0.000148343
0.215521
0.0323117
0.344763
0.311036
0.348003
0.462272
0.69064
0.580096
0.692911
0.702275
0.776021
0.736973
0.78674
0.30747
0.304126
0.307893
0.311887
0.265707
0.302948
0.212661
0.25767
0.167151
0.218605
0.166012
0.167219
0.156567
0.133926
0.122914
0.151308
0.0919896
0.145656
0.0986779
0.114803
0.0595463
0.0659726
0.0876578
0.118904
0.107091
0.0595353
0.0592729
0.0794449
0.0647523
0.0593886
0.0672608
0.0796283
0.0661638
0.0700504
0.0722578
0.0687768
0.0350953
0.0703808
0.0702101
0.0371324
0.000996288
0.0715474
0.0196026
0.0769691
0.576788
0.669945
0.607303
0.59946
0.390043
0.466144
0.399857
0.395265
0.402021
0.40233
0.423461
0.398321
0.330473
0.308223
0.274203
0.211734
0.270895
0.312978
0.313993
0.313163
0.199052
0.251341
0.138635
0.148532
0.158291
0.146129
0.153071
0.153138
0.141875
0.144598
0.137959
0.123084
0.106831
0.130968
0.128403
0.0999112
0.0764088
0.106285
0.0854469
0.0823184
0.0974632
0.0919935
0.0964593
0.0560359
0.0709434
0.11003
0.111015
0.554133
0.562915
0.60671
0.574847
0.564091
0.557385
0.553879
0.427719
0.481213
0.220077
0.199103
0.196848
0.318812
0.456804
0.332282
0.367618
0.371404
0.320284
0.292207
0.000237579
1.39163e-16
0.000397025
0.140764
0.00027704
9.76159e-09
0.000995694
0.000255125
0.000396609
0.000963311
0.769759
0.75346
0.801339
0.791479
0.763901
0.751187
0.662209
0.745472
0.589864
0.529887
0.534373
0.533165
0.53871
0.528332
0.523518
0.520374
0.437382
0.504408
0.321132
0.377359
0.306808
0.317612
0.00100536
4.55059e-11
0.000154997
0.00100202
0.000103589
0.000987509
3.48495e-10
0.000720789
0.318648
0.130671
0.367368
0.365556
0.475327
0.577821
0.700041
0.701233
0.746389
0.715509
0.778755
0.817872
0.286911
0.28326
0.244787
0.215069
0.114372
0.151873
0.0779909
0.0860196
0.0771622
0.0708285
0.0585802
0.0679854
0.00104461
0.0159882
0.0478171
0.0949776
0.130338
0.0973738
0.0769152
0.0695616
0.00343335
0.00100195
0.0424972
0.10792
0.0206677
0.0612882
0.0592174
0.0264616
0.0253898
1.71477e-30
1.91427e-135
0.000117926
0.000994356
0.00022276
0.000516965
0.0683014
0.106304
0.0693799
0.116239
0.471822
0.426535
0.321116
0.41317
0.341018
0.38424
0.400301
0.39397
0.401525
0.399078
0.311611
0.228731
0.155641
0.134958
0.21149
0.153476
0.140422
0.251123
0.141356
0.192721
0.129806
0.128643
0.137863
0.133153
0.144795
0.142608
0.137825
0.14238
0.139727
0.137266
0.15028
0.141589
0.160245
0.156584
0.156554
0.133268
0.143019
0.125036
0.102578
0.110139
0.124875
0.158942
0.144733
0.127953
0.108592
0.131859
0.173139
0.179162
0.195979
0.149102
0.190753
0.200562
0.242466
0.193973
0.193725
0.225318
0.258966
0.379218
0.459269
0.373732
0.409337
0.481408
0.546084
0.451074
0.319831
0.438425
0.329518
0.352984
0.0894331
0.0370799
0.0671318
0.049466
0.171464
0.289546
0.221552
0.29407
0.286437
0.315928
0.284622
2.95166e-09
0.000716765
2.04019e-06
5.39295e-06
0.000651447
0.000499121
0.000599399
0.00100998
0.000476803
0.00100962
0.000664765
0.00100889
0.000730728
0.000955715
0.000582482
0.000952703
0.794775
0.785237
0.821416
0.808994
0.790847
0.76055
0.689117
0.600424
0.534427
0.549175
0.525718
0.521312
0.50271
0.504368
0.483857
0.481468
0.433929
0.475789
0.399055
0.340702
0.288118
0.245264
0.000928382
0.00107509
0.00107508
0.000663073
0.000598272
0.000731205
0.000601332
0.00107513
0.00107526
0.00107516
0.00100999
0.00100984
0.000550093
0.00100942
0.000924102
0.000172183
0.000288255
0.000487392
0.000977135
0.00096135
7.31626e-08
0.000978536
0.000793614
1.85613e-05
0.0192204
8.96929e-05
0.225468
0.391859
0.402231
0.494236
0.713751
0.606993
0.726991
0.724726
0.74178
0.774359
0.801577
0.82321
0.202996
0.201195
0.154962
0.184903
0.121946
0.0893209
0.0770013
0.0775881
0.0701833
0.0769847
0.03206
0.021357
0.000477934
0.000340526
0.0409108
0.0125125
0.000735187
0.0318855
0.025071
0.0468649
0.000563312
0.000877153
0.000798003
0.000956375
2.57764e-56
0.000858908
0.000817823
0.000873914
0.00089927
0.000387281
0.000872478
0.228143
0.197179
0.199115
0.198686
0.221276
0.322176
0.290425
0.267534
0.139566
0.185809
0.171916
0.179087
0.0840674
0.0148457
0.193546
0.30906
0.192929
0.204555
0.173038
0.257504
0.246693
0.311457
0.349594
0.271896
0.25811
0.283211
0.165897
0.138797
0.137172
0.134593
0.0501622
0.103848
0.0318066
0.000440716
0.000692468
0.0825394
0.080451
0.130691
0.1314
0.129816
0.131123
0.126164
0.133912
0.130413
0.145419
0.138147
0.15723
0.148557
0.151607
0.149959
0.18148
0.163767
0.195574
0.194712
0.146042
0.120014
0.192965
0.176922
0.162111
0.181486
0.166445
0.151844
0.20683
0.182373
0.288032
0.290287
0.246868
0.281862
0.293469
0.254074
0.345499
0.325122
0.393776
0.408512
0.441222
0.355134
0.352804
0.35691
0.31215
0.302318
0.259544
0.359727
0.20286
0.180468
0.23706
0.255002
1.10601e-08
0.000615382
0.0688066
0.181532
0.216436
0.25161
0.16283
0.1257
0.079883
0.0250428
0.000965631
0.000310861
1.42674e-06
1.84795e-07
0.000778321
0.00100068
0.000993891
0.000234006
0.00100979
0.000545241
0.00024476
0.000470015
0.000926911
0.000208943
0.000889372
0.000986846
0.000766556
0.000551352
0.000138864
0.000388285
0.00097475
0.00101
0.000136992
0.000999779
0.000926512
0.000354496
0.00116917
0.000917652
0.00107985
0.000978739
0.00116889
0.00116887
0.000896484
0.000999494
0.0009727
0.000201819
9.59135e-05
0.000989075
0.000892979
0.0009482
0.00100959
0.000881287
0.00100965
0.000996543
2.65749e-05
0.000931251
0.78936
0.799804
0.821809
0.810083
0.792276
0.71366
0.534256
0.624786
0.501426
0.504081
0.482303
0.487135
0.477598
0.475997
0.470207
0.468608
0.413159
0.384599
0.287028
0.326779
0.183568
0.221521
0.000953253
0.000624444
0.000948563
0.000967574
0.000969466
0.000982262
0.000995908
0.000870723
0.00102904
0.000797126
0.000677989
0.000965569
0.000971308
0.000759356
0.000380116
0.000991326
0.000690401
0.00100737
0.000803925
0.000839513
0.000369052
0.000975289
0.000889611
0.000439439
0.000917861
0.00068906
0.00101
0.000641909
7.88326e-06
6.82991e-05
0.000555011
0.000719123
0.000484373
0.000741035
0.208634
0.03451
0.415299
0.369043
0.435347
0.543832
0.647978
0.729281
0.737733
0.728969
0.772603
0.803097
0.789173
0.784623
0.00116923
0.000882287
0.000886173
0.000270849
0.000918298
0.000922867
0.00081396
0.000936593
0.000890554
0.000725685
0.000975785
0.00092383
0.000794854
2.99799e-07
0.000880516
0.00101
0.000170373
0.183578
0.184586
0.182535
0.14623
0.0686415
0.106957
0.0297754
0.0223442
0.000204224
0.00097844
0.000872996
0.000484757
0.000818675
0.00040806
0.000515466
0.000593823
0.000682804
0.00149871
0.000929163
0.000385283
0.000712611
0.000921773
0.000703425
0.000545433
0.000771027
0.000818397
0.000964289
0.000555971
0.000325844
0.000996791
0.000920408
0.000390313
0.425265
0.387874
0.432258
0.437951
0.38419
0.348614
0.511309
0.529871
0.594283
0.609793
0.154667
0.197422
0.250615
0.331997
0.155798
0.103402
0.141872
0.141131
0.000526413
0.0276878
0.0764005
0.000117946
0.178478
0.17582
0.185414
0.178843
0.202695
0.179015
0.18711
0.211539
0.0840909
0.0838216
8.9891e-05
0.0636478
0.0612807
0.0185063
0.000999055
0.000838828
4.23308e-75
0.000785637
0.000951985
0.0165759
0.0758527
0.0110658
0.0778444
0.129787
0.130055
0.129024
0.13379
0.132953
0.152477
0.146337
0.16022
0.15561
0.181105
0.173519
0.202203
0.19761
0.201504
0.197101
0.203341
0.201338
0.239654
0.211465
0.18229
0.180264
0.24366
0.210223
0.222547
0.259594
0.303708
0.299428
0.300686
0.300268
0.333901
0.385227
0.446747
0.46845
0.477303
0.453068
0.601179
0.530438
0.668195
0.705224
0.691046
0.735205
0.783197
0.650213
0.741333
0.758937
0.836258
0.887457
0.912962
0.929463
0.958097
0.905664
0.963696
0.920052
0.992684
0.993204
1.04825
1.01767
1.07534
1.10945
1.09485
1.04856
1.11161
1.13687
1.09971
1.10017
1.1623
1.13966
1.17376
1.11187
1.11322
1.17491
1.14419
1.09722
1.09923
1.12896
1.16046
0.154371
0.119658
0.291849
0.289805
0.252102
0.248465
0.250821
0.013847
0.153145
0.000113365
0.000873343
0.00045388
0.000192324
0.000165811
0.000495149
0.000241062
0.0833737
0.000864884
0.000276825
0.000721209
0.000393631
0.000473306
0.000527345
0.000348275
0.00101
5.27544e-07
5.8384e-05
9.70941e-06
5.35186e-05
0.00101
0.000966006
0.000995857
0.000583084
1.40697e-05
0.00162542
0.000842141
0.000928041
0.000844807
0.000691483
0.000377528
0.00069126
0.000943677
0.000831092
0.00129733
0.000424261
0.00012748
0.000146108
0.000949
0.000431299
6.93167e-06
1.61879e-05
0.000990101
0.00093513
0.00100829
0.000828804
0.000911134
0.000410555
0.00098124
0.00100997
0.00111609
0.000989539
0.000931884
0.000978582
0.000974989
0.000926586
0.00101
0.00057983
0.000867422
0.00104004
0.00103399
0.000959046
0.000981204
0.000939166
0.00101
0.00101
0.000467339
0.000585417
0.000993933
0.000773625
0.000877713
0.00099375
0.000922247
0.000776475
0.0010078
0.000994205
0.000136415
0.000956593
0.000950381
0.000921886
0.000915695
0.000919934
0.000615874
0.00101
0.000623175
0.000968314
0.778732
0.766668
0.739491
0.740036
0.65357
0.729394
0.546131
0.488802
0.474422
0.47918
0.478697
0.47414
0.41587
0.421693
0.26432
0.223195
0.185897
0.356518
0.356129
0.30504
0.307133
0.306921
0.000705523
0.000417596
0.00101714
0.00101712
0.000962471
0.000414864
0.000820302
0.000410365
0.00101714
0.000938656
0.000161511
0.00100893
0.000972717
0.000941946
0.000297472
0.000985833
0.000726155
0.00091818
0.00021426
0.00071546
0.000446982
0.000951565
0.00135367
0.00135382
3.81621e-05
6.12131e-06
0.000169957
0.000987693
0.036676
0.0002062
0.204594
0.372286
0.401121
0.43361
0.511063
0.627894
0.695003
0.670065
0.713821
0.646303
0.698469
0.741183
0.694092
0.691276
0.00118003
0.000995089
0.00101
0.000849207
0.000997006
0.00119518
0.000758888
0.000800653
0.00119518
0.000964874
0.000981161
0.000996251
1.29986e-07
1.14836e-05
0.00096748
0.000373012
3.26135e-06
0.00072123
0.00101
0.000253336
0.000277025
0.000765241
0.00096459
0.000879022
0.0017476
0.00101102
0.160658
0.15765
0.0772558
0.0939675
0.000575707
0.000794907
0.000679211
0.000785639
0.000614508
0.0013843
0.000275067
0.000751573
0.000686785
0.000630537
0.00017121
0.000352868
0.000241899
0.000926802
0.00125609
0.00125221
0.000569594
0.0002975
0.000432131
0.0008342
0.00030944
0.000950196
0.000717662
0.000602104
0.000980152
0.000764758
0.00121979
0.000707942
0.651473
0.642593
0.476966
0.386415
0.370191
0.365658
0.638342
0.549302
0.794833
0.879417
0.77455
0.697548
0.887666
0.869694
0.938527
0.981305
1.01219
1.01752
1.04134
1.01748
1.07217
1.09734
1.09574
1.096
1.1103
1.09783
1.09569
1.14325
1.08841
1.08409
0.201982
0.135346
0.284458
0.345457
0.135087
0.0809271
0.136591
0.137463
0.000528561
0.0155562
0.000115002
0.0167137
0.000718057
0.185325
0.133466
0.186358
0.180958
0.17697
0.058016
0.0010091
0.000343706
2.61863e-13
2.73389e-06
0.000191284
1.67982e-322
7.53771e-29
1.81001e-06
0.000998818
0.000713049
0.000810978
3.63154e-05
0.000632244
0.0254521
0.000794666
0.0760869
0.0239165
0.0667958
0.127673
0.158801
0.13068
0.16444
0.16984
0.186842
0.172038
0.203918
0.213224
0.210826
0.227239
0.231424
0.230739
0.263898
0.276942
0.269195
0.262699
0.266582
0.261475
0.278583
0.29105
0.336299
0.333261
0.297078
0.327882
0.327656
0.354351
0.395749
0.453728
0.490983
0.487609
0.499217
0.573212
0.652362
0.724836
0.737854
0.863304
0.735647
0.785795
0.935555
0.964326
0.95968
0.999059
1.04794
1.09737
1.10975
1.11302
1.1393
1.16841
1.19299
1.19204
1.19135
1.19323
1.19561
1.1741
1.11296
1.1787
1.14371
1.09679
1.10083
1.13089
1.16635
1.17506
1.09844
1.15987
1.12225
1.68096e-08
0.000886017
0.00916233
0.0886243
0.000792937
0.0388469
0.182102
0.115114
0.137085
0.000981785
0.000647664
1.93585e-06
0.000722406
0.00323773
3.63435e-06
0.000163152
1.54405e-06
2.15659e-07
0.000978156
0.00127559
0.00127532
0.000284872
0.00044486
0.000269009
0.00100999
0.000871197
0.000795729
0.000978231
0.000573737
0.00140074
0.00139806
0.00086849
0.000172666
0.000487453
0.00162525
0.000981197
0.00072972
0.000478021
0.000315336
0.00048732
0.00101
0.000973739
0.00129715
0.000928609
0.00101
0.000485798
0.000660221
0.000998234
0.000701989
0.000938544
0.000874495
0.00105215
0.000946017
0.000791252
0.000751098
0.000990039
7.57449e-05
0.00099613
0.000976554
0.000151024
0.000650036
0.000544652
0.000936558
0.000824049
0.000998716
0.000954655
0.00104861
0.000978339
0.000943996
0.000974885
0.00092222
0.000207016
0.000979907
0.000919067
0.00101
0.000732523
0.00100962
0.000641972
0.000367709
0.000916152
0.000960434
0.000962538
0.000892128
0.000601567
0.000479733
0.689643
0.686736
0.668539
0.678315
0.60527
0.667277
0.476111
0.540706
0.438161
0.434358
0.382291
0.363382
0.306416
0.306675
0.222558
0.116723
0.0930756
0.26078
0.309252
0.305419
0.306147
0.307019
0.00101721
0.000988756
0.00101722
0.000581466
0.000973634
0.000973647
0.00094649
0.000972052
0.00100548
0.000830393
0.000135327
0.000443538
0.00093376
0.000997208
0.00060297
0.00100999
0.00098232
3.53596e-05
0.000985985
0.000873381
0.000276721
0.00048743
0.000655599
0.00101
0.000321117
3.32274e-05
0.00016739
0.000935205
0.101782
2.40898e-14
0.242056
0.374843
0.348334
0.460631
0.623617
0.529498
0.604113
0.607891
0.594034
0.626882
0.68312
0.674486
0.681734
0.65438
0.000769413
0.000922585
0.0005717
0.000958878
0.000712787
0.000933944
0.000627141
0.000452485
0.000818636
0.000879841
0.000957505
0.000856862
0.000968979
5.25646e-10
0.000922039
0.000873917
0.00096514
0.000987798
0.000743529
0.00100999
0.000468733
1.9581e-05
0.00165692
0.000901385
0.00101
0.000860782
0.000668131
0.000489708
0.000136748
9.8389e-09
0.00098545
0.031734
0.0324898
0.000997167
0.000271266
0.000273559
0.000330483
0.000956993
0.000406304
0.0754249
0.0187093
0.0008431
0.000187059
0.0009323
0.000408908
0.00100989
0.00127839
0.00127839
0.000246275
0.000583215
0.000345979
0.000807948
0.000386048
0.000801456
0.000830286
0.000590329
0.000349619
0.000326745
0.000587295
0.00100971
1.30661e-05
0.00052455
0.000737284
0.000689738
0.000594218
0.000809643
1.21898
1.22831
1.25848
1.23244
1.27634
1.26077
1.28589
1.27798
1.33352
1.31934
1.28449
1.33964
1.30771
1.3569
1.18569
1.1378
1.15973
1.20823
1.18917
1.15714
1.16124
1.213
1.2199
1.19454
1.17478
1.22627
1.20894
1.2164
1.24312
1.09578
1.0968
1.09992
1.09499
1.11561
1.141
0.698415
0.635215
0.535939
0.436346
0.358372
0.415574
0.625505
0.603786
0.843734
0.871521
0.760607
0.842777
0.878179
0.923793
0.975038
1.0119
1.01333
1.01041
1.01097
1.04021
1.05329
1.08085
1.06749
1.07211
1.07486
1.08292
1.06358
1.06197
0.25625
0.182745
0.129204
0.12359
0.177822
0.352689
0.32795
0.0584671
0.11397
0.000936732
3.05091e-05
1.20501
1.22611
1.24003
1.24685
1.25196
1.26281
1.26846
1.29321
1.27991
1.30057
1.29624
1.35064
1.36874
1.39096
1.3913
1.39293
1.41252
1.43484
2.73469e-05
0.000677159
0.00145246
0.109524
0.000900189
0.176261
0.0530685
0.0014015
0.00130528
1.24678e-20
0.00130534
0.00130527
0.000150505
0.000202606
0.000879062
0.000634227
1.56935e-49
6.10001e-120
0.000377734
0.000793005
0.000395231
0.0006077
0.00124717
0.000186516
0.0276463
0.000927819
0.106122
0.0596979
0.145991
0.106678
0.148461
0.174958
0.195297
0.218789
0.238848
0.235444
0.244276
0.238237
0.300408
0.28813
0.281148
0.275434
0.329978
0.30286
0.37009
0.332818
0.316282
0.3543
0.398974
0.399015
0.420171
0.452793
0.457414
0.399695
0.515682
0.542776
0.511232
0.506842
0.581962
0.668007
0.737037
0.8015
0.750338
0.766434
0.896284
0.956414
0.999472
0.980242
1.04842
1.07681
1.11889
1.13763
1.12891
1.14793
1.20281
1.18442
1.19284
1.20632
1.19869
1.19061
1.19204
1.19835
1.19407
1.19844
1.1978
0.00100358
1.21315e-05
0.00228795
4.97549e-05
0.000308718
0.000371562
0.000407856
0.000231537
0.00038035
0.000562784
0.000600299
0.000992538
8.58466e-05
0.000374171
0.0014524
0.000973849
0.00085016
0.000170929
4.28478e-05
0.00127502
0.000370329
0.00038011
0.000830757
0.000722637
0.000735431
0.00102321
0.000992267
0.000902549
0.00111523
0.00111521
0.0013955
0.000899116
0.00101706
0.000979837
0.000776109
0.00096702
0.000896738
0.000998449
0.00026155
0.000888291
0.00100984
0.000894905
0.00111512
0.000279351
0.000398457
0.000668916
0.00101
0.000330569
0.000740386
3.16836e-14
1.82558e-09
0.00239606
0.000379096
0.000860852
0.000694792
0.000545923
0.000997667
0.0003892
0.00100993
0.000972649
0.000977525
0.000963111
0.000999516
0.000734664
0.00105925
0.00093209
0.000720338
0.000996905
0.000778749
0.00105867
0.00089779
0.000955844
0.000631827
0.000258775
0.000751423
0.000964465
0.000941166
0.000838222
0.00101
0.000334973
0.000769708
0.000685233
0.000978177
0.000925692
0.000935309
0.000898335
0.00091709
0.000695524
0.000567275
0.00203573
0.000193768
0.000674617
0.000835469
0.00095222
0.00203568
1.37999
1.35533
1.32773
1.43256
1.46518
1.45784
0.666117
0.667804
0.657409
0.649628
0.573978
0.643153
0.469257
0.393414
0.323508
0.338516
0.308088
0.303566
0.306785
0.305095
0.185792
0.101371
0.192934
0.270322
0.273416
0.00093523
0.000828367
0.000875173
0.000890082
0.000922295
0.0009764
0.000965395
0.000493094
0.000931051
0.000554111
0.00100943
0.000959595
0.000969088
0.000968182
0.000186964
0.000595956
0.00100998
0.000498781
0.000128694
0.000927014
4.59314e-06
0.00027594
0.000921556
0.000785239
0.00052174
0.000783296
0.000978157
0.0725495
0.215586
0.327596
0.326954
0.647525
0.566348
0.580421
0.366591
0.456636
0.543029
0.591878
0.59655
0.597
0.616708
0.643589
0.636097
0.000713179
0.0011497
0.000624234
0.000982796
0.000704864
0.000720222
0.00100904
0.000845157
0.000731263
0.000865554
0.000823186
0.000932446
0.000763197
0.000831138
0.000896425
0.000623301
0.000627663
0.00100504
0.000978863
0.000935387
0.000938185
0.000682923
0.000770427
0.000937995
0.000997599
0.000978674
0.000347723
0.000953032
0.000978459
0.000973622
0.00101
0.000984843
0.000871643
0.000978065
0.000827832
0.000807887
0.000811322
0.0312526
0.068789
0.0553334
0.000665471
0.000980968
0.00084284
0.00041234
0.00018178
0.000426667
0.000338594
0.000919076
0.00298436
0.000512942
0.000406768
0.000986977
0.000612942
0.000962556
0.000490688
0.000432878
0.000753925
0.000136085
7.42918e-05
0.00065721
0.000224512
0.000841358
5.79952e-05
0.000680105
0.000702988
0.000422466
0.000653842
0.000551523
0.000693939
9.93495e-05
0.000358069
0.000994303
6.02673e-05
0.000979051
1.21717
1.23273
1.25428
1.28139
1.28402
1.28599
1.31705
1.29647
1.15362
1.14935
1.1334
1.15457
1.18597
1.1475
1.19604
1.16649
1.0834
1.0727
1.07196
1.10491
1.13333
1.10697
0.702719
0.61788
0.515876
0.601593
0.440848
0.364429
0.614738
0.611054
0.855408
0.860348
0.870659
0.773378
0.853129
0.956323
0.904527
0.849838
0.890237
0.989984
1.00138
0.993104
0.998753
1.00621
1.02774
1.05655
1.04703
1.06288
1.05684
1.05941
1.06298
1.05797
1.06197
0.0997023
0.10969
0.239124
0.330214
0.109417
0.18816
0.336014
0.361584
0.100197
0.0380785
0.000959515
0.0174259
1.23519
1.19394
1.21323
1.25923
1.25591
1.2587
1.26973
1.29114
1.31284
1.32299
1.32478
1.32714
1.35072
1.39226
1.37542
1.39391
1.41124
1.45637
1.42999
1.26716
1.2762
1.29386
1.46844
1.45446
1.45966
0.00145225
0.0014522
0.00145228
0.000507046
3.48347e-06
0.00109542
3.07638e-07
0.000928091
0.000422886
0.000659527
0.000757232
0.000881632
0.000578176
0.00101
0.000702905
0.00100987
0.000969713
4.15228e-06
0.000753117
2.30526e-09
0.00185233
0.000822431
1.68174e-72
0.000626889
0.0477391
0.0753652
0.00561769
0.0469861
0.107536
0.074618
0.19992
0.14992
0.212014
0.230829
0.238356
0.222645
0.276095
0.320036
0.354396
0.351828
0.359546
0.349935
0.372855
0.358723
0.402805
0.410935
0.430172
0.43469
0.407644
0.409431
0.530863
0.580864
0.475628
0.54367
0.587021
0.549099
0.648941
0.694808
0.789612
0.830106
0.803822
0.899444
0.951724
1.05399
1.03692
1.097
1.07474
1.17058
1.17382
1.16674
1.19688
1.22356
1.22206
1.27719
1.23963
1.27028
1.2289
1.22865
1.26891
1.19658
1.23764
1.19919
0.000278737
4.06574e-06
0.000809039
0.000599838
0.000769361
0.000964183
0.00057408
5.96862e-07
0.00101
0.000199154
0.000130371
0.000512431
0.000252644
0.000632165
0.000558735
0.000350817
0.000403772
0.000104756
0.000508029
2.86501e-05
0.000124015
4.98173e-05
5.50518e-07
0.000226648
0.000781048
0.000980855
0.000966137
0.000143314
0.0011152
0.0011152
0.000974405
0.000995782
0.000992745
3.82214e-05
0.00101
0.000912008
0.0010004
0.000112849
0.00044385
0.000919656
1.61673e-09
0.000297927
0.00214509
3.35189e-09
0.000984734
6.26146e-05
0.0009581
0.000364482
0.00102324
0.000147365
0.000995338
0.00221743
0.000972656
0.000134455
0.000946056
0.00102282
0.00126237
0.000400134
0.00100983
0.000979813
0.000465046
0.000983408
0.00101
0.000808151
0.00105905
0.00105907
0.000896998
0.000938927
0.00105865
0.00105892
0.000955402
0.00083967
0.000711032
0.000919589
0.00153414
8.32859e-05
0.00153398
0.000817785
0.00098702
0.000966821
0.00099923
0.00100984
0.00101
0.00100994
0.000799141
0.000805878
0.000827454
1.20946e-05
9.12481e-06
0
0.00090453
0.000799517
0.000430028
0.000856965
0.0012623
0.000898711
0.00100958
0.00100997
0.000859423
0.000998553
0.000946811
0.000914726
0.00101
1.33922
1.3617
1.37023
1.36003
1.39979
1.51195
1.4763
1.47211
1.50631
1.44518
0.577045
0.561548
0.499524
0.499423
0.45836
0.491239
0.400327
0.354831
0.341318
0.307353
0.282974
0.280793
0.192409
0.204575
0.0700674
0.114461
0.113704
0.000529692
0.000965684
0.000913493
0.00101
0.000949844
0.000924031
0.000585991
0.00104246
0.0458891
0.000243183
0.000919443
0.000220381
0.000959565
0.000979614
1.46354e-06
0.000368616
0.00101
0.000973661
0.000835634
0.00102182
0.000849804
0.000994475
0.000944045
0.000847483
0.00025022
0.440479
0.442943
0.485442
0.186591
0.331261
0.327135
0.362198
0.485544
0.559662
0.519126
0.423763
0.506429
0.536878
0.538222
0.454609
0.486018
0.000957717
0.00098305
0.00114974
0.00101
0.000660496
0.000823908
0.00101
0.00118738
0.000975172
0.000999481
0.000160682
0.000986054
0.000875008
0.000936631
0.000510229
0.00101876
0.000964716
0.00101869
0.00101857
0.00101
0.000771965
0.000895476
0.000833864
0.000976221
0.00092185
0.00100577
0
0
0
0.000780578
0.00106558
0.000959088
0.00100563
0.000944429
0.000473953
0.000911195
0.000978965
0.000968087
0.00097325
0.000338297
0.000895901
0.000914242
0.000926795
0.000959932
0.00101865
0.0510657
0.062417
0.0704035
0.000424946
0.000498843
0.000827036
5.50477e-05
0.000926634
0.000750894
0.00147048
0.00067223
0.000837613
0.00147042
0.000479864
0.000491909
0.000406739
0.000485044
0.000242686
0.000584634
0.000426707
0.00103872
0.000270985
0.000575667
0.000666396
0.000877991
0.000808176
4.3442e-07
0.000153041
0.00117737
0.000510088
0.00103868
0.000312228
0.000747328
0.000789597
0.000346646
0.00101
0.000942721
0.000579907
0.00117735
1.22419
1.17347
1.25753
1.21961
1.22378
1.28075
1.27018
1.31618
1.29062
1.34011
1.29823
1.26464
1.34021
1.29319
1.1181
1.11718
1.10748
1.11953
1.13274
1.14528
1.14173
1.15258
1.05868
1.06416
1.08303
1.06944
1.09773
1.10542
0.696661
0.619563
0.547179
0.612789
0.408414
0.498659
0.620426
0.617832
0.850347
0.851519
0.849327
0.774682
0.933639
0.9833
0.897893
0.84922
0.988853
0.983374
1.00046
0.984188
1.02098
1.04458
1.05142
1.05063
1.05173
1.05185
1.06053
1.06
1.05857
1.05696
0.0972485
0.0971985
0.258051
0.346132
0.245497
0.165996
0.403298
0.336022
0.0728406
0.0969789
0.062927
0.000922306
1.23461
1.26968
1.25337
1.27976
1.29577
1.28543
1.32411
1.33206
1.31468
1.32294
1.31236
1.32419
1.32723
1.35294
1.37505
1.39062
1.39367
1.44579
1.4251
1.47128
1.4754
1.34755
1.35929
1.47557
1.48376
0.000415286
9.36048e-05
0.000696944
0.000551543
0.000525579
9.3846e-05
0.000260243
0.000192823
0.00101
1.00585e-05
0.000927799
0.000258474
0.000705117
0.000657476
5.07035e-06
0.000780461
0.00185228
0.000451128
0.000872027
0.000687083
0.000491394
1.85227e-16
0.000999312
2.25677e-226
0.0658181
0.0648576
0.0295193
0.000154446
0.104843
0.140958
0.203939
0.190451
0.21359
0.200409
0.32353
0.270321
0.37
0.364258
0.389298
0.398236
0.370963
0.426676
0.46569
0.44104
0.426261
0.455419
0.50789
0.489927
0.475787
0.519497
0.601993
0.599666
0.595993
0.613668
0.743585
0.661256
0.829257
0.851065
0.855433
0.920171
0.999071
1.07199
1.08349
1.09199
1.14221
1.18912
1.22569
1.22606
1.26423
1.23735
1.28988
1.30329
1.30435
1.30217
1.30342
1.30262
1.27188
1.30268
1.27057
0.000852292
0.000104549
0.00705641
0.00102516
0.000696102
7.73581e-05
0.000686777
0.000538285
0.00090607
0.000700239
0.00101
0.00131991
0.00131916
0.00132195
0.00132046
0.00132063
0.00132277
0.000999177
0.00132146
0.00689767
0.00102062
0.000638589
0.000184916
0.00105443
0.000425059
0.00105434
0.00105439
0.000423806
0.000111917
0.00100217
0.000993637
0.000687571
0.000856518
0.000794255
0.00101
0.00103715
0.000781551
0.000959982
0.00100986
0.000887496
0.000962023
0.000978103
0.00185347
0.000994676
0.000146754
1.36216e-05
0.000607696
0.00096357
0.000988249
0.000479144
0.000826696
0.000971675
0.00100941
0.00031059
2.6321e-05
0.000987756
0.00100992
0.000817418
0.000560979
0.000737252
0.00101
0.000799183
0.000969062
0.000279366
0.000905419
0.000941315
0.000954555
0.0010008
0.000939674
0.000880492
0.000886752
0.00100949
0.00097168
0.000773375
0.000984106
0.000952799
0.000603759
0.00098992
0.000934564
0.000964099
0.000974876
0.000974485
0.00101
0.00099424
0.000905098
0.000464111
0
0
0
0
0
0
0
0
0
0
0
0
0
0
0
0
0
0
0
0.00099334
0.000894426
0.000937661
0.000812305
0.000915859
0.000434354
0.000930589
0.00106437
0.000325168
0.000811332
0.00035232
0.000885277
1.52371
1.51761
1.537
1.52394
1.52846
1.53942
1.377
1.35863
1.44446
1.40915
1.49356
1.50711
1.51353
1.4162
1.3322
0.439812
0.436293
0.441435
0.428962
0.44251
0.371828
0.417006
0.203058
0.2586
0.125043
0.125792
0.069481
0.0713009
0.069399
4.53839e-05
0.000801422
0.000495047
0.000982711
0.000788092
0.0720526
9.51385e-57
0.000948865
0.000967043
0.000958963
0.000686377
0.000977274
0.000851528
0.000970402
0.000977458
0.000717645
0.000335301
0.00101265
0.00101343
0.000283201
0.00101212
0.000932938
0.0004632
0.000564851
0.443374
0.442301
0.441258
0.439535
0.44445
0.15543
0.269957
0.210336
0.336743
0.394417
0.417726
0.345877
0.43256
0.382668
0.38348
0.370754
0.000954778
0.00111232
0.000810484
0.000970576
0.000973219
0.000935143
0.000798006
0.00101467
0.000147655
0.000874035
0.00101359
0.000634914
6.92933e-05
0.000746998
0.00102073
0.000508825
0.000763669
0.000831921
0.000985424
0.00094689
0.00094707
0.000984254
0.000740767
0.000908685
0.000621516
0.00100955
0.000627569
0.000973579
0.000348921
2.15212e-05
0
0
0
0
0
0.000877167
0.00106596
0.000978274
0.00106671
0.000988902
0.000872265
0.00078846
0.000950347
0.00098805
0.00100037
0.00093197
0.000953825
0.000956596
0.000997349
0.000778615
0.00101
0
0
0
0
0
0
0.048685
7.46082e-05
0.000470104
0.000700757
0.000605538
0.000680509
0.00078824
0.000960083
0.000791447
0.000311719
0.00100956
0.00084747
0.000375808
0.000550644
0.00033854
0.000760208
0.000752664
0.000795758
0.000905726
0.000971356
0.000993149
6.51335e-05
0.000407797
1.79748e-05
0.000486704
0.000766506
0.000634249
0.000404769
0.000958393
0.00027789
0.000612368
1.31742e-05
0.000467482
0.0018311
0.00182998
0.000652472
0.000959699
0.000281529
0.000798649
0.00100972
0.000818552
1.19878
1.17318
1.19064
1.1894
1.19742
1.20773
1.2149
1.2689
1.25968
1.27999
1.34354
1.29914
1.26063
1.10608
1.10702
1.13409
1.12251
1.14688
1.14594
1.17013
1.15276
1.0624
1.06779
1.08886
1.07469
1.08892
1.09778
0.73304
0.659015
0.582577
0.613634
0.561096
0.467486
0.647524
0.622796
0.852814
0.852157
0.806596
0.855973
0.94245
0.995925
0.857829
0.901668
0.990395
0.995009
1.01198
0.990761
1.03341
1.05056
1.04934
1.05856
1.03892
1.05492
1.05695
1.0577
1.04591
1.05176
0.0918155
0.147428
0.341184
0.316047
0.248968
0.32223
0.345634
0.418168
0.0894203
0.0841426
0.0752601
0.00085684
5.3971e-05
3.10433e-07
0.000625954
1.30323
1.30575
1.33443
1.32514
1.34878
1.36527
1.36284
1.36162
1.40107
1.37849
1.39032
1.35762
1.38718
1.39582
1.42381
1.44373
1.45429
1.45391
1.50473
1.5032
1.52831
1.50892
1.4173
1.42459
1.53727
1.53106
0.00016622
0.000334169
0.00101
7.5568e-06
0.000729054
0.00124087
0.00124061
0.000978135
0.000305007
0.000128328
0.000118365
0.00203078
0.00108734
0.000706941
0.000822227
0.000857145
0.00100232
0.000626775
0.000320397
0.000824137
8.63116e-05
0.000995528
0.000301624
0.000843386
0.000922735
0.0133141
0.0872588
0.000777214
0.186959
0.121454
0.195665
0.198625
0.289621
0.228955
0.351194
0.381818
0.376811
0.38298
0.505254
0.466129
0.435264
0.496065
0.518412
0.51571
0.508023
0.501951
0.515677
0.513779
0.596287
0.636516
0.672424
0.630859
0.671151
0.699828
0.837532
0.773991
0.86682
0.852316
0.935251
1.01021
1.09752
1.09154
1.12799
1.16465
1.24187
1.23013
1.25479
1.25867
1.28823
1.29721
1.31696
1.30664
1.31897
1.31373
1.30337
1.31603
1.30149
1.30494
0.000993924
0.000863994
0.00101
0.00067133
0.000949943
0.000657298
0.000566723
0.000789161
0.000642839
0.00131861
0.000350369
0.000929648
0.000295436
0.00131805
0.00132001
0.00131887
0.00131858
0.00131945
0.00131617
0.000429092