/*--------------------------------*- C++ -*----------------------------------*\
  =========                 |
  \\      /  F ield         | OpenFOAM: The Open Source CFD Toolbox
   \\    /   O peration     | Website:  https://openfoam.org
    \\  /    A nd           | Version:  8
     \\/     M anipulation  |
\*---------------------------------------------------------------------------*/
FoamFile
{
    version     2.0;
    format      ascii;
    class       surfaceScalarField;
    location    "11460";
    object      phi;
}
// * * * * * * * * * * * * * * * * * * * * * * * * * * * * * * * * * * * * * //

dimensions      [0 3 -1 0 0 0 0];

internalField   nonuniform List<scalar> 
788991
(
-0.0420672
0.0145084
-0.00225656
-0.0192691
-0.00809836
-0.0541169
0.0359738
-0.0112108
-0.0630643
0.031475
-0.0358988
0.0199861
0.00163048
-0.0502871
-0.039266
0.00322515
0.044397
0.00439629
0.00359505
0.0260899
0.0225125
-0.00221123
-0.0538525
0.0367336
-0.00506166
0.0454425
0.00316904
0.0597359
-0.019196
0.0564211
0.00936674
0.0366238
0.0463602
-0.00772212
0.0663805
-0.0133507
-0.027686
-0.0314118
-0.0313225
-0.00610466
-0.030556
0.0319827
0.0161711
-0.0118232
0.0340955
-0.0172832
-0.0487974
0.00950491
0.010616
-0.0628296
-0.00152869
-0.00780435
0.0237057
0.0335052
-0.0266483
0.0322988
-0.0121689
0.00338138
0.0213437
0.0410587
0.0059556
0.00232162
0.019661
-0.0624424
0.0186613
-0.0440576
0.00753001
-0.00339608
-0.0270687
-0.00978077
-0.0111325
0.00307936
0.0238046
0.0125752
0.079918
0
-0.0572774
-0.0376318
-0.0174187
0.0462789
0.0143725
0.00442657
0.0194553
-0.0416247
0.00560673
-0.0264291
0.0447469
-0.0217675
-0.0315536
-0.00515851
0.0242831
0.0212017
-0.0134386
-0.0410122
0.0206777
-0.0167422
0.00440154
0.0446496
-0.048425
-0.0654036
-0.0300618
-0.0253032
-0.0309313
-0.0481592
-0.0769779
-0.0766074
-0.0541212
0.00543878
-0.0302081
0.0714077
-0.00994694
-0.0786207
-0.00363754
-0.0224796
-0.0362533
0.00271417
-0.0175857
-0.0170264
-0.0130266
0.0173427
0.00475994
-0.0217161
0.0172681
0.0123668
-0.0232984
-0.0131867
0.000829114
-0.00164472
-0.00686354
0.00925932
0
0
0
0
0
0
0.0305746
0
0.0283013
0.00986031
0.00860674
0.00140558
0.0178316
0.0384016
0.000437976
-0.0486401
0.0439752
-0.00968585
0.0580444
0.00642633
-0.00487757
-0.04557
-0.00574702
-0.0133357
0.0275358
0.00191635
-0.0516208
-0.0053083
-0.00827584
0.00826368
-0.00195552
-0.00400155
-0.0152689
-0.0163226
0.0268058
-0.00905302
0.0292222
0.00478563
-0.025401
0.0121757
-0.0237127
0.0272861
0.0216211
-0.00489307
0.0104714
-0.00181529
0.000742917
0.0333174
-0.0133595
-0.0197155
-0.0271332
-0.00200657
0.0350368
-0.00867232
0.025812
-0.0256342
0.00745863
-0.0181272
-0.0441638
-0.00924395
-0.00454647
-0.00274477
-0.0303397
-0.0241129
-0.0159534
-0.0381986
-0.0082768
-0.0214911
0.00302566
-0.00918585
0.0459626
-0.0247541
-0.0252589
-0.0112418
-0.0335328
0.0218888
0.0472485
-0.00211655
0.00214341
0.00511356
-0.0510577
0.000803664
0.026986
-6.99349e-05
0.0105155
0.0292791
-0.012946
0.0182035
0.0279397
0.0373694
-0.0194217
-0.00435422
0.034247
0.0116906
-0.0529434
0.0195423
0.023481
-0.0867644
-0.0392494
-0.0287129
-0.0066972
-0.0732747
0.0103564
0.0161254
-0.00417726
0.00801568
-0.0124106
0.000536219
-0.00931957
-0.00409731
0.00560548
-0.00903393
-0.00803926
-0.027335
0.00519292
5.9889e-05
-0.021837
-0.0191795
-0.0084821
-0.00413375
0.0282684
-0.0177976
-0.0173107
0.0183872
-0.0292379
-0.0334519
0.00588621
0.00647839
-0.0207568
-0.0251175
0.0444009
0.0402986
0.0310747
0.0221336
0.0250802
-0.020295
-0.00240075
-0.0558849
-0.00147448
0.00288123
-0.00519514
-0.0117502
0.000867276
-0.0586955
-0.00336783
-0.002818
-0.0264668
0.00346974
-0.0338817
0.0196159
-0.0324785
-0.0117076
-0.06519
0.01369
-0.0326221
0.011934
0.0331447
-0.0266889
0.0394115
-0.0331167
0.0183455
-0.00656481
-0.00118896
-0.0227971
0.0213107
0.0827087
-0.0624593
-0.0696626
0.062452
0.0977695
-0.00134773
-0.0317653
0.00367663
-0.00758735
-0.0110265
-0.0307458
-0.00201398
-0.0176525
0.00846818
0
0
0
-0.0091296
0
0.0103651
0
0
0
0
0
0
0
0
-0.0323308
-0.0121887
-0.029183
-0.0343649
0.00773706
-0.0225231
-0.0404812
-0.0388322
-0.0245591
-0.00562535
-0.0418115
0.0517322
0.0431309
-0.0514169
-0.0699757
0.04569
-0.0423658
-0.0758252
0.0108535
-0.0240652
-0.0293117
0.00400911
-0.00490551
0.0111194
-0.0130927
-0.0183392
0.00812801
0.00290315
-0.0178138
0.00432469
-0.00131309
-0.0105945
0.00933597
0
0
0
0
0
0
0
0
-0.0122954
0
0
0.00109297
0.0751455
0.0106075
0.0615581
0.020535
0.0267402
0.0404642
-0.00998544
-0.038359
0.035704
-6.75287e-05
-0.0280313
0.00924384
0.0108018
0.0115132
-0.0386177
0.00176154
0.00185076
0.00669564
-0.0024846
-0.00183797
0.0129088
-0.0210614
-0.0175728
0.00427551
-0.0314997
-0.00278154
0.0122221
-0.00575416
-0.00270479
-0.00267789
0.00622026
-0.00696795
0.00435786
0.00547504
-0.0210714
-0.0236222
-0.0214221
-0.00267518
-0.0213687
0.0254568
0.00262325
-0.077517
-0.0433562
-0.00479701
0.0366443
-0.053015
-0.035962
-0.0331384
-0.0309228
0.00367783
0.0165608
0.0264484
-0.0513609
0.0172616
0.00562188
0.0418012
-0.0935012
0.0807672
-0.0233771
-0.170343
0
0
0
0
-0.0194696
0
0
0.0116144
0.00636321
-0.0138768
0.00456888
0.0668175
0.0486738
0.0434561
0.0261664
0.0585043
0.0281184
0.0217567
0.0241862
0.0666915
0.0185447
-0.0131857
0.0541683
-0.035848
-0.089791
0.0242139
-0.0421759
-0.0990614
-0.057683
0.0516565
0.0120237
0.00389815
-0.0181501
-0.00675639
-0.0151516
0.00309359
-0.0157316
-0.0192723
-0.0130488
0.00916534
-0.00754634
0.0130279
0.000651176
0.00160749
0.00150512
-0.00219213
-0.0219837
0.00522502
-0.0076051
-0.021566
0.0155859
-0.000743232
-0.0211474
0.00155876
0.0118627
-0.0135283
-0.00362832
-0.0133452
-0.0155931
0.00487736
-0.0673608
-0.0565523
-0.00130457
-0.0585231
-0.0648217
-0.0141796
-0.0179754
0.0476847
-0.0523972
-0.0316899
-0.0541481
-0.0363767
0.0955987
0.0919716
0.0665904
-0.0476829
0.0339058
0.077142
-0.020485
0.029789
-0.035557
0.0682924
0.0042301
-0.0406984
0.010892
0.0407825
0.0523142
-0.0131562
-0.0349135
-0.0502479
-0.0376857
-0.0450756
-0.0142056
-0.026634
-0.067048
-0.0162563
0.0664136
0.0484832
0.00144173
0.0152378
-0.0275324
-0.0246442
0.0263749
0.00896458
-0.0316176
-0.0235489
-0.00813916
0.00161179
0.0181888
-0.0155308
0.0370612
-0.0086046
-0.0447205
0.000664247
-0.030484
-0.0409812
-0.0394241
-0.0178764
0.0573073
-0.00038481
-0.0387348
0.0149301
-0.0155398
0.00748972
0.0176998
0.0088248
-0.0279503
0.0067289
0
0
0
-0.0232348
0
0
-0.0238449
0
0
0
0
0
0
0
0
0
0
0
0
0
0
0
0
-0.0390327
-0.0209041
-0.020021
-0.0161066
-0.0190961
0.0126894
0.00290886
-0.0322574
-0.02785
0.0171945
-0.0356528
-0.0484031
0.0183532
-0.0328949
0.0515902
0.0132347
-0.0285533
-0.0241609
-0.00560815
-0.00696478
0.0080542
-0.0140276
-0.0113388
0.00628472
-0.0112
-0.00894713
0.000447241
-0.0111398
-0.0141351
-0.00150526
0.00347428
-0.00361547
0.0202043
-2.67007e-05
0
2.07739e-05
0
0
-2.01792e-05
3.05924e-07
-3.74779e-07
2.67955e-05
-2.8068e-05
9.93845e-06
0
0
0
0
0
0
0
0
0
0
0
0
0
0
0
0
0
0
0
0.00601477
0
-0.0846045
0.0645521
0.152619
-0.0415014
0.0458333
0.0134728
-0.0166079
0.0297196
0.00281677
0.0127268
0.0190424
0.0155638
0.00339596
-0.022596
0.0129769
0.00859227
-0.0230785
-0.00642509
0.0234729
0.00881256
-0.00444829
-0.0181043
0.00947684
-0.0191858
0.0166375
-0.00107691
0.00112997
-0.00939644
-0.00735586
0.0286586
0.013464
0.0119207
0.0133795
-0.0254734
-0.0256839
0.0194328
0.0334009
0
0
0
0.00451476
-0.00204568
0.00663329
0
-0.0212654
0.0158564
-0.037838
0.0276767
-0.012991
0
0
0
0
-0.0706518
-0.0362241
0
0
0
0
0
0
0
0
0
0
0.070545
0.00796869
-0.0933801
-0.00252928
-0.0239175
-0.0752839
-0.0146536
0.0576975
0.0144236
-0.0339262
-0.0272933
-0.00584459
0.0467489
-0.0285609
-0.0159236
0.00162481
-0.0306047
0.0613821
0.0375291
0.0415714
0.0260589
0.0162869
0.0443196
0.0610084
0.0516988
0.0625781
0.0678971
0.0267923
0.0197721
0.0672939
0.0375052
-0.0358523
0.0342441
-0.0820549
-0.117756
0.04279
-0.0632192
-0.0264783
-0.0679572
0.0236037
-0.0271258
-0.015942
0.0108542
0.000426812
-0.0109104
-0.000458747
0.0150854
-0.0187137
0
0.00447874
-0.0228036
0.0101582
-0.010886
0.0221158
-0.0165475
-0.00414016
-0.0285588
-0.013872
0.0117343
0.0350157
-0.00454436
0.0188692
0.0369472
0.0240541
-0.0187064
-0.0157647
0.0228634
-0.00444397
-0.0541488
0.0295349
0.0678096
-0.00201903
0.0203778
0.0877799
0.0157689
-0.00850487
0.0354541
-0.0544609
0.0307244
0.00571115
0.105204
-0.0556701
-0.0891801
-0.0018991
-0.0485754
0.0220391
0.0475418
-0.0389418
-0.0478715
0.00549596
0.0486696
-0.0111811
-0.0135702
0.0291923
-0.0666731
-0.0449504
-0.0365598
-0.0764499
-0.0233454
-0.0540689
-0.055727
-0.0667644
-0.0144064
-0.0130643
-0.0199884
-0.0298049
-0.0421854
-0.00180397
-0.0196405
-0.00985211
0.00412237
0.00649297
0.00811061
0.0214266
0.0186812
0.00919951
-0.0166783
-0.0472209
-0.00127936
0.0324931
-0.00387225
-0.0316953
-0.0532047
-0.00412267
0.0339986
-0.020346
-0.0631483
0
0
-0.00203049
0.00220115
-0.00877334
0.0236979
0.0248395
0.0419607
-0.0897473
0.0547538
-0.0784024
0.0155426
-0.0884307
-0.0658027
0
0
0
0
0
0
0
0
0
0
0
0
0
0
0
0
0
0
0
0
0
0
0
0
0
0
0
0
0
0
0
0
0
-3.63085e-05
0
-1.85938e-05
0
-3.01416e-05
-9.18114e-06
-1.38243e-05
2.53868e-05
1.42062e-05
-4.17723e-05
0
0
2.3078e-06
0
0
0
0
0
0
0
0
0
0
0
0
0
0
0
0
0
-0.0268921
-0.00908315
0.000214568
-0.00654382
-0.0195312
0.0289512
0.0258911
-0.0131248
-0.00920712
-0.0073453
-0.0221623
0.0384769
0.0178718
-0.0015452
-0.00387083
-0.0136944
-0.00788407
0.000900102
-0.00723007
0.0113794
-0.0125221
-0.0118713
0.00232028
-0.00621002
-0.0134682
-0.00839492
0.000620977
-0.014032
-0.00243483
-0.00482724
-0.0117293
-0.00389478
0.0115245
0
3.49032e-05
0
0
0
0
0
0
0
1.71266e-05
0
0
0
5.48829e-05
-0.00014238
0
0
0
0
0
0
0
0
0
0
0
0
0
0
0
0
0
0
0
0
0
0
0
0
0
0
0
0
0
0
0
0
0
0
0
0.0471644
0.0233001
-0.0126199
0.0396962
0.0909663
0.00858113
0.0384685
0.0447143
0.00134934
0.0158334
0.0364261
0.00519969
-0.000423827
0.0293391
-0.0276173
-0.0139734
0.0222674
0.0344846
-0.015356
0.0128585
-0.0447663
2.18406e-05
0
0
-6.08818e-05
-2.22664e-06
0
0
2.57931e-05
0
0
0
0
0
0
0
0
0
0
0
0
0
0
-0.00663634
-0.00807037
-0.0113372
-0.0146191
-0.0158026
0.00155212
-0.00182385
0.00395947
-0.0163244
-0.011298
-0.0266489
-0.0320227
-0.0445181
-0.00291406
0
0
0
0
0
0
0
-0.0394274
0
0
-0.0445423
0
0.00244225
-0.0138406
-0.0049539
0
0
0
0
0
0
0
0
0
0
0
0
0
0
0
0
0
0
0
0.0465247
-0.0580273
0.0138651
0.0383279
-0.00497957
0.0394638
0.0531117
0.00900384
0.0156122
0.0571765
-0.0514667
0.0483338
0.0391125
0.0352207
0.00376089
0.0668863
0.0663866
0.0597995
-0.041693
0.0172323
0.00896333
0.0739576
-0.02943
0.0259827
0.0472034
0
-0.00513136
0.0743535
0.0874866
-0.0412105
-0.0264465
-0.0829219
0.0781095
0.0278772
-0.0324301
0.0367056
0.00113894
-0.0519441
-0.00437059
-0.0837251
-0.0286234
0.0393098
0.119582
-0.120145
0.0927283
0.184239
-0.0170872
-0.148369
0.0496248
-0.0228734
0.0171016
0.00524746
0
-0.0388122
0
0
0
0
0
0.00300801
0.0187256
0.0265639
0.0269767
-0.0438697
0.0129205
0.0349532
0.0237647
-0.0124022
-0.00793495
0.0297697
-0.059582
-0.0749859
-0.00630958
-0.0102878
-0.0368911
0.0153472
0.017728
0.0430503
-0.0253207
-0.00497594
0.0346422
0.0180965
-0.0285718
-0.0649669
-0.0332595
-0.0248014
-0.0732832
-0.0507317
-0.0707829
-0.0334136
-0.0553411
-0.0572422
-0.00184487
0.0460519
-0.0203692
0.0375778
-0.0297824
-0.0215191
0.0115324
-0.0377206
0.00924524
-0.056509
-0.0580733
-0.0447946
-0.0157945
-0.0308333
-0.0326658
-0.017166
-0.054169
-0.0296923
-0.0235206
-0.0115678
-0.0230822
-0.0101267
0.00789802
-0.039241
0.00287179
0.0203566
-0.0718348
0.0107448
-0.041786
-0.0833869
-0.0371778
-0.046781
0.0503532
-0.0678087
0.0586202
-0.0643999
0.00609542
-0.0193084
-0.0552947
0.0157897
-0.0762539
0.00273624
0.0580022
-0.0350965
0.057989
-0.0427126
0.0178681
0.0631354
-0.0372466
0.0676592
0.0489398
0.0352999
0.0755474
-0.0420066
0.0701309
0.0230666
0.0222501
-0.0670592
0.0232572
0.0650821
0.0418447
0.016239
0.0695122
0.00986425
0.0669451
0.0801615
0.0520637
0.069142
0.0286942
0.0644862
-0.094918
0.0829032
0.0654557
0.0674099
0.0309031
-0.0980287
0.0932315
-0.0649991
-0.00210548
0.025857
-0.0573928
0.0121679
0.023421
0.0114616
0.0122085
-0.0410408
-0.0104279
0.0374349
-0.114368
0.0127356
-0.010964
0
-0.0696536
0
0.00528616
-0.0420691
0
-0.025363
0
0
-0.0583246
0
0.0588217
-0.116127
-0.0296547
0
-0.0447729
0
0
0
0
0
0
0
0
0
0
0
0
0
0
0
0
0
0
0
0
0
2.75374e-05
7.92451e-05
0
0
0
0
0
0
0
0
0
0
0
0
0
-2.45227e-05
-9.21485e-05
0
0
0
0
0
0
0
0
0
0
0
0
-6.92382e-05
0
0
0
0
0
0
0
0
-2.95273e-05
-1.46444e-05
0
0
0
0
0
0
0
0
-2.14672e-05
-2.28418e-05
0
2.40222e-05
4.96923e-05
0
0
-1.44602e-07
0
0
0
0
0
0
0
0
0
0
0
0
0
0
0
0
0
0
0
0
0
0
0
0
0
0
0
0
0
0
8.74097e-05
-0.0101201
0.0195054
0.0139339
-0.0270011
-0.0279481
0.00535617
0.0125175
-0.014557
0.00748275
0.00779484
0.0172137
-0.0134961
0.00586474
0.0135647
-0.00796483
0.0154578
-0.0238704
-0.00765183
0.0105897
-0.0160311
0.00915793
0.00304678
-0.00478398
-0.0133013
-0.00588371
0.0061708
-0.00492326
-0.00524155
2.03215e-05
-0.00776136
-0.0210755
0.00803703
0
0
0
-2.78663e-05
2.70138e-05
5.58547e-05
0
0
0
0.000195576
0
0
3.96028e-05
0
-1.51686e-05
0
0
0
0
0
0
0
0
0
0
0
0
0
0
0
0
0
0
5.00686e-05
4.86316e-05
2.01783e-05
0
-4.73763e-05
0
0
0
0
0.00432
0
-0.0543558
0.0533587
0.0449332
0.00668558
0.0456333
0.0729451
0.0248828
0.037179
0.0747152
0.0392977
0.00070382
0.0577192
-0.0345282
-0.00206464
0.0543969
-0.0603483
-0.0146025
0.0445896
0.0512442
-0.0180092
0.0433039
0.0297391
3.36041e-05
0
0
-2.50278e-06
0
3.62757e-05
0
-9.1731e-07
0
5.36943e-07
0
-1.12599e-06
-3.09008e-08
0
0
0
0
0
0
0
0
0
1.42908e-05
0
0
0
0
0
0
0
0
0
0
0
0
0.00334612
0.0330564
-0.00968514
-0.00778614
0.000769563
0.0162869
0.0130864
-0.00236751
0.00724643
-0.0379897
0.00266275
0
0
0
0
0
-5.6852e-05
3.50106e-05
0
0
0
0
0
0
0
0
0
0
0
0
-4.01276e-05
-9.48668e-05
-0.000335544
0
0
0
0
0
0
0
0
0
0
0
0
0
0
0
-1.15687e-05
0
-1.1964e-05
0.0578829
0.0779047
0.0155543
0.0513081
0.0340287
0.00861787
0.0329169
0.00930727
0.00713233
0.0371598
0.0475154
-0.061268
0.0740258
0.0346659
0.0270913
0.0622229
0.0361826
-0.00828727
0.0258419
0.0642202
-0.0522727
0.0307144
0.0736194
0.0475804
0.0181249
0.0685343
-0.0530949
-0.00787841
0.0686075
-0.0813735
-0.0226668
0.07362
0.0963634
-0.0267218
0.0690376
0.0975908
0.0691876
0.0890579
-0.0587826
-0.0185275
0.0885415
0.0786772
-0.0157744
-0.0917114
0.0457651
0.0544529
-0.0645736
0.0338731
-0.0291662
-0.00534593
0.0992767
0.0290123
0.0212145
0.0144969
0.00943782
-0.0101586
-0.000231283
-0.065668
0.0395895
-0.00908215
0
0
-0.0487479
-0.025173
0.0296152
-0.0170913
-0.0646252
0.00960104
-0.068652
-0.0151902
-0.0446447
-0.33052
-0.109523
-0.00010957
0
0
0
0.00502513
0
0
0
0
0
0
0
0
0
0
0
0
-0.00662735
0
0.00765648
0
-0.0453759
-0.00858558
0.0452171
-0.00536996
-0.00944524
0.0394954
-0.014836
0.0320872
-0.032954
-0.020967
0.0169192
-0.0087795
-0.0109326
-0.0429495
-0.0216524
0.0462338
-0.03553
-0.0461515
-0.0418399
0.00504674
-0.0105326
0.0422486
0.0368276
-0.00561192
-0.0595063
0.0014954
0.0320691
-0.0586743
-0.00947071
0.0496506
0.0730533
-0.0417128
0.0207736
0.0428555
-0.0305343
0.0229799
-0.0583675
0.000544508
-0.0365719
-0.0604725
-0.0083408
0.00186388
-0.0297469
-0.0101963
-0.000811916
0.0515454
-0.0221684
-0.0387814
0.00224442
-0.0210832
-0.0342258
-0.0155842
-0.0673785
-0.0560312
0.0136962
-0.0847989
-0.0572287
0.0389496
-0.0593097
-0.0412763
-0.0665127
-0.0871755
-0.0248033
-0.0649532
-0.0581854
-0.00568452
0.0636332
-0.0519476
0.00134757
0.0759681
-0.0514542
0.00936265
0.0776414
-0.0517668
0.0139275
0.0727707
-0.0200211
0.0248592
0.0731013
0.0111842
0.0507563
0.0681651
0.0243924
0.0679695
-0.058989
0.0237317
0.0734525
0.0555748
0.0143583
0.0735378
0.0699834
0.0469706
0.0152424
0.0563111
0.072128
0.0635598
-0.0426307
-0.0119287
0.0574579
0.0620867
0.0421773
0.0686609
-0.0529435
0
0
0.016219
0.026569
-0.0136638
-0.0463684
-0.014746
0.0625185
0.0364297
0.0238352
-0.0131529
0.0625476
0
-0.0194919
0
0
0
0
0
0.00511507
-0.00749093
0
0
0
0
0
0
-7.1151e-05
0.000139099
0.000123308
0
6.31521e-05
0
0
0
0
0
0
0
0
0
0
-0.000156091
0.000578643
-0.000471339
0
0
0
-1.53274e-05
0
9.04706e-05
0
-3.16012e-05
0
0
0
0
0
0
0
0
4.82189e-06
-4.41571e-05
0
0
0
0
-0.000107224
0
0
0
0
0
0
0
0
-1.9582e-07
-1.00042e-06
0
0
0
0
0
0
0
0
0
0
0
0
0
0
0
-2.45707e-05
0
0
0
-1.32335e-05
-1.35585e-05
0
0
0
0
0
0
0
0
0
0
0
0
0
0
0
0
0
0
0
0
0
0
8.05195e-07
0
0
0
0
0.0138401
-0.0222431
0.0233323
0.0210526
-0.0118614
-0.0241941
-0.00835191
0.0209459
-0.0261222
-0.00492339
0.0102863
-0.021839
-0.0087498
0.0172573
-0.0168616
-0.00620007
0.0136462
0.0315473
-0.00811847
0.00871561
0.0182418
0.0165983
-0.00475605
-0.0194405
0.00294298
0.000550973
-0.00140377
-0.00746234
-0.0125344
0.00421673
0.00453352
-0.0122044
0.0165461
-3.32021e-05
0
-1.04298e-05
6.49446e-05
-1.13472e-05
-9.63154e-07
0
0
0
0
0
0
0
0
0
0
0
0
0
0
0
0
0
0
0
0
0
0
0
0
-6.89346e-05
0
0
0
0
0
0
0
0
0
0
0
-0.00665255
0
-0.0413004
0.0540744
-0.0310896
-0.0107337
0.0395713
0.0462445
0.0317431
0.027944
0.0503167
-0.0557856
0.00237266
0.0510897
0.0420717
-0.0127739
0.0557826
0.0588375
-0.0296782
-0.00498288
0.0427731
-0.0244096
0.0326635
-0.0383412
0
0
0
0
0
0
0
0
0
0
4.11755e-07
0
0
0
0
0
0
0
0
-0.0049954
0
0
0
0
0
0
0
0
0
0
0.00688474
0
0.00195066
0
0
0
0
0
0
0
0
0
0
-0.00435577
0
-6.9909e-05
0.00352828
0.00153188
0
-0.0485932
0
0
0
0
-2.18665e-05
0
0
-0.0130531
0.00251347
-0.0247267
-0.0245456
0
0
0
0
0
0
-1.47772e-05
-2.26839e-05
3.00786e-06
0
-8.07241e-06
0
4.83793e-05
0
0
0
0
0
0
3.7168e-07
0
-1.29671e-05
0
0
0
0
0
0
0
0
0
0
0
0
0
0
0.0277796
-0.00490451
0.032508
-0.00099538
0.0279782
-0.0154187
0.0287895
0.0279234
0.00904363
0.00540852
-0.0415034
0.0287925
-0.00389285
-0.0265527
-0.0020484
0.0298327
-0.005626
0.0579698
0.0676238
-0.0438776
0.0542065
-0.0179147
0.060665
-0.0353357
0.0519116
0.0659934
-0.0246911
0.0597812
-0.0345058
0.0434242
-0.0654119
0.0518195
-0.0202813
-0.011511
0.0531448
0.0589865
-0.0127044
0.0722236
0.0878048
-0.00150615
0.0733852
-0.0728673
0.0104668
0.07154
0.0486243
0.052421
0.0488365
-0.0128037
0.0646158
0.0215576
0.0039056
0.0238006
0.0151907
0.0167928
0.0173886
0.0674155
-0.0702171
0.0769682
0.0263721
0.0382875
0.0651028
0.019467
0.0301123
0.0289411
0.0716961
0.0504589
0.000760379
0.0730519
0.0799477
-0.020782
0.0721557
0.0999724
-0.0349901
0.0756532
0.120216
-0.0274627
0.0800668
0.114765
-0.00671217
0.0931867
0.0961238
0.0852962
-0.01566
0.0993112
0.0942792
-0.00736227
0.10282
0.019047
-0.024092
-0.0536155
0.0417651
-0.0307381
-0.0333585
0.00446094
0.000471087
0.00293401
-0.00406907
0.00893579
0.0412269
-0.0128586
0
-0.0511871
0
0.0270906
0.0268049
0.0635139
0.0298654
0.0185902
0.0627079
-0.0281629
0.0222151
0.0492043
0.0172307
0.0141622
0.0464932
0.0145795
0.0187249
0.0279578
0.0129464
0.0279546
0.0303282
-0.00951206
0.0301349
0.0374284
-0.0038778
0.0277539
-0.000871198
0.0114948
-0.00429734
0
1.68082e-05
2.62716e-05
0
-0.0627279
0
-0.0630552
-0.0434289
0.0536317
-0.285134
-0.0528012
-0.170603
1.40666e-05
-0.0418953
-1.07197e-05
2.29366e-05
-1.46992e-05
-7.74408e-06
0
-4.41239e-05
0
0
0
0
0
0
0
0
0
0
0
0
0
-0.000984107
5.15486e-05
7.64165e-05
0.000724707
0
-0.00711095
0.00272472
0.00758718
-0.0545642
0.0172399
0.0734876
-0.030528
-0.0018388
-0.0449839
-0.0262535
0.0164799
-0.0659757
-0.0364824
0.0403235
0.00582639
0.0294789
0.0608526
0.00657536
0.0358863
0.0453091
-0.0151252
0.07808
-0.0120924
0.0345251
-0.0833426
-0.0214105
0.0536176
-0.0706516
-0.0269963
0.0348243
0.0512057
-0.0157063
0.0624384
-0.0612168
0.0145972
-0.0169333
-0.0606134
-0.0504827
-0.0496908
-0.0240223
-0.0588347
-0.0221394
0.0550902
-0.0794966
-0.0546959
0.00142607
-0.0896094
-0.102687
0.0060539
-0.0911836
-0.0751809
0.0290888
-0.049234
-0.0540305
-0.0886184
-0.0896656
-0.0438673
-0.0611991
-0.077882
-0.0326317
0.0716048
-0.0770602
-0.0231857
0.0721652
-0.0668655
-0.0155977
0.0777982
-0.0594311
0.00697182
-0.0776974
-0.0575586
0.0214444
0.0838485
-0.0223722
0.0180877
-0.0710438
0.00635332
0.0339584
-0.0568244
0.0196115
0.0541957
0.0456955
0.020517
0.0599874
-0.040127
0.0198579
0.0604596
-0.0355661
-0.030628
0.0573166
0
-0.0144552
0.0373787
0
0
0
0
0.00711691
0
0
-0.0139485
0
0
0
0
0
0
0
0
1.61174e-05
0
8.72775e-05
0
0.0104173
0
0
0.000159257
0
-0.00011223
0
-0.000192369
0
-6.96894e-05
0
0
0
0
0
-4.65962e-05
0.000106919
0
3.96835e-05
5.59783e-05
-1.89163e-05
0.000308712
0
0.000251448
7.90338e-06
-0.000369935
1.44249e-05
0
0
0
0
0
0
0
0
0
0
0
0
-4.45563e-05
0
-0.000118593
0
0
0
0
0
0
0
0
0
0
0.00324535
0.00206379
0
0
0
0
0
0
0
0
0
0
0
0
0
0
0
0
0
0
0
-1.16705e-05
1.93799e-05
-2.74305e-05
0
0
0
-5.60824e-05
1.7333e-05
0
0
0
0
0
0
0
0
0
0
0
0
0
0
0
0
0
0
0
0
0
0
0
0
0
0
0
9.69775e-06
0
-4.16969e-05
0
0
0
-9.91731e-06
0
1.7029e-05
0.0202737
0.00916972
-0.0521696
-0.0457341
0.0115659
0.00968643
0.003608
-0.00515979
0.0161422
-0.00349997
-0.0260685
0.0245979
0.0105023
0.0278334
-0.00146434
0.0147716
-0.0152067
-0.00315528
0.0110215
0.00660118
-0.000910775
0.0068009
-0.0162339
-0.00120288
0.0159026
-0.00882169
-0.00764012
0.00467973
0.00185158
0.000182373
0.0137005
-0.021524
0.00363905
-0.00778742
-0.011529
0.00272571
-0.023813
7.60058e-07
0
0
0
0
0
0
0
0
0
0
0
0
0
0
0
0
0
0
0
0
0
0
0
0
0
0
0
0
0
0
0
0
0
0
0
0
0
0
0
0
-0.00315262
0.0403406
-0.0180352
0.0181952
-0.0310049
0.0098516
-0.0142589
-0.0078304
0.0067135
0.00794727
0.000540151
0.0174072
0.0358575
0.0155181
0.0273287
0.0425717
-0.00993357
0.0209695
-0.0225363
-0.0112602
0.0195128
0.0238193
-0.00290145
0.00279584
0
0
9.41248e-06
7.09417e-07
0
0
0
0
0
0
0
0
0
0
0
0
0
0
0
0
0
0
0
0
0
0
0
0
0
0
0
0
0
0
0
0
0
0
0
0
0
0
0
0
0
0
0
0
0
0
0
0
0
0
0.0259205
-0.00966924
0.00305669
-0.0231913
0
0
0
0
0
0
0
0
0
0
0
0
-0.0421968
0
-0.00689344
0
0
0
0
0
0
0
0
0
0
0
0
0
0
0
0
0
0
0
0
0
0
0
0
0
0
0
0
0
0
0
0
0
0
0
0
-0.00383766
0.0231466
0.0284243
-0.0383003
0.00871037
0.0152927
-0.0306892
-0.00111899
-0.0297249
-0.00484458
0.0434674
-0.0461146
-0.00840827
0.0645391
-0.0580952
-0.0176462
0.0609001
0.073712
-0.0213506
0.0579957
-0.0680185
-0.0146241
0.0540627
-0.0372668
-0.0033283
0.0886907
-0.0909412
0.0119756
0.0823982
0.0632013
0.00184164
0.0776958
-0.0655959
0.0606947
0.0341115
-0.0650813
0.0606275
-0.00460043
0.011135
-0.00530495
0.000444961
-0.0706403
-0.0222013
0.066585
0.0719775
0.0755137
0.0467713
0.0284834
0.0591159
0.057047
-0.000221799
0.062175
0.0712249
-0.00747947
-0.0856144
0.0641197
-0.00999265
0.0692653
-0.0367845
0.0752907
0.116017
-0.0515893
0.0720989
0.13837
-0.0380595
0.0887326
0.139825
-0.0104223
0.100348
-0.116553
-0.00753132
0.0961802
-0.107128
0.0863563
-0.00657296
-0.10139
0.100895
0.00284101
0.0872975
0.0367008
-0.0485964
-0.0323726
0.0328304
-0.0144239
0.0214707
0.0594588
-0.00941067
-0.0149494
-0.0222181
-0.024976
-0.000294209
0.0776201
-0.0213763
-0.00155615
0
0.0451968
0.0363727
0.0361443
0.0291719
0.0507982
-0.0174797
0.0339483
0.0502065
-0.0120197
0.0288767
0.00657225
0.0455961
0.0269191
0.0345256
0.00154297
0.0289793
0.0298459
0.00423966
0.0459513
0.0397208
-0.00609503
0.0282459
0.0282566
0.00558086
0.0192097
0.0192666
-0.0139313
0.019327
0.0117559
0.000578746
0.0373549
0.0262023
0.0393201
-0.0144689
0.0090843
0.00427565
-0.0145991
-0.016858
-2.76339e-05
3.40822e-05
7.06446e-05
-6.96282e-05
0
3.74606e-05
0
-0.0800859
0.0238039
0
-0.0431791
0
-0.000114154
0
0
0
0
0
0
0
0
0
0
0
0
0
0
0
3.83111e-05
3.19201e-05
0
-2.5128e-05
0
0
0
0
-0.0371906
-0.0223911
0.00447747
0.106242
0.0295518
0.0265751
-0.0244637
-0.0145021
0.0354994
0.027066
-0.0385196
0.0173044
0.04043
0.0164689
-0.0366876
0.0578246
0.00147751
0.0227612
0.0343753
-0.0197376
-0.058787
0.0316904
-0.0257768
-0.0695531
-0.0137358
0.0558262
0.0769932
-0.0766063
0.0324865
0.0871582
-0.0325044
0.00939149
-0.0526163
-0.0683025
0.0108544
0.075712
-0.0241374
-0.0752074
-0.0495965
-0.0638273
-0.0700785
-0.0298979
-0.0842133
-0.0541891
-0.0544937
-0.0997988
-0.109747
-0.0138602
-0.0814486
-0.0987366
0.0313457
-0.0487115
-0.0544262
-0.0909647
-0.0891336
0.0217498
-0.0970455
-0.0561566
0.0556228
-0.0940163
-0.0434512
0.0639318
-0.0893182
-0.0335606
-0.0718284
-0.0690875
-0.0146505
0.0758424
-0.0618594
0.0108128
-0.0796724
-0.0583692
0.0148629
0.0735162
-0.0222668
0.00457324
0.0499442
0.00915661
0.0265936
0.0358318
0.0232666
0.0476274
-0.026184
0.0273032
0.0525539
-0.022846
-0.0208538
0.052274
0
0
0
0
0
0
0
0
0
0
0
0
0
0
0
0
0
0
0
0
0
0
-0.000147861
0
0
0
0
0
0
-6.51203e-06
0
0
0
0
0
0
0
-0.000154622
0
0
0
0
3.11732e-05
-2.04798e-05
-2.20049e-05
0
3.78131e-06
0
0
0
0
0
0
0
0
0
0
0
0
0
0
0
0
0
0.00346337
-0.00284588
-7.24167e-05
0
0
0
0
0
1.01197e-05
0
9.20184e-05
0.00584929
0
-0.00210499
0
-0.00156795
0
0
-0.000113773
-4.61562e-05
5.92468e-06
0
-3.10644e-05
0
0
0
0
0
0
0
0
0
-5.24551e-05
-3.38035e-06
-2.02344e-05
0
-1.67824e-05
0
4.5104e-06
-2.02037e-05
-7.05845e-06
0
4.29082e-05
0
0
0
0
1.02013e-05
0
-6.49176e-05
0
-1.59579e-05
-2.40326e-05
0
0
0
0
0
0
0
0
0
0
0
0
0
0
0
0
0
0
0
0
0
-5.83196e-06
0
7.59252e-06
0
0
0
-4.43674e-05
0
0
0
0
0
0
0
0
-0.00654738
0.0142558
0.00618406
-0.035289
0.0143998
0.0166645
0.000446485
0.00953158
0.00624438
0.00369216
0.00236329
0.0152976
0.0274285
0.0106217
0.0111398
0.0064618
0.000899797
0.0107656
-0.0115214
0.0205503
0.00504345
0.00946657
0.00825385
0.00596499
-0.00298633
0.0101595
-0.00121613
0.0126069
0.00914666
-0.0160898
-0.00383954
-0.00622279
-0.014925
-0.00599144
-0.0183262
-0.0302819
-0.0103481
-0.0120397
0.0053198
-0.00227152
0
0
0
0
0
0
0
0
0
0
0
1.73197e-05
-0.00243834
-0.0295736
3.26553e-05
0
0
0
0
0
0
0
-1.52982e-05
0
0
0
0
-4.41719e-07
0
8.64907e-07
0
4.22206e-07
0
0
0
0
0
0
0.0121142
0.00781577
0.0037316
0.000631121
-0.0219316
0.0326724
0.0337973
-0.0272741
0.00532432
0.0307686
0.0268437
0.0207665
-0.00510902
-0.0151184
0.00386045
-0.0291187
-0.0197039
0.000768947
0.00852589
0.0138013
0.0116838
0.00223112
0.00417952
0.00142908
2.49838e-08
0
0
7.56491e-07
0
-7.92391e-06
0
0
0
0
6.72848e-10
0
-1.44239e-06
0
1.44606e-06
0
0
0
0
0
0
0
5.88259e-05
0
3.82635e-06
2.37304e-05
3.4037e-05
-1.53004e-05
0
0
0
0
0
0
0
0
0
0
0
0
0
0
0
0
3.83928e-06
3.11722e-05
0
0
0
0
0
0
0
0
0
0
0
0
0
0
0
0
0
-3.20039e-05
0
5.84666e-05
-0.0366838
0.00917798
0.00967516
-0.0360768
-0.0105847
-0.0136934
0
0
0
0
0
0
0
2.68275e-06
0
1.36039e-05
0
-4.30203e-05
2.54849e-05
0
0
0
0
0
0
0
0
0
0
2.76129e-05
-1.31596e-05
0
0
0
0
0
0
0
0
0
0
1.83625e-05
1.10446e-05
5.2944e-06
0
3.95717e-05
0
0
0
0
0
0
0
0
0
-8.25415e-06
0
2.82595e-05
-0.0139324
0.0439794
-0.023359
-0.0150439
-0.0101163
-0.0412981
-0.0621389
-0.0268754
0.0357452
-0.0457361
-0.0700999
0.0220793
-0.00567586
0.0578065
0.00727182
0.0138731
0.00858435
0.00356047
0.0405601
0.0208458
-0.0105451
0.0698447
0.0792117
-0.00348696
0.0742985
0.068004
0.0191075
0.0696443
0.0418179
0.018658
0.0575204
0.0437983
0.013012
0.0934922
-0.0761122
0.00498628
0.0894714
-0.086472
-0.00376188
0.0852252
0.0888094
0.0632069
-0.0226648
-0.0930701
0.0224894
-0.0114615
0.0345688
0.00251043
-0.0207654
0.101427
-0.0448946
0.0360105
0.0626769
0.0449041
-0.00406332
0.0536999
0.0410603
-0.00740724
-0.0808027
0.0729064
-0.0415773
0.10275
0.0594014
-0.0312244
-0.0790026
-0.0526843
0.0695624
-0.12796
-0.0447531
0.080436
-0.142982
-0.0229637
0.0882833
0.125549
-0.0100602
0.102512
0.109382
0.00120592
0.0943264
-0.100641
0.0932404
0.0158809
0.0744521
0.0682177
0.0229066
-0.0836902
0.0782633
0.0290973
-0.0341216
0.0032839
-0.00764946
-0.0106154
0.0282875
-0.00812497
0.0305695
-0.0202743
-0.0161549
0.0136185
0.0839983
0.0263605
-0.0136422
0
0.0628109
-0.0599138
0.032724
0.029863
0.0340163
0.00842763
0.0371674
0.0371536
-0.00131357
0.00756235
0.0323309
0.0413981
0.0357143
0.0146204
-0.026673
0.0406524
0.0294823
0.0156114
0.0396074
0.0217621
-0.0152396
0.0353378
0.0253793
-0.0214418
0.0325875
0.0237167
-0.0153861
0.00887761
0.0085404
0.0181997
0.0173137
0.0060096
0.0122924
0.0121517
0.048823
0.0267299
0.0191946
0.0172672
-0.0175315
-5.50217e-05
0
0
0
0
0
0
0
0
0
0
0
0
0
0
0
0
0
0
0
0
0
0
0
-9.67287e-06
0
-4.67759e-05
0
-2.52148e-05
0
0
0
0
-0.00762247
0
0
0.0235842
0.00616155
0.0277186
0
-0.0116379
-0.0311275
0.0135997
-0.0272575
-0.0105779
0.00619182
0.0343185
0.0428042
0.04203
-0.0129986
0.0208431
0.0303769
0.00208787
0.0531257
0.0473482
-0.0101043
-0.0598337
0.00522315
-0.0271316
0.104453
0.11857
-0.0373966
0.0320577
-0.0856157
-0.0838702
0.0679176
-0.0521944
0.00418836
0.0731228
-0.0496178
0.0267575
-0.0931004
-0.0502551
-0.090411
-0.071207
-0.107867
-0.0904111
-0.0348147
-0.106792
-0.0580408
-0.0640718
-0.0994686
-0.109359
0.0208774
-0.101174
-0.0945026
0.0115866
-0.101082
-0.0755724
0.0308157
-0.100741
-0.0609775
0.0481413
-0.0991684
-0.0541344
0.0581876
-0.0865894
-0.0305153
0.0676429
-0.0675809
-0.0160536
0.0682907
-0.0577003
0.00170531
-0.0586295
-0.0434091
-0.00158748
0.0400671
-0.00982039
-0.000105015
0.0231602
0.0185363
0.0212309
0.0115888
0.0279703
0.0382197
-0.00147011
-0.00307784
0.0324922
0
0.00939979
0.0064665
0
0
-7.3485e-07
7.66694e-07
0
0
0
0
0
0
0
0
0
2.07254e-05
3.84236e-05
2.26356e-06
1.3802e-05
0.00011995
-0.00015627
-2.38203e-05
6.24529e-05
0.000161606
0
-0.000220263
0.000220203
0.00233785
-0.00809029
0.00962125
0
0
0
3.38165e-05
0
3.26296e-05
-7.98975e-05
1.14564e-06
3.02606e-05
-0.00151029
-5.23548e-05
0
0
0
0
0
0
0
0
0
0
0
-1.34452e-06
4.37262e-07
0
0
0
0
0
0
0.00607652
0
0.00500869
0
0.0046129
0
0
0
0
0
0
0
0
-7.8007e-05
0
0
0
0
0
0
0
0
0
0
0
-3.5198e-05
0
0
0
0
0
0
0
0
0
0
0
0
-9.88574e-06
0
0
0
0
0
0
0
0
0
0
0
0
0
-7.85294e-05
0
0
0
0
0
0
0
0
0
0
0
0
0
0
0
0
0
0
0
0
0
0
0
0
0
0
0
0
0
0
0
0
0
0
0
0
0
0
0
0
0
0
0
0
0
0
0
0
0
-1.23317e-06
3.49832e-11
0
0
0
0
0
0
0.00197439
-0.00518185
0.00916592
-0.00428479
-0.028993
-0.00772773
-0.0188841
-0.00666825
0.0386724
-0.0367501
-0.0226928
0.022063
-0.00511353
0.0308679
-0.0123773
-0.026198
0.00191773
0.0403886
-0.00743104
-0.00809551
-0.037583
0.0522891
-0.00208158
0.0149622
0.0282742
-0.00689804
0.0304417
0.0197576
0.0148366
0.0199946
0.00329268
-0.00354018
-0.00104661
-0.0142966
0.00215861
0.0187407
0.000119292
0.00235535
-0.0280013
0.00640287
0.00786972
0.00186358
-0.0179656
-0.0148554
0
0
0
0
0
0
0
0.0248444
-0.0271999
0
0
0
0
0
0
0
0
0
0
0
0
0
0
0
0
1.05484e-05
0.000155054
0.000488706
0
0.000371349
-0.000101174
0
0
0
0
0
0.00307475
0.0263511
0.0199819
-0.00296368