/*--------------------------------*- C++ -*----------------------------------*\
  =========                 |
  \\      /  F ield         | OpenFOAM: The Open Source CFD Toolbox
   \\    /   O peration     | Website:  https://openfoam.org
    \\  /    A nd           | Version:  8
     \\/     M anipulation  |
\*---------------------------------------------------------------------------*/
FoamFile
{
    version     2.0;
    format      ascii;
    class       volScalarField;
    location    "5700";
    object      H;
}
// * * * * * * * * * * * * * * * * * * * * * * * * * * * * * * * * * * * * * //

dimensions      [0 1 0 0 0 0 0];

internalField   nonuniform List<scalar> 
526318
(
0.756025
0.713312
0.788804
0.700837
0.772033
0.723541
0.738456
0.654547
0.719133
0.593474
0.579139
0.697156
0.643353
0.685175
0.641737
0.66868
0.644256
0.841442
0.752854
0.795252
0.790608
0.744758
0.499361
0.746207
0.631254
0.496715
0.766391
0.767469
0.766383
0.781133
0.812413
0.856979
0.841552
0.7227
0.723366
0.691689
0.698276
0.785485
0.711792
0.664444
0.722791
0.694648
0.35848
0.415917
0.316376
0.364255
0.344385
0.457731
0.640034
0.548015
0.627288
0.629389
0.585189
0.542899
0.0415759
0.287313
0.283176
0.080179
0.798136
0.813551
0.834507
0.785786
0.729499
0.861084
0.852612
0.817782
0.79562
0.805563
0.700113
0.691806
0.812633
0.588657
0.638454
0.53736
0.487272
0.47797
0.575893
0.570752
0.490079
0.528057
0.608868
0.608366
0.564193
0.518876
0.54307
0.61561
0.614316
0.593818
0.548105
0.614415
0.519099
0.465134
0.464077
0.392213
0.387907
0.396865
0.393635
0.389962
0.39225
0.384967
7.97638e-05
2.15653e-06
0.000999291
1.03793e-14
0.000775868
0.000148343
0.300863
0.108132
0.420866
0.389733
0.429855
0.544293
0.771236
0.656574
0.766187
0.783676
0.853057
0.818091
0.862447
0.38553
0.383586
0.385991
0.39176
0.346263
0.38327
0.296532
0.341915
0.247872
0.300002
0.247647
0.250589
0.236623
0.215432
0.201623
0.232728
0.172795
0.226578
0.179454
0.196802
0.14502
0.148437
0.168434
0.200685
0.185991
0.138941
0.142039
0.154257
0.147426
0.142596
0.149116
0.159305
0.153231
0.154428
0.151045
0.146348
0.123254
0.144237
0.144054
0.121956
0.0792019
0.139876
0.107872
0.160964
0.656214
0.74716
0.693555
0.673597
0.481114
0.549091
0.483678
0.477293
0.478226
0.481225
0.502427
0.479094
0.417234
0.386182
0.35218
0.294641
0.351089
0.393552
0.393475
0.392828
0.280666
0.333904
0.223673
0.228303
0.236815
0.231637
0.233197
0.231833
0.221032
0.222644
0.223284
0.204727
0.187458
0.213124
0.205005
0.177097
0.15589
0.184856
0.168127
0.163573
0.179717
0.172325
0.178364
0.127742
0.157193
0.19056
0.184864
0.634493
0.645437
0.682064
0.651321
0.641289
0.632953
0.640448
0.512377
0.555538
0.298984
0.274877
0.284449
0.394081
0.5358
0.412949
0.446773
0.451453
0.397503
0.374062
0.000864092
2.93341e-16
0.0238827
0.229416
0.00027704
9.76159e-09
0.000995694
0.000255125
0.000396609
0.000963311
0.853889
0.832267
0.88269
0.874265
0.842076
0.828389
0.746403
0.823771
0.666635
0.612762
0.613236
0.616104
0.612481
0.612423
0.599814
0.600855
0.522773
0.57843
0.401379
0.45817
0.386755
0.396053
0.00100536
4.55059e-11
0.000154997
0.00100202
0.000103589
0.000987509
5.61822e-13
0.0162943
0.394844
0.208407
0.442511
0.446894
0.555641
0.66227
0.776186
0.787171
0.823851
0.793235
0.863598
0.89032
0.363851
0.361792
0.323951
0.294175
0.19435
0.233096
0.157748
0.168328
0.159128
0.151066
0.138683
0.146129
0.0763882
0.0888398
0.129815
0.1707
0.22119
0.195753
0.148301
0.153441
0.076941
0.0770414
0.12634
0.179257
0.0931391
0.145486
0.142852
0.113711
0.107841
0.0703719
0.0655694
0.0325128
0.0336897
0.0390884
0.0240401
0.144483
0.18004
0.150817
0.192299
0.547471
0.498728
0.410716
0.497017
0.416602
0.464744
0.479704
0.47131
0.48396
0.478325
0.389384
0.303774
0.233507
0.221656
0.293924
0.232535
0.218493
0.331931
0.219971
0.272276
0.210033
0.212377
0.21859
0.209657
0.224166
0.21836
0.21529
0.223384
0.221076
0.216804
0.227573
0.222352
0.239007
0.235179
0.237629
0.220603
0.232975
0.217045
0.19327
0.189984
0.21465
0.246497
0.233075
0.213337
0.19732
0.217082
0.260779
0.264188
0.263177
0.243015
0.269463
0.294023
0.325031
0.27904
0.285474
0.304134
0.357139
0.456069
0.535578
0.456929
0.49573
0.560139
0.635788
0.529864
0.4007
0.512797
0.413629
0.433985
0.161303
0.109987
0.141136
0.129002
0.248347
0.371321
0.299999
0.372815
0.367792
0.393115
0.371698
3.51056e-09
0.000869193
0.000619296
8.1071e-06
0.025045
0.000899198
0.000599399
0.00100998
0.000160582
0.00100962
0.000664765
0.00100889
0.000730728
0.000955715
0.000582482
0.000952703
0.873694
0.865177
0.900402
0.89023
0.866432
0.841031
0.762398
0.683757
0.612016
0.626822
0.600476
0.608909
0.576819
0.588123
0.56431
0.56592
0.51149
0.55745
0.477842
0.421973
0.364941
0.324013
0.000976966
0.00111831
0.00111874
0.000663073
0.000418644
0.000731205
0.000582985
0.000653044
0.00111759
0.0011185
0.000838681
0.00100984
0.000688738
0.00100942
0.00125915
0.00017911
0.000294407
0.000487392
0.000977135
0.00096135
7.31626e-08
0.000978536
0.000793614
1.85613e-05
0.100509
6.37386e-11
0.30469
0.46928
0.482373
0.578482
0.797975
0.687765
0.804114
0.81178
0.818871
0.851372
0.88302
0.896689
0.280013
0.280616
0.23664
0.263745
0.204152
0.167368
0.159673
0.160055
0.147739
0.151777
0.103997
0.0941862
0.0495146
0.073302
0.113271
0.100711
0.0696017
0.108851
0.108876
0.123728
0.0358929
0.0264857
0.0466657
0.0598279
0.0607513
0.0166157
0.0212887
0.0162936
0.0227262
0.00577476
0.00382935
0.306559
0.278902
0.277238
0.288971
0.30045
0.40725
0.363131
0.346539
0.222153
0.273727
0.251291
0.260993
0.148701
0.0932368
0.2732
0.38984
0.274634
0.277771
0.263133
0.34418
0.322697
0.390668
0.429871
0.352902
0.333482
0.36647
0.24784
0.209647
0.21491
0.220971
0.133998
0.177973
0.108036
0.0622964
0.0465321
0.167325
0.159808
0.213241
0.21229
0.210069
0.214241
0.20981
0.219813
0.206347
0.227347
0.213943
0.237637
0.231274
0.240255
0.241725
0.262501
0.247919
0.269665
0.273424
0.224335
0.206812
0.272915
0.255898
0.242715
0.263784
0.239817
0.2294
0.280736
0.264859
0.365533
0.370149
0.324335
0.362815
0.355769
0.334899
0.431203
0.396205
0.469519
0.492408
0.513943
0.429754
0.431989
0.433727
0.39292
0.377924
0.34659
0.437496
0.29537
0.257012
0.317169
0.333845
0.0138213
0.0644409
0.144771
0.265092
0.297052
0.335066
0.239132
0.195596
0.163799
0.106539
0.000965631
0.000310861
1.57553e-06
1.84795e-07
0.000957014
0.0114187
0.000993891
0.000234006
0.00100979
0.000545241
0.00024476
0.000470015
0.000926911
0.000208943
0.000861176
0.000986846
0.000766556
0.000551352
0.000138864
0.000388285
0.00097475
0.00101
0.00013498
0.00100021
0.000979614
0.000380337
0.00118622
0.000968004
0.000995722
0.0011862
0.00118621
0.00118621
0.000889328
0.000999494
0.0009727
0.000201819
9.59135e-05
0.000989075
0.000892979
0.0009482
0.00100959
0.000881287
0.00100809
0.00100869
2.68317e-05
0.000958177
0.868833
0.879065
0.901132
0.889282
0.868394
0.796028
0.613705
0.698395
0.583307
0.584545
0.564379
0.559112
0.556886
0.557806
0.544051
0.55031
0.497749
0.464192
0.365145
0.405852
0.261018
0.302016
0.000851104
0.000624444
0.000948563
0.000967574
0.000969466
0.000982262
0.000986514
0.000879074
0.000998153
0.000659852
0.000677989
0.000965569
0.000971308
0.000759356
0.000380116
0.000991326
0.000690401
0.00100737
0.000803925
0.000839513
0.000369052
0.000975289
0.000889611
0.000439439
0.000917861
0.00068906
0.00101
0.000641909
9.45978e-06
6.82991e-05
0.00069035
0.000719123
0.00149149
0.000969959
0.283452
0.114403
0.493245
0.451443
0.517194
0.62797
0.727954
0.810014
0.82255
0.804787
0.849646
0.879244
0.864791
0.865553
0.00101
0.000734461
0.000886173
0.000267725
0.000893815
0.000922867
0.00081396
0.000932851
0.000890554
0.000725685
0.000975785
0.00092383
0.000794854
3.67426e-07
0.00079829
0.00101
0.000170373
0.265959
0.259671
0.262722
0.228562
0.150008
0.182861
0.111548
0.102188
0.0699913
0.0633355
0.0164281
0.0139095
0.0413976
0.0419826
0.00335231
0.0325344
0.0296661
0.0861408
0.0684999
0.0687056
0.000835226
0.000969647
0.000806618
0.000957171
0.00623119
0.00588554
0.000954871
0.000258603
0.000401126
0.000996791
0.000920408
0.000390313
0.500458
0.469004
0.512774
0.518412
0.475551
0.428452
0.593081
0.614251
0.677729
0.683993
0.236294
0.282053
0.32899
0.414901
0.227396
0.169348
0.208916
0.212191
0.0589167
0.108908
0.15991
0.0414971
0.258883
0.255172
0.257237
0.251883
0.281744
0.260914
0.270094
0.291045
0.1663
0.155353
0.0636528
0.151986
0.149141
0.0955576
0.0510414
0.0595589
0.00466754
0.0288323
0.0126208
0.10079
0.161301
0.095192
0.16321
0.208971
0.212463
0.208537
0.210029
0.21913
0.239041
0.230812
0.251041
0.240836
0.257686
0.252198
0.275961
0.277218
0.274912
0.278315
0.287746
0.285172
0.312191
0.288661
0.264403
0.258003
0.31259
0.284811
0.291099
0.328034
0.372973
0.379733
0.382208
0.381305
0.414504
0.462015
0.534612
0.548105
0.554987
0.534843
0.672869
0.610842
0.750311
0.788765
0.774288
0.81145
0.864371
0.734142
0.81791
0.838248
0.912832
0.961544
0.989086
1.0097
1.0419
0.980523
1.04164
0.994597
1.08059
1.08046
1.12661
1.09375
1.15876
1.18526
1.17727
1.12277
1.19229
1.21236
1.1827
1.17438
1.24733
1.22198
1.25292
1.1964
1.18824
1.26219
1.22205
1.1824
1.17281
1.21098
1.24622
0.233033
0.201858
0.371001
0.368035
0.332471
0.328936
0.332268
0.0945341
0.232066
0.000974064
0.000161501
0.0581853
0.0439993
0.000913791
0.00474058
0.0008144
0.163099
0.0703101
0.0701118
0.000456576
0.000680711
0.000873431
0.00336087
0.000348411
0.00101894
5.28201e-07
5.8384e-05
9.84575e-06
1.89669e-05
0.00101
0.000966006
0.000995857
0.000649374
1.88922e-05
0.00143698
0.000842141
0.000928041
0.000844807
0.000710645
0.000266391
0.00069126
0.000943677
0.000831092
0.00123212
0.000613964
0.00012748
0.000146108
0.000949
0.00029034
1.04617e-05
1.61879e-05
0.000990101
0.000818938
0.00100231
0.000950759
0.000911134
0.000410555
0.000764132
0.000998674
0.00116795
0.000877668
0.00100983
0.000991894
0.000944357
0.00100997
0.00106858
0.000646213
0.00105117
0.000907699
0.00105055
0.00105063
0.001021
0.000992444
0.00105012
0.00105009
0.00046961
0.000666148
0.00101
0.000773625
0.000908767
0.000377029
0.000991017
0.000960908
0.00100983
0.00100977
0.000136678
0.000937923
0.000950381
0.000921886
0.000915695
0.000919934
0.000772894
0.00119143
0.000761744
0.000968314
0.859744
0.846589
0.821328
0.818167
0.733462
0.806738
0.627748
0.564629
0.560159
0.549296
0.554473
0.558781
0.490387
0.503657
0.345387
0.305943
0.261106
0.434506
0.438343
0.385402
0.385782
0.382523
0.000647301
0.00046178
0.00105944
0.00105953
0.000962471
0.000414864
0.000711517
0.000410365
0.00105976
0.000991133
0.000161511
0.00100893
0.000972717
0.000941946
0.000297472
0.000985833
0.000726155
0.00091818
0.00021426
0.00071546
0.000537883
0.000951565
0.00123487
0.00123512
3.81621e-05
7.27001e-06
0.00018411
0.00149518
0.116595
7.2725e-07
0.28401
0.447947
0.483328
0.510387
0.591127
0.709647
0.772234
0.747024
0.792364
0.726152
0.778795
0.817703
0.772761
0.772667
0.00123187
0.000910045
0.00101
0.000849207
0.000997036
0.00120037
0.000757185
0.000798732
0.00120038
0.000963972
0.000964985
0.00100947
6.60251e-05
1.14836e-05
0.000896371
0.000432909
1.55871e-05
0.000656439
0.00098774
0.000236686
0.000248866
0.000786495
0.00096459
0.000795867
0.00140206
0.00101046
0.236761
0.237873
0.157982
0.174157
0.0508788
0.0722632
0.0114098
0.0116223
0.00913239
0.0110744
3.80749e-05
0.000764114
0.000964146
0.000694026
0.000115232
0.000756274
0.0523039
0.0155781
0.0541833
0.0503167
0.000517684
0.0002975
0.000342642
0.0008342
0.00030944
0.000950196
0.000717662
0.000602104
0.000980152
0.000764758
0.00124161
0.000738918
0.730596
0.721107
0.557551
0.467875
0.460638
0.443091
0.716799
0.638862
0.873384
0.951729
0.854448
0.775219
0.966598
0.942572
1.01109
1.06948
1.09946
1.09313
1.12632
1.09582
1.1479
1.18085
1.17267
1.17801
1.19367
1.17632
1.18555
1.23008
1.17259
1.16099
0.289524
0.21652
0.357137
0.427708
0.198306
0.162863
0.212949
0.217874
0.0403092
0.110361
0.000744532
0.101482
0.000869073
0.262061
0.200858
0.255506
0.254642
0.255936
0.152648
0.0563566
0.000840349
1.99409e-05
1.97662e-05
0.0170455
8.04806e-117
6.1508e-24
1.81001e-06
0.00099695
0.0251509
0.0186116
9.1386e-08
0.0395118
0.102082
0.0566443
0.153584
0.10559
0.14301
0.203539
0.242336
0.216781
0.253261
0.24431
0.25962
0.252527
0.287101
0.290038
0.287115
0.297933
0.314305
0.3157
0.343557
0.358392
0.349479
0.340923
0.344819
0.342236
0.356295
0.37224
0.415802
0.410501
0.382046
0.409392
0.409225
0.437764
0.474656
0.535457
0.564819
0.559813
0.572695
0.645065
0.734276
0.803563
0.814578
0.940594
0.814044
0.863497
1.01844
1.04357
1.04248
1.08031
1.12622
1.17552
1.18782
1.1903
1.22313
1.2507
1.27847
1.27186
1.28244
1.27817
1.27695
1.25123
1.1964
1.25594
1.22605
1.17903
1.18081
1.20691
1.23857
1.24588
1.17728
1.2331
1.19699
0.0254348
0.0154688
0.089334
0.163036
0.0584098
0.113367
0.255894
0.192779
0.222564
0.0502283
0.000872396
2.61357e-06
0.000770859
0.0235619
0.0163072
3.14198e-05
1.74434e-05
6.38989e-18
0.000992957
0.00144323
0.00144214
0.000284872
0.000328024
0.000689272
0.00731304
0.000871197
0.000886641
0.00112243
0.000867717
0.00126998
0.00127625
0.00086849
0.000172666
0.000689668
0.00143664
0.000981197
0.000834009
0.000478021
0.000315336
0.000579611
0.00101
0.000754204
0.00123171
0.000949996
0.00102348
0.000757563
0.000660221
0.000998234
0.000701989
0.000971999
0.000874495
0.00105267
0.00095067
0.000967797
0.000744326
0.00108289
8.42665e-05
0.00099613
0.000976554
0.000176041
0.000665797
0.000544652
0.000936558
0.000816347
0.000898178
0.000804623
0.000993967
0.000978339
0.000943996
0.000974885
0.00092222
0.000235171
0.00130243
0.000931569
0.00103748
0.000805241
0.00100962
0.000641972
0.000367709
0.000916152
0.000960434
0.000958923
0.000892128
0.00060487
0.000479733
0.769153
0.765265
0.750581
0.75317
0.679958
0.747973
0.553128
0.624961
0.511242
0.516281
0.46367
0.43878
0.389905
0.38514
0.30296
0.200338
0.174102
0.340203
0.391072
0.388055
0.385794
0.381677
0.00105935
0.000925586
0.00105934
0.000347986
0.000973634
0.000973647
0.00094649
0.000972052
0.00100548
0.000830393
0.000135327
0.000443538
0.00093376
0.000997208
0.00060297
0.00100999
0.00098232
3.53596e-05
0.000985985
0.000873381
0.000276721
0.000631599
0.000655599
0.00101
0.000321117
3.32274e-05
0.000167895
0.000962306
0.176371
0.0139499
0.322881
0.450199
0.42999
0.537365
0.707971
0.60554
0.682314
0.682436
0.676776
0.701764
0.76044
0.756166
0.759824
0.733618
0.000769413
0.000922585
0.000573493
0.000958878
0.000712787
0.000933944
0.000627141
0.000380455
0.00081512
0.000879841
0.000957505
0.00105129
0.000972029
2.14066e-05
0.000915771
0.000873917
0.00096514
0.000987798
0.000846179
0.00118213
0.000546863
0.00117809
0.00120761
0.000901385
0.00101
0.000860782
0.000668131
0.000489708
0.000136748
8.03304e-05
0.00098545
0.111769
0.111368
0.0764154
0.0562229
0.0107016
0.031662
0.000950445
0.000901281
0.157556
0.093833
0.0742693
0.000187166
0.000939004
0.000408908
0.00100989
0.00134598
0.00134578
0.00025368
0.000932855
0.0271844
0.00072631
0.0156572
0.00334889
0.000830286
0.000589328
0.000349619
0.000338881
0.000587295
0.00100971
1.30661e-05
0.00052455
0.000737284
0.000689738
0.000594218
0.000809643
1.30051
1.31189
1.33456
1.31313
1.35541
1.3423
1.36511
1.35381
1.41222
1.39594
1.36601
1.42092
1.38086
1.43978
1.25968
1.21427
1.23222
1.28162
1.26794
1.23071
1.23728
1.2921
1.29996
1.27286
1.25218
1.30919
1.29154
1.30155
1.32959
1.1791
1.18642
1.18514
1.18196
1.19518
1.21556
0.775452
0.713906
0.616903
0.518785
0.427857
0.508562
0.701326
0.693546
0.920099
0.949274
0.836902
0.926677
0.953265
1.00491
1.04957
1.09983
1.09302
1.09861
1.09366
1.1254
1.13821
1.16531
1.15141
1.15637
1.15709
1.17185
1.1453
1.1417
0.338485
0.263479
0.201745
0.192588
0.254853
0.422939
0.409564
0.150914
0.202882
0.0591618
0.00237964
1.27931
1.29854
1.31688
1.32611
1.33086
1.34681
1.34903
1.37821
1.36079
1.37773
1.37341
1.4259
1.44729
1.47614
1.47627
1.48187
1.49639
1.51815
0.000747842
0.000619937
0.00138432
0.181551
0.0771505
0.245232
0.144947
0.056772
0.00120563
7.651e-05
0.00120684
0.00120665
0.000150505
0.000239016
0.000536951
0.000634227
1.56935e-49
6.10001e-120
0.0316997
0.000870257
0.000409241
0.0551818
0.0566939
0.0544321
0.109324
0.0664883
0.192933
0.141854
0.223497
0.195552
0.229044
0.250427
0.274108
0.286181
0.326924
0.317576
0.326635
0.330419
0.381967
0.370863
0.361083
0.357161
0.411939
0.387201
0.455709
0.409077
0.392133
0.436741
0.481115
0.480637
0.493985
0.536629
0.540411
0.479112
0.591731
0.613
0.588479
0.580996
0.664126
0.744979
0.814959
0.883973
0.829861
0.844719
0.977215
1.03862
1.07858
1.06323
1.12215
1.15667
1.1979
1.21255
1.20992
1.22896
1.28601
1.26684
1.28062
1.28222
1.27286
1.25882
1.27955
1.26862
1.26455
1.26839
1.2665
0.0091257
0.000815287
0.0252122
0.000513943
0.000319503
0.000729563
0.000713566
0.0610013
0.00091126
0.000309992
0.000662939
0.000992538
0.000153225
0.000567562
0.00138496
0.000787644
0.000756482
3.35385e-05
4.28478e-05
0.00144599
0.000819757
0.00038011
0.000941931
0.0001026
0.000735431
0.00014751
0.000728231
0.000913334
0.00111154
0.000949771
0.00126671
0.000837774
0.00106781
0.000989983
0.000776109
0.00096702
0.000896738
0.000998449
0.00026155
0.000888291
0.00100984
0.000894905
0.00111065
0.000453263
0.000398457
0.000668916
0.000985818
0.000269368
0.000740386
1.43604e-09
1.49536e-06
0.00241231
0.000376388
0.0010224
0.000694792
0.000545923
0.000997667
0.0004031
0.00100993
0.000972649
0.000977525
0.000963111
0.000999516
0.000710581
0.00108881
0.000860558
0.000754568
0.00098919
0.000841656
0.00108908
0.00089779
0.000955844
0.000631827
0.000258775
0.00078107
0.000964465
0.000941166
0.000838222
0.00101
0.000334973
0.000769708
0.000685233
0.000978177
0.000925692
0.000935309
0.000918109
0.00091709
0.000695524
0.000567275
0.0019445
0.000214972
0.000674617
0.000835469
0.000997693
0.00194378
1.47123
1.43586
1.39408
1.50998
1.54004
1.54069
0.744616
0.74808
0.737453
0.72955
0.654114
0.724831
0.5543
0.472882
0.399894
0.418554
0.383856
0.387309
0.385976
0.386474
0.268788
0.181548
0.265741
0.355319
0.347069
0.00093523
0.000816485
0.000875173
0.000890082
0.000951579
0.0009764
0.000965395
0.000493094
0.000931051
0.000554111
0.00100943
0.0010395
0.000996353
0.000972719
0.000319965
0.0135477
0.00100998
0.000498781
0.000128694
0.000927014
4.59314e-06
0.000273643
0.000921556
0.000785239
0.00052174
0.000783296
0.000978157
0.151061
0.291757
0.405728
0.408993
0.723618
0.649658
0.656827
0.445248
0.535167
0.622227
0.678083
0.674441
0.674184
0.694665
0.719398
0.715936
0.000737578
0.00112686
0.00062271
0.000982796
0.000756624
0.000736434
0.00100904
0.000845157
0.000732726
0.000900193
0.000817811
0.000932446
0.000763197
0.000954786
0.00100996
0.000993836
0.000816336
0.00102075
0.000989224
0.000905454
0.000920526
0.000824304
0.000770427
0.000950592
0.00101431
0.00099337
0.000328111
0.000969137
0.000957346
0.000973622
0.00101
0.000984843
0.000871643
0.000978065
0.000827832
0.00115795
0.000949455
0.107316
0.151171
0.131164
0.0733418
0.0753908
0.0459246
0.0696085
0.000193095
0.000641179
0.000278868
0.000919076
0.0793129
0.0688376
0.000406768
0.000938856
0.000612942
0.000962556
0.000490688
0.000432878
0.000820094
0.000136085
0.000354506
0.00065721
0.00031116
0.000941523
5.79952e-05
0.000680105
0.000702988
0.000420221
0.000653842
0.000551523
0.000693939
9.93495e-05
0.000358069
0.000994303
6.38547e-05
0.000979051
1.30037
1.315
1.34102
1.35311
1.35852
1.36309
1.40625
1.37606
1.22685
1.22577
1.20734
1.22753
1.26532
1.22388
1.27236
1.24604
1.17096
1.15411
1.1577
1.1898
1.21431
1.1905
0.77851
0.698013
0.595149
0.688142
0.528424
0.442643
0.697228
0.697147
0.930746
0.94137
0.948008
0.852088
0.930713
1.03753
0.97892
0.92509
0.970248
1.06624
1.08386
1.07611
1.08119
1.08972
1.11412
1.14327
1.13308
1.14402
1.14905
1.13927
1.1458
1.14426
1.14209
0.177711
0.188555
0.320532
0.405384
0.175001
0.266239
0.429056
0.434711
0.18486
0.116611
0.0261014
0.0877022
1.31071
1.27599
1.28951
1.33908
1.33625
1.34098
1.34975
1.37345
1.39243
1.40223
1.40483
1.4091
1.43016
1.47393
1.45939
1.4794
1.49496
1.54005
1.51436
1.34509
1.35642
1.37205
1.5416
1.53623
1.54286
0.00138379
0.00138353
0.00138411
0.000319019
0.00100159
0.00969963
0.000951178
0.000928091
0.000686843
0.000659527
0.000757232
0.000881632
0.000650858
0.00122004
0.000627631
0.00122
0.000969713
4.76584e-06
0.000799512
2.58583e-09
0.00178219
0.000900398
0.0539746
0.000959022
0.135233
0.160462
0.089031
0.12936
0.187535
0.159317
0.284574
0.223423
0.29702
0.31419
0.31807
0.305093
0.357267
0.391586
0.446102
0.433499
0.440468
0.432279
0.452696
0.436794
0.486019
0.48761
0.513983
0.516294
0.499019
0.49514
0.610448
0.658989
0.559449
0.619897
0.669831
0.632566
0.730268
0.770977
0.873327
0.908248
0.890105
0.978628
1.03677
1.13122
1.12114
1.17959
1.14831
1.24556
1.25544
1.24976
1.27723
1.30299
1.30365
1.35224
1.32173
1.33954
1.29479
1.32429
1.33976
1.25301
1.30774
1.27214
0.000329187
0.000642649
0.000809039
0.000599838
0.000769361
0.000964183
0.00057408
1.08317e-06
0.00101
0.000199154
0.000187869
0.000512431
0.000154073
0.000632165
0.000514647
0.000348128
0.000868319
9.49182e-05
0.000302915
2.86873e-05
0.000124015
4.98173e-05
5.50518e-07
0.000290098
0.000978557
0.000883546
0.000999883
5.15784e-05
0.00111036
0.00111102
0.000979499
0.000995782
0.000992745
3.82214e-05
0.00101
0.000912008
0.0010004
0.000112849
0.00044385
0.000919656
5.38475e-05
0.000297927
0.00199512
1.45524e-05
0.000984734
7.31808e-05
0.0009581
0.000364482
0.000994463
3.20685e-05
0.000985698
0.00219949
0.000982499
0.000134455
0.000938706
0.00118222
0.00116786
0.000445984
0.00100983
0.000979813
0.000465046
0.000983408
0.000969573
0.000835887
0.00108862
0.00108866
0.000938621
0.000965884
0.0010889
0.00108881
0.000955402
0.000705203
0.000711032
0.000919589
0.00136446
0.000106065
0.00136421
0.000897089
0.00098702
0.000966821
0.000996026
0.00101517
0.00104999
0.00104723
0.000830937
0.000805878
0.000827454
1.22783e-05
9.12481e-06
0
0.000959074
0.000799517
0.000430028
0.000882063
0.00116777
0.000898711
0.00100958
0.00100997
0.000972374
0.000998553
0.000946811
0.000914726
0.00101
1.4515
1.43122
1.44562
1.44824
1.48295
1.58201
1.55198
1.55358
1.58013
1.52245
0.659738
0.643064
0.578088
0.584813
0.538774
0.568563
0.476537
0.436916
0.414926
0.387034
0.360666
0.358796
0.270657
0.282561
0.150796
0.195424
0.19035
0.000529692
0.000965684
0.000913493
0.00101
0.000977614
0.000917688
0.000585991
0.00131413
0.127006
7.64865e-05
0.000919443
0.000220381
0.000954139
0.000961382
1.60424e-06
0.000368616
0.00101
0.000973131
0.000925781
0.00102234
0.000849804
0.000992271
0.000944045
0.000847483
0.00025022
0.521375
0.517998
0.567289
0.267449
0.408956
0.40558
0.445129
0.564911
0.635575
0.598167
0.504841
0.584532
0.616848
0.618354
0.537008
0.566849
0.000957717
0.000986653
0.00112693
0.00103427
0.000584873
0.00084699
0.00101727
0.00119157
0.000976279
0.000991987
0.000160682
0.00193099
0.000971203
0.000936631
0.000510229
0.00293215
0.00292763
0.00292997
0.000730944
0.000969691
0.000979916
0.00102023
0.000853043
0.000969154
0.000899301
0.00100998
0
0
0
0.000959356
0.000920205
0.000959732
0.00100136
0.00098244
0.000464602
0.000960015
0.00114432
0.000999608
0.00097325
0.000341416
0.000950085
0.000929535
0.000975634
0.00097681
0.000953843
0.127403
0.138828
0.149569
0.0140815
0.0355504
0.000156703
0.000869449
0.000975224
0.000763842
0.000906564
0.000479969
0.00107405
0.00207405
0.000649189
0.000555861
0.000406739
0.000499271
0.000242686
0.000584634
0.000389242
0.000864436
0.000270985
0.000575667
0.000666396
0.000877991
0.00611659
6.05638e-05
0.000158102
0.00113556
0.000624905
0.00117648
0.000312228
0.000747328
0.000737619
0.000346646
0.00101
0.000942721
0.000636426
0.00113508
1.31042
1.25846
1.3413
1.29925
1.30847
1.34606
1.33453
1.40226
1.32791
1.41908
1.35839
1.3649
1.42671
1.40407
1.19928
1.19366
1.18422
1.19607
1.20673
1.21994
1.21855
1.23761
1.14419
1.14136
1.16568
1.15089
1.18106
1.19057
0.780842
0.700712
0.619574
0.703547
0.490376
0.575661
0.696935
0.711447
0.930632
0.932916
0.931416
0.86
1.01062
1.06116
0.978092
0.927906
1.0647
1.063
1.07793
1.06593
1.10558
1.12734
1.13551
1.13874
1.13514
1.14136
1.14141
1.13736
1.13511
1.14976
0.182734
0.169369
0.338055
0.419596
0.315958
0.238249
0.468841
0.422773
0.160798
0.181557
0.148561
0.0587752
1.33023
1.3527
1.32094
1.36227
1.37548
1.36822
1.39887
1.40835
1.39021
1.40257
1.39227
1.40352
1.40931
1.43435
1.4582
1.47665
1.47723
1.52602
1.503
1.54474
1.55452
1.42668
1.43917
1.55097
1.56284
0.000415286
0.000120996
0.000696944
0.000551543
0.000525579
9.3846e-05
0.000260243
0.000214116
0.00101
1.00585e-05
0.000927799
0.000258474
0.000628537
0.000657476
5.07035e-06
0.000780461
0.00178211
0.000540232
0.000872027
0.000687083
0.000544956
4.04769e-16
0.045311
7.27182e-81
0.144204
0.146269
0.109568
0.0673126
0.175343
0.229235
0.282862
0.270079
0.290522
0.277889
0.409844
0.362154
0.453651
0.444154
0.479365
0.471061
0.456605
0.515199
0.550892
0.524472
0.507683
0.544022
0.586589
0.569985
0.554669
0.596063
0.689612
0.683155
0.684536
0.695709
0.820484
0.732726
0.907129
0.936095
0.936764
1.0054
1.07646
1.15596
1.15959
1.17624
1.2222
1.27328
1.30806
1.30912
1.34568
1.31803
1.36473
1.38165
1.3759
1.3807
1.37712
1.38878
1.32239
1.37798
1.35427
0.000849223
9.28117e-05
0.00653829
0.00102561
0.000693056
7.73581e-05
0.000686777
0.000538285
0.00079675
0.000700239
0.00101
0.00128023
0.00049993
0.00128042
0.00128075
0.00128069
0.00127982
0.000997345
0.00127921
0.00617015
0.000998022
0.000638589
0.000184916
0.00207432
0.000413245
0.00207426
0.00207399
0.000418317
0.000283797
0.00100217
0.000993637
0.000687571
0.000856518
0.000789512
0.00101
0.00104342
0.000780072
0.000959982
0.00100986
0.000887496
0.000962023
0.000982285
0.00178594
0.000987678
0.000146754
1.36216e-05
0.000607696
0.00096357
0.000988249
0.000479144
0.000826696
0.000963164
0.00100941
0.00031059
0.000107348
0.000987756
0.00100992
0.000817418
0.000560979
0.000835559
0.00101
0.000799183
0.000972643
0.000279366
0.000904827
0.00095865
0.000977395
0.000998751
0.000952709
0.000941374
0.000886752
0.00100949
0.00097168
0.000773375
0.000984106
0.000952799
0.000783347
0.00098992
0.000934564
0.000964099
0.000974876
0.000974485
0.00113154
0.000992828
0.000905098
0.000529315
0
0
0
0
0
0
0
0
0
0
0
0
0
0
0
0
0
0
0
0.00099334
0.000900999
0.000937661
0.000812305
0.000905703
0.000434354
0.000930589
0.00106773
0.000325168
0.000811332
0.00035232
0.000878445
1.60306
1.59877
1.61369
1.6039
1.60918
1.61711
1.4566
1.43869
1.51858
1.48979
1.57258
1.5921
1.58858
1.50568
1.44919
0.520911
0.518988
0.51644
0.513689
0.513134
0.455377
0.489402
0.28429
0.33358
0.200334
0.205541
0.154185
0.147356
0.150554
4.53839e-05
0.000882156
0.000495047
0.000982711
0.000913059
0.147951
0.00109346
0.000961728
0.000977449
0.000625545
0.000686377
0.000984192
0.000961616
0.000962997
0.00097202
0.000717645
0.000335301
0.000983196
0.00101067
0.000213687
0.00101076
0.000932938
0.0004632
0.000625403
0.522811
0.524642
0.521409
0.522787
0.521093
0.235272
0.352294
0.293566
0.41419
0.474397
0.495813
0.428571
0.514336
0.463561
0.465136
0.448536
0.000954778
0.00113921
0.000696683
0.000970576
0.000973219
0.000935143
0.000872806
0.00101512
0.000142269
0.000882835
0.00101397
0.000623625
6.92933e-05
0.000527482
0.000647016
0.000616055
0.000763669
0.000919235
0.000986485
0.00101581
0.000698312
0.000906788
0.000740767
0.000726241
0.000621516
0.00100972
0.000684552
0.000970938
0.000351873
2.15212e-05
0
0
0
0
0
0.000978181
0.00098282
0.000968882
0.00116578
0.00107175
0.00094248
0.00080046
0.000986833
0.000975435
0.000944306
0.000977372
0.000845929
0.000979339
0.000967902
0.000787048
0.00089515
0
0
0
0
0
0
0.124456
0.0595822
0.0453293
0.000630625
0.000380179
0.000705021
0.000795594
0.000960083
0.000791447
0.000311719
0.00100956
0.000857583
0.000375808
0.000550644
0.00033854
0.000760208
0.000752664
0.000795758
0.000905726
0.000971356
0.000986578
6.51335e-05
0.00269449
0.000257901
0.000486704
0.000727808
0.000634249
0.000404769
0.000958393
0.00027789
0.000630828
1.31742e-05
0.000467482
0.00184296
0.00183192
0.000698116
0.000959699
0.000281529
0.000798649
0.00100972
0.000818552
1.25079
1.25333
1.27422
1.27526
1.27844
1.27705
1.35363
1.35122
1.34092
1.31359
1.40739
1.3647
1.35749
1.18523
1.19179
1.21088
1.20396
1.21905
1.22095
1.24949
1.22695
1.13952
1.14822
1.17043
1.15571
1.17213
1.17883
0.818767
0.73957
0.661587
0.700564
0.638555
0.548684
0.741481
0.698863
0.935747
0.934897
0.893121
0.934557
1.02185
1.07161
0.93546
0.982866
1.07269
1.06788
1.08683
1.0723
1.11348
1.12733
1.13909
1.13359
1.12861
1.1394
1.13648
1.13497
1.13679
1.1365
0.17244
0.231591
0.411879
0.395625
0.321581
0.396835
0.416961
0.495066
0.167224
0.169743
0.161358
0.0650458
5.3971e-05
1.29855e-06
0.0400418
1.40176
1.3841
1.41795
1.39465
1.43594
1.44239
1.43897
1.43419
1.47953
1.45993
1.47124
1.43997
1.47052
1.48014
1.50822
1.52574
1.53478
1.53229
1.58142
1.58044
1.60431
1.58622
1.49694
1.50592
1.61846
1.61769
0.00016622
0.000334169
0.00101
8.3776e-06
0.000729054
0.00122608
0.00122598
0.000971217
0.000305007
0.000144484
0.000160838
0.00192096
0.00123174
0.000496497
0.000822227
0.000856577
0.00100232
0.000626775
0.000320397
0.000824137
8.63116e-05
0.000995528
0.000324678
0.00833533
0.000313063
0.0849661
0.166274
0.0414423
0.264313
0.201776
0.27465
0.287124
0.366366
0.313765
0.416125
0.463463
0.459129
0.454769
0.583467
0.554351
0.525137
0.575169
0.600218
0.593872
0.586835
0.578604
0.594683
0.593743
0.679398
0.716681
0.752073
0.70492
0.754183
0.776387
0.91978
0.85093
0.949073
0.936354
1.01557
1.09246
1.17722
1.17556
1.21135
1.25063
1.32695
1.31478
1.33544
1.34063
1.36423
1.3768
1.38816
1.38598
1.39342
1.39208
1.3868
1.39752
1.38534
1.37851
0.000943531
0.000864682
0.00101
0.00067133
0.000955633
0.000657298
0.000566723
0.000789161
0.000642839
0.0012793
0.000349128
0.000777264
0.000295436
0.00128036
0.00127985
0.00128045
0.00127866
0.00127769
0.00127953
0.000314946
0.000371652
0.00100461
0.000689527
0.000938422
0.000788581
0.00100179
0.000946716
0.000997704
0.000180038
0.000954666
0.000624923
0.00101
0.000209386
0.000613088
0.00100863
0.00104337
0.000661977
0.000881619
0.000973904
0.00354849
0.000148759
0.000210438
0.00024578
0.00100992
0.000871155
6.51125e-09
0.000990237
0.00100983
0.000264727
0.000848872