/*--------------------------------*- C++ -*----------------------------------*\
  =========                 |
  \\      /  F ield         | OpenFOAM: The Open Source CFD Toolbox
   \\    /   O peration     | Website:  https://openfoam.org
    \\  /    A nd           | Version:  8
     \\/     M anipulation  |
\*---------------------------------------------------------------------------*/
FoamFile
{
    version     2.0;
    format      ascii;
    class       surfaceScalarField;
    location    "15900";
    object      phi;
}
// * * * * * * * * * * * * * * * * * * * * * * * * * * * * * * * * * * * * * //

dimensions      [0 3 -1 0 0 0 0];

internalField   nonuniform List<scalar> 
788991
(
-0.0449976
-0.0165462
-0.0664867
-0.038427
-0.0512871
-0.00178522
-0.056077
0.0404591
-0.0028579
0.071555
0.0333026
0.0178214
0.049466
-0.0303435
0.00617198
-0.0122776
0.0216983
0.00546578
0.0161676
-0.0388051
0.00469677
0.0159887
0.0304302
0.0398363
-0.0335269
-0.0179484
0.0168897
0.00888034
-0.00465233
0.0177012
-0.0421853
0.0156231
0.0459967
-0.070989
0.0401878
0.000648603
-0.024538
-0.022362
-0.0150689
0.0158187
-0.0712007
0.0339241
-0.00848431
-0.0601602
0.00693999
0.0577403
0.014439
-0.029854
0.00118392
-0.0686176
0.0237958
0.073226
0.00751202
0.025907
0.0191153
0.0954673
-0.0386958
0.0371691
0.0767297
0.00645904
0.0036073
0.0372669
-0.0309587
0.0340822
0.0318594
-0.0194151
-0.00779864
0.0456315
0.0112598
-0.0640291
0.0525902
-0.0331362
-0.0563087
-0.00746268
0.0452485
0.0937685
-0.027092
0.0157449
0.0402553
-0.0114062
-0.0451115
0.00458279
0.0446386
-0.0207024
-0.0240458
-0.0451017
0.0310766
0.00448891
-0.020382
-0.0380482
-0.0366799
0.00251195
-0.0483915
-0.0233965
0.0527756
0.000117084
-0.014347
-0.0525765
0.0170521
-0.0314312
0.0222712
-0.0074548
-0.0642222
-0.0511167
-0.0481691
-0.0598357
-0.00666691
-0.00424537
0.0515933
0.0328124
-0.013056
-0.0825497
-0.0295647
-0.0623801
-0.0467257
-0.0452558
-0.0264638
-0.0451742
0.0540207
0.0601665
0.00825044
-0.0992677
0.0193265
-0.0307194
-0.0628403
0.00200051
0.0444124
-0.0787945
0.0176813
0.0927114
-0.0498312
0.0442127
0.0567408
-0.012999
-0.036737
-0.017118
-0.0345439
-0.0422224
-0.0292607
0.00474237
0.00886259
-0.027747
0.0031631
0.0102221
-0.0475159
-0.0020505
-0.0237509
-0.0408412
0.0217869
0.0139005
-0.0389996
-0.0157164
-0.0388386
-0.0304309
0.0531234
-0.0183282
-0.0375993
-0.0487165
-0.0901134
0.0136766
-0.0440753
0.0768612
-0.0614753
-0.0927365
0.0505446
-0.0309472
0.100626
-0.0590153
-0.113078
0.0458943
-0.0392002
0.103893
-0.0570681
-0.112124
-0.0526975
-0.0498836
-0.105948
-0.0505805
-0.109946
-0.0576002
-0.0527701
0.0970449
-0.0446778
-0.104417
0.0639362
-0.0575597
0.107909
-0.0411893
-0.097783
-0.05758
-0.0603861
-0.104292
-0.0372817
-0.0912397
0.0508973
-0.0524172
0.0926334
-0.0460817
-0.0904283
0.0475267
-0.0458089
-0.0930871
-0.0506433
-0.106164
-0.055618
-0.0538796
0.107331
0.0423555
-0.113438
0.0264212
-0.066836
-0.0935137
0.0241283
0.0152128
0.00104657
0.0145936
-0.0371346
-0.0203279
0.0170127
-0.0192801
0.0164439
-0.0239489
0.00625433
-0.00449007
-0.0362253
-0.0225327
0.0103922
-0.0034922
-0.0226801
0.0295953
-0.0407187
-0.048361
-0.0298139
-0.0159325
-0.0825209
0.04212
-0.0781
-0.0528064
-0.0412645
0.0261903
-0.0242022
-0.0373258
-0.0648787
-0.074631
0.0509169
-0.0628825
-0.117609
-0.0486601
-0.0604895
-0.119767
0.0533494
-0.0597684
-0.11614
0.0549389
-0.0485636
-0.117674
0.0596829
-0.0402468
-0.104277
-0.0588736
-0.0398874
-0.0919701
0.0519474
-0.0432682
-0.0939863
-0.0485443
-0.0519301
-0.100273
0.0524048
-0.0718328
-0.0145705
-0.0737257
-0.0585989
-0.108459
-0.0120788
-0.0668728
-0.0581072
-0.0555502
-0.075278
0.00120446
-0.055079
0.0246349
0.093103
-0.0043318
0.00610392
-0.0727512
-0.0481251
0.112619
0.00230713
0.0493145
-0.0615855
-0.0505759
-0.0529971
0.0857267
0.0392706
0.0640517
-0.0292292
0.0548504
0.0869367
0.0306224
-0.00172747
0.0723916
-0.0174859
0.00081648
0.0225462
0.054524
0.000410899
-0.00409817
-0.0285614
0.0658799
0.00117401
-0.0488173
0.0420378
0.137519
0.0230394
-0.00690587
0
-0.0662288
0
0.0780702
0.0384109
0.0424719
-0.00668268
-0.0265193
0.0205569
-0.0225258
-0.060709
0.0143928
-0.0234341
0.033346
-0.0436735
-0.0157872
0.0342033
0.0385094
0.0273858
0.042554
-0.0504026
-0.0610753
0.00255654
-0.00752599
-0.0560108
0.0561742
-0.0724782
-0.0656578
0.0120185
-0.0283435
0.0393506
0.0691279
-0.0479644
0.111641
0.0464056
-0.0239208
0.0810651
0.0553979
-0.0540855
0.0914881
0
0
0
0
0
-0.037062
0.0241752
-0.145278
-0.0376571
0.0189958
0.00907287
-0.00338448
-0.0100323
0.0197093
-0.00915151
0.0061457
0.0388809
-0.00690373
-0.00152223
-0.0226711
-0.0084897
-0.0262752
-0.0454293
-0.0272985
-0.0175363
0.0295985
0.0239828
-0.0435306
-0.0523993
0.0571645
-0.0239351
0.092645
0.0515102
-0.0402723
-0.0897889
0.0533873
-0.0418892
0.0986771
0.0475646
-0.0493058
0.0908625
0.0487721
-0.0475627
-0.0960566
0.0508501
-0.0564015
0.111445
-0.0125233
-0.0693236
-0.0551739
0.0283494
0.0266507
-0.0356993
-0.0574056
-0.0731247
-0.0719205
0.0206833
-0.0601547
-0.0689473
0.0468531
-0.0404955
0.0625716
0.0376091
-0.0656334
0.0470774
-0.0537933
-0.103338
0.0466653
-0.0508209
0.100575
0.0469618
-0.0540255
0.101918
0.026434
-0.0614869
0.101917
-0.00976881
0.0783379
-0.0856164
-0.081756
-0.0479372
-0.0816632
0.0538166
0.0345156
-0.0128947
-0.0144285
0.0801511
-0.0992031
-0.0632194
0.0504146
-0.0367362
-0.0137907
0.0309836
0.0332927
-0.0166808
0.00690753
-0.016113
-0.00371495
0.00950747
-0.0243767
-0.0298001
-0.0199615
-0.031988
-0.0477686
0.0266653
-0.0270787
-0.061617
0.0230425
-0.0572304
-0.0631376
0.0306263
0.026012
-0.0493933
-0.0423727
-0.0637447
-0.0985519
-0.0532024
-0.0690164
-0.11991
0.0550493
-0.0636097
-0.123988
0.0541402
-0.0619482
-0.122928
-0.0567101
-0.0484166
-0.119722
0.0572544
-0.0448845
-0.103736
0.0521738
-0.0487182
-0.0999737
0.0498284
-0.0495653
-0.101438
-0.0502367
-0.0376043
-0.101792
-0.0551553
-0.0818215
-0.0212955
-0.0568572
-0.0955213
-0.024696
0.0589778
-0.0518918
0.011459
0.0512821
-0.0756515
-0.00651033
-0.0486457
0.0250052
-0.0436558
-0.059276
-0.0192345
-0.0592787
-0.0259023
0.0759741
-0.0323402
0.0575224
-0.0661656
0.0484762
-0.0805616
-0.0367358
-0.0144694
0.0776557
-0.0575283
-0.0323295
0.0447514
-0.0177568
0.0705343
0.128496
-0.0964574
0.00932335
0.0166445
-0.0751571
0.0509918
0.0627664
-0.00893742
0.0521989
-0.0781886
0.0515687
0.0261076
0.0452435
-0.0537313
0.0110612
0.0218953
0.0716081
0.0261718
0.0202238
0.0649138
-0.0305325
-0.035824
0.0383774
-0.0549354
-0.0585548
0.0280045
-0.0986178
0.030476
0.0166166
0.020718
0.000281794
0.0786067
-0.0253955
0.0481046
0.0301736
-0.0119219
0
0
0
0
0
0
0
0
-0.038634
0
0
0.00388302
0
0
-0.0334199
0.0502662
-0.0520385
-0.0344938
0.00948227
-0.0330755
0.0201473
-0.0419828
-0.022454
-0.0131834
-0.0428067
-0.0485607
0.0580776
-0.033359
0.0170869
0.0191743
-0.0496892
-0.0929654
0.043596
-0.0169389
0.0579609
0.0462788
-0.0281188
-0.0934978
0.038526
-0.0445638
0.0501161
0.057153
-0.0140202
-0.0923554
0.0477268
-0.0408769
-0.0832521
-5.07387e-07
0
5.19258e-07
0
0
-4.05135e-06
-7.28672e-07
3.83789e-06
3.67992e-07
-9.40092e-07
2.17469e-07
0
0
0
0
0
0
0
0
0
0
0
0
0
-0.104559
0
0.000403825
0.00450001
-0.0398116
-0.0554348
0.0091971
-0.0596022
0.0722581
0.0266402
-0.0397656
-0.0329004
0.0107136
-0.0439307
-0.0349507
-0.0114771
-0.00640359
0.0315178
0.00746568
-0.0242706
-0.0253463
-0.00205327
-0.0329748
-0.025793
-0.0327078
-0.0489347
-0.0334924
0.0488475
-0.0347191
-0.0843069
0.0478146
-0.0370537
0.0864226
0.0440532
-0.0419724
-0.0834588
0.0434564
-0.0417107
0.0844061
0.0478055
-0.0477225
0.0971661
0.0516863
-0.053334
-0.104307
-0.0290945
-0.0837776
-0.0498676
-0.0333126
0.0308941
0.0755117
-0.0709051
0.0423453
-0.0416974
-0.0637113
0.0654792
-0.0448844
-0.0161372
-0.0210926
0.0786639
-0.0727639
0.0595566
-0.0503731
-0.107155
0.0596103
-0.052894
-0.119049
0.0406277
-0.0665124
-0.119479
0.0599551
-0.0791891
0.112557
-0.0544975
-0.08795
-0.0321384
-0.0922048
-0.0417777
-0.0277558
0.0845311
-0.0933461
-0.0952788
-0.00380208
-0.0383899
-0.0842806
-0.0483282
-0.0478713
-0.0854059
-0.0494262
-0.0939678
-0.0354113
0.0638949
0.0140315
-0.088892
0.0443822
-0.0413581
0.00942193
-0.0184668
0.0127863
0.043764
-0.0106296
-0.00590679
0.0318211
-0.020878
-0.00573463
-0.00692376
0.0149571
-0.00537988
-0.0130387
0.0160924
-0.0220071
-0.0300302
-0.0232273
-0.0254514
-0.0394877
-0.0219046
-0.0288858
-0.0558959
0.0239003
-0.0794213
-0.0752963
-0.0336362
-0.0385432
-0.0569305
-0.0492118
-0.0713597
-0.105158
-0.0553886
-0.0721112
-0.12383
0.0542173
-0.0674423
-0.12692
0.0538338
-0.0647804
-0.12306
0.0555538
-0.0537983
-0.121369
0.0537361
-0.0508077
-0.107615
0.0514958
-0.0524778
-0.102633
-0.0502823
-0.0494689
-0.102611
0.0484338
-0.0431885
-0.101426
0.0538769
-0.0799251
-0.0191526
-0.0564701
-0.0973958
-0.0206991
-0.057585
-0.0498305
0.00968655
-0.0501068
-0.0625835
0.000718386
0.0479586
0.0343159
-0.0379508
0.0580896
-0.0150227
0.0577879
-0.0657255
-0.0294402
0.0506964
-0.0623046
0.0508234
-0.0146515
-0.0739139
0.0592365
-0.0264359
0.0746796
0.0803334
0.0100815
-0.0213023
0.0688904
0.0830888
-0.0108916
-0.0521927
-0.0041065
-0.0160162
0.00983758
0.0643195
-0.016993
-0.035097
-0.0174639
-0.0547142
-0.0309507
-0.0352837
0.0283403
-0.035932
0.0522121
0.0374236
0.0996407
0.0332118
0.017981
0.077412
0.0533989
-0.0215223
0.0489777
0.065005
-0.0578178
0.0303202
-0.0948149
-0.0302531
0.047023
-0.0472792
0.00641234
0
0
0.0814657
0
-0.0410497
0.0646033
0.0635931
-0.0227677
0
0
0
0
0
0
0
0
0
0
0
0
0
0
0
0
0
0
0
0
0
0
0
0
6.47269e-06
0
4.26813e-06
0
-1.76147e-05
0
-1.08162e-05
0
9.46766e-06
-3.5976e-05
0
0
1.07409e-05
0
0
0
0
0
0
0
0
0
0
0
0
0
0
0
0
0
-0.0395714
-0.00233341
0.0561456
-0.0557947
-0.0415912
-0.0445539
-0.0168226
-0.0420819
-0.0352824
-0.000796075
-0.0559566
0.0472815
0.0281332
0.000581254
0.0695382
0.0331174
-0.0313597
-0.0372681
0.0369123
-0.0190419
0.070004
0.0488281
-0.0448082
0.0780617
0.0411605
-0.0190802
-0.0769776
0.0523584
-0.0363914
0.0729972
0.0468058
0.0813319
-0.0290625
0
0
0
0
0
0
0
0
0
2.79456e-06
0
0
0
0
0
0
0
0
0
0
0
0
0
0
0
0
0
0
0
0
0
0
0
0
0
0
0
0
0
0
0
0
0
0
0.0106968
0.0228692
-0.0296152
0.0481638
0.0239546
-0.0703977
0.022734
-0.0405423
0.0619081
-2.6981e-05
-0.0139203
0.0495964
0.00829498
-0.024766
-0.00981986
-0.0184172
-0.0410577
-0.0208458
0.0182659
-0.03859
0.0139073
-0.0400173
-0.0368569
-0.023723
-0.0333269
-0.0468873
0.017922
1.96359e-05
0
0
-4.95194e-05
-1.77855e-06
0
0
2.29452e-05
0
0
0
0
0
0
0
0
0
0
0
0
0
0
0.0437599
-0.0346513
-0.075905
0.0384879
-0.0332778
-0.0716879
0.0412898
-0.0365246
0.0732552
0.038503
-0.0413275
0.0854015
0.0418542
-0.0487217
0.0884044
0.0553919
-0.0468507
-0.0912504
-0.0297202
-0.0826113
0.0581302
-0.00499433
-0.0835698
-0.0518841
-0.0383946
-0.0716352
-0.0307555
-0.0141984
-0.0899844
0.0780613
-0.00511109
-0.0641358
0.0661463
-0.00104754
-0.090078
-0.0776179
0.0625644
-0.0418948
0.0953133
0.0552786
-0.0590228
-0.124811
0.0473068
-0.0733721
0.131308
0.0310642
-0.0608403
-0.0989006
-0.0769586
0.0954272
0.00706947
-0.0609109
0.0276566
-0.0885677
-0.10352
-0.0260033
0.0307769
-0.0430554
0.0745811
-0.0588212
0.031418
-0.0938004
-0.0984187
-0.00873367
-0.11281
-0.101123
0.0134746
-0.0356475
-0.0850528
0.0584666
-0.0945891
-0.0913492
0.023282
-0.104011
-0.0204962
-0.0820268
-0.0379897
-0.0124644
-0.0496464
0.0464955
0.00461737
0.00478482
-0.0157405
0.00805631
0.000820234
0.0105525
0.00783578
-0.00665929
-0.00331008
0.00158525
-0.00484891
-0.0198597
-0.00993618
-0.012197
-0.0250832
-0.0233949
-0.0159439
-0.0298777
-0.0350302
0.0158018
-0.0380354
-0.0609516
0.0270447
-0.0894585
-0.0790507
-0.0440648
-0.0441025
-0.0652707
-0.0541847
-0.0792449
-0.117962
0.052912
-0.0750715
-0.127169
-0.0471667
-0.0690475
-0.124526
0.0531478
-0.067702
-0.123675
-0.0552597
-0.0566462
-0.119956
0.0508988
-0.0543165
-0.106031
-0.0517162
-0.0548882
-0.102713
0.049244
-0.0534518
-0.10084
-0.0494544
-0.0449018
-0.102497
-0.0509078
-0.0674543
-0.0101375
-0.0479161
-0.0901677
-0.0211123
0.0448134
-0.0433951
0.0196057
-0.0517027
-0.0533282
0.00871275
-0.0467686
0.0314593
-0.0367292
-0.0584596
-0.0133407
0.0575889
-0.0648906
-0.0277684
0.0539205
-0.0587671
0.050694
-0.00701021
-0.0663936
0.0439118
-0.0199636
-0.0590162
0.0717615
-0.0189021
-0.0549599
0.0760945
0.00790294
0.043254
0.0512682
0.0303892
0.026388
-0.0257149
0.00937068
-0.0270618
0.0389413
-0.0280869
0.023861
0.0249736
0.0308192
0.0345264
0.0266954
0.00172657
0.00890393
0.00590646
-0.0347782
0.0298189
0.0149996
-0.0146712
0.0243844
0.0189535
0.0247376
0.0240808
-0.0238972
0.0324608
0.000580972
0.00774127
-0.0219273
0.0162293
0.0202685
-0.00870169
-0.00882208
0.00739935
-0.0182457
0.0104625
-0.0165427
-0.00780967
-0.0174673
-0.00647136
-0.0127956
0.0479776
-0.0392367
-0.00831083
-0.0233796
-0.015871
0.0440151
-0.00470589
0.0477562
-0.00657164
0.0274491
0.00368515
-0.0118093
0.0330924
-0.00258749
0.0449509
0.0420634
0.0452908
-0.0442747
-0.0327477
0.0205633
-0.0368458
-0.106861
-0.0461516
-0.0651139
0.0411244
0.0195395
-0.00391234
0.00896228
0.0329032
0.0493746
-0.0112317
0.0312672
0.0494987
-0.0795563
0.0128481
-0.0875131
0.0117286
0.0301304
0.0334523
0.0493412
0.00633719
-0.0525723
0
0
0
0.0549784
0
-0.0358289
-0.0379231
0.0638017
-0.123627
0
0
0
0
0
0
0
2.21502e-05
6.7954e-05
0
0
0
0
0
0
0
0
0
0
0
0
0
0.000113458
1.35539e-05
0
0
0
0
0
0
0
0
0
0
0
0
-5.80174e-05
0
0
0
0
0
0
4.91218e-05
0
-7.11887e-05
0
0
0
0
0
0
0
0
0
0
-2.26402e-05
-4.42255e-05
-5.3262e-06
2.02228e-05
-3.84728e-05
0
0
-0.000419829
0.000682295
0
0
0
-0.000428812
0
0
0
0
0
0
0
0
0
0
0
0
0
0
0
0
0
0
0
0
0
0
0
0
-0.0614096
-0.0113454
-0.0474507
-0.0556575
0.00453211
0.0407175
0.0588492
-0.0205912
0.0619652
0.0230918
-0.0331526
-0.0676072
0.0472931
-0.0527523
-0.0633512
0.0306632
-0.04932
0.0870522
0.0533588
-0.0155661
0.07476
0.0447155
0.0439233
-0.0730278
-0.0280425
0.0409036
-0.0411679
0.0631492
0.0486262
-0.0233319
0.0762108
0.0676579
-0.0238298
0
0
0
-3.36689e-05
2.76037e-05
3.81593e-05
0
0
0
0
0
0
2.70836e-05
0
-2.36443e-05
0
0
0
0
0
0
0
0
0
0
0
0
0
0
0
0
0
0
4.43458e-05
4.15837e-05
1.44415e-05
-0.0224972
-4.25912e-05
0
0.0850718
0.0436051
-0.0628227
0.0438458
-0.00119464
0.0458962
0.0091777
-0.0205854
-0.035471
0.000130985
-0.0313439
-0.0389177
-0.00307423
-0.0102864
-0.0254988
-0.0163954
-0.0344336
0.013625
-0.0175193
0.00169059
0.018345
0.00201784
-0.0320879
-0.0402456
0.0425329
-0.0113528
-0.0192347
2.04675e-05
0
0
-1.33252e-06
0
2.1891e-05
0
-6.48515e-07
0
3.80324e-07
0
-7.87338e-07
-2.5531e-08
0
0
0
0
0
0
0
0
0
0
0
0
0
0
0
0
0
0
0
0
0
0
0.00439927
0
0.0110346
0.0369734
-0.0278084
0.0622995
0.0374461
-0.028206
0.0637789
0.0384085
-0.0275689
0.0739348
0.0354144
-0.0371837
-0.0815956
0.0455046
-0.0344277
0.0718948
0.0468615
-0.0304943
0.0697941
-0.00892502
-0.0962343
0.0894705
-0.0552473
-0.090712
-0.0379738
-0.0451885
-0.0856091
0.0373903
-0.0198881
-0.0943886
-0.0833869
0.0243256
-0.0653579
-0.0815629
0.0223032
-0.0745259
0.118555
0.040071
-0.0441576
0.0942677
0.044594
-0.0520153
0.117501
0.0266747
-0.0477782
-0.0833501
0.037591
-0.0338572
0.0928193
-0.043132
-0.056268
-0.031633
-0.0794008
-0.0949278
-0.0277715
-0.0917653
-0.105672
-0.0181287
-0.0760695
-0.0618803
-0.0314621
-0.0092031
-0.0252419
0.0319739
-0.0267363
-0.0386479
-0.0266089
0.00478135
0.00891533
-0.0257602
0.0269345
0.0290782
0.00760887
0.0278333
0.0307009
0.00278326
0.0230859
0.0237724
0.0175731
0.0244256
0.00246302
-0.0257869
0.0234663
-0.00703939
-0.0512041
-0.0365472
-0.0711216
0.0379789
0.0081219
-0.0520563
-0.026291
0.0132762
0.0486707
-0.126497
-0.117633
-0.0154371
-0.108293
-0.108648
0.00541175
-0.0711206
-0.0924246
0.0479918
-0.136785
-0.00356261
-0.121937
-0.102951
-0.0404028
-0.0653022
0.00992629
-0.00771172
-0.00893947
0.0287264
0.0262885
-0.00240528
0.0163165
0.0204642
-0.00429994
0.00494264
0.0209765
-0.00649027
-0.0167507
0.0139102
0.00922937
-0.0310443
0.00860324
0.00372469
-0.0215079
-0.0213953
0.00507639
-0.0327227
-0.0103393
0.0078139
-0.0446748
-0.0832114
-0.0241732
-0.0919744
-0.0835806
0.0381779
-0.0374998
-0.0642811
-0.0518346
-0.0776461
-0.112513
0.0431435
-0.0799575
-0.127911
0.0477212
-0.0747705
-0.139133
-0.0521926
-0.070575
-0.127558
0.047621
-0.0599869
-0.116402
-0.0485441
-0.0531063
-0.106382
0.0477077
-0.0496357
-0.0960159
-0.0469825
-0.0469224
-0.0937161
0.0519831
-0.0379291
-0.0896113
-0.0490832
-0.0610754
-0.0121528
-0.0399263
-0.0767102
-0.0213584
0.0396857
-0.0416852
0.0198296
0.0534588
-0.0559096
0.00515392
-0.0461274
0.0351633
-0.0361516
-0.0531455
-0.00367896
0.0617892
-0.0625684
-0.0206282
0.0540403
0.0539497
0.0419782
-0.00401128
-0.0563538
0.0381514
-0.0160208
0.0515577
0.0543404
-0.0161231
-0.0410689
0.0463266
0.00912159
-0.0263106
0.010317
0.0190755
0.0251536
0.0319025
0.0205886
0.0013254
0.0115849
0.0248944
0.00669772
-0.00458176
0.0182048
0.0134717
-0.0175797
0.0067999
0.0123644
-0.0146721
-0.00382076
0.000308271
-0.0115707
-0.0121823
-0.0109122
0.00940029
-0.0277199
-0.0123947
-0.00803554
0.0210045
0.0456058
-0.00601199
-0.0866216
-0.0285951
0.00152192
-0.0470814
-0.00448609
-0.047783
-0.00402072
-0.0465752
-0.0510851
-0.0566132
0.0449017
0.00147736
-0.0412163
-0.0471462
-0.0429772
-0.0461386
0.0248618
0.0356494
-0.0023077
-0.0511158
0.0189934
-0.0225021
0.0281837
0.0319674
-0.00641329
0.00195497
-0.0112279
0.0274783
-0.0382294
-0.0823232
0.0214617
0.0603504
0.0546449
0.00846433
-0.0171678
-0.00609348
0.021906
0.0593111
0.0218282
0.0349395
0.0605261
-0.105055
0.0383524
-0.0859091
0.0404245
-0.0400035
0.00022237
0.0978264
0.009
0.113738
0.0503171
-0.0984911
-0.0680759
0
0
0
-0.0588408
0
0
0.0367633
-0.00699796
0.0514494
0
0
0
-9.61228e-06
0
7.61672e-05
0
-2.35147e-05
0
0
0
0
0
0
0
0
6.95144e-06
0.000173038
0
0
0
0
7.97231e-05
0
0
0
0
0
0
0
0
-4.98664e-08
-7.09158e-07
0
0
0
0
0
0
0
0
0
0
-1.07674e-05
0
0
0
0
4.14991e-06
0
0
-0.000132363
0
0
0
0
0
0
0
0
0
0
0
0
0
0
0
0
0
0
0
0
0
0
0
0
6.59718e-07
0
0
0
0
-0.0331045
0.0185904
-0.0158742
-0.0242911
0.012644
0.0530771
0.0307554
-0.0138764
0.0738843
0.00748516
-0.0565878
0.0490756
0.0389568
-0.0281481
0.0796892
0.0356986
-0.0477864
-0.0536609
0.0428456
-0.0339957
-0.08778
0.0392904
0.0374985
-0.0563652
-0.0232535
0.0398983
0.0592274
0.0210014
0.0445502
-0.0272742
0.0549622
0.0599575
-0.024469
-1.01382e-05
0
-7.29913e-06
7.24507e-05
8.60701e-06
-9.72422e-07
0
0
0
0
0
0
0
0
0
0
0
0
0
0
0
0
0
0
0
0
0
0
0
0
-5.97451e-05
0
0
0
0
0
0.0723626
0
0.0840059
0.0613713
-0.00534738
0.115925
0.0395898
0.0190993
0.0391403
0.0157601
0.00761041
-0.0222283
-0.0115362
-0.0179337
-0.00551215
5.44695e-06
-0.00660816
0.0291322
-0.0138806
-0.00443456
-0.0113448
0.0163725
-0.0279803
-0.0142982
0.0190102
-0.0103528
-0.0345057
0.0167891
0.000393915
0.0242372
0
0
0
0
0
0
0
0
0
0
2.97161e-07
0
0
0
0
0
0
0
0
-0.00669258
0
0
0
0
0
0
0
0
0
0
-0.00834811
0
0.0025343
0
0
0
0
0
0
0
0
0
0
-0.00583329
0
0.0386246
-0.01852
0.0577919
0.0420271
-0.0169587
-0.0598467
0.0403784
-0.0232142
0.0685065
0.0461645
-0.0264828
-0.0577115
0.032532
-0.0118011
0.0387686
-0.0461498
0.0444722
-0.0117945
0.0481536
0.0344048
-0.0176251
-0.0649775
-0.0174368
-0.0923558
0.0830665
-0.029052
-0.0919894
-0.0417613
-0.032218
-0.0876286
0.0710921
-0.0337212
-0.105906
0.0644212
0.0175346
-0.0742351
0.0925778
0.00892394
-0.0796716
-0.0859254
0.027496
-0.0401393
0.0736092
0.00801397
-0.0575969
-0.0516848
0.0270706
-0.0224917
0.0570127
0.0157988
-0.0543269
-0.11334
0.0188277
0.0293804
-0.0335026
0.0561732
-0.0573285
0.0411427
0.000737761
-0.0337253
-0.0528646
-0.0560861
0.0581952
-0.0512111
0.0499082
0.00752918
-0.0558952
-0.0598321
-0.0123157
-0.0454808
-0.0399846
0.0469798
-0.0405666
5.4486e-06
-0.0353664
0.0525496
-0.0479386
-0.0529007
0.0103343
-0.0521542
0.0536782
-0.0534609
0.0645822
-0.0626653
0.0617329
0.0234677
-0.0581878
-0.0763312
0.0111557
-0.0393467
-0.0532325
0.00642992
-0.037474
0.0527221
-0.00613532
-0.0419631
-0.0423418
-0.0480304
-0.0543584
-0.0257345
-0.0794351
-0.0951891
-0.0274792
-0.0992517
-0.105387
0.0137205
-0.0754686
-0.0649074
-0.021628
-0.0114145
-0.0128595
0.0220865
-0.0319712
-0.0309564
0.0139651
0.0217794
0.0120994
0.00762064
0.0276793
0.0315117
0.00194254
0.0273301
0.0277991
-0.00593338
0.0323513
0.0154773
-0.0273048
0.0295764
0.00501056
-0.0400583
0.022788
-0.0148432
-0.0452454
-0.0321653
0.0160083
-0.0499869
-0.0321344
0.0116247
-0.0483349
-0.127371
-0.12029
0.000318834
-0.126409
-0.125519
-0.130938
-0.0151271
-0.111673
-0.112848
-0.00115331
-0.106519
-0.00476652
-0.096568
-0.0974063
-0.00394238
0.0871478
0.00352346
0.002844
-0.0437781
-0.0439706
0.0113607
-0.0407761
0.0461336
0.00245858
-0.0342393
-0.0497133
0.000293184
-0.0508817
-0.0555504
0.0225008
-0.0524892
-0.0532923
0.0171298
-0.0316095
-0.0482822
-0.00215211
-0.0315189
-0.0436984
-0.0554812
-0.00841394
-0.0465852
-0.0377558
-0.00830931
-0.0315135
0.0273892
-0.00745522
0.0156502
-0.0240253
0.00990427
0.00766563
-0.00489962
-0.00270534
0.00837433
0.0153298
-0.034172
0.0192789
-0.0241182
0.0130728
0.0061703
-0.0261987
-0.0335448
0.00844069
-0.00431708
-0.0597387
-0.0579393
0.00402572
-0.04165
-0.0387301
0.0211103
-0.0796881
-0.0682449
0.0197522
-0.0285803
-0.0531817
-0.0398733
-0.0769877
-0.0999889
-0.0493038
-0.0904787
-0.133292
0.052552
-0.0856469
0.0277811
-0.137841
-0.0733859
-0.114322
0.0434041
-0.0565336
-0.11502
-0.0405497
-0.0453677
-0.0960399
-0.0397015
-0.0414942
-0.0858401
0.0469625
-0.0359513
-0.0850253
0.050382
-0.0301473
-0.0778515
0.0451903
-0.059064
-0.0164165
-0.040396
-0.0690943
-0.0161525
-0.0404051
-0.0447683
0.0164654
0.0488367
-0.0548575
0.00255734
-0.0443204
0.0289941
-0.0327235
-0.0486027
-0.00640525
0.0507371
-0.0492306
-0.0216103
0.0406485
0.0451561
0.0329659
-0.00699401
0.0455009
0.0258017
-0.0198853
-0.0421365
0.0338157
-0.0180854
-0.0237349
0.0127873
0.00866385
0.0244882
0.0247646
0.0116325
0.00703859
0.0130802
0.0167379
0.00144222
0.000282433
0.0138898
0.00475059
-0.0086607
0.00391661
0.000804329
-0.0081041
-0.00778786
0.00735108
-0.00592408
-0.0158428
-0.0193833
0.0124178
-0.0158557
0.0224978
-0.00839918
-0.00883474
0.0522912
0.0362317
-0.0728182
0.00335825
0.000373393
0.0759655
0.0608396
-0.00595781
-0.0877788
0.0334798
0.0429419
-0.0221711
0.0474274
-0.0175945
0.0503078
-0.0459077
0.0180259
-0.0128377
-0.0585225
0.0185123
0.0435218
-0.0595687
0.00428749
0.057013
-0.0729356
-0.0646301
0.0393204
0.0683763
-0.00377097
-0.0186247
0.00986786
-0.00838851
-0.00649789
-0.0284452
-0.0289646
-0.0129647
0.0547326
-0.118518
-0.00330445
-0.0118447
-0.0391168
-0.104696
0.0371019
0.0922462
-0.13693
0.141588
0.0110216
-0.0822819
-0.00147653
-0.0314768
-0.00219685
0
0
2.82229e-05
4.09715e-05
-1.33931e-05
0.0150069
0
0.00262921
0
0.00115097
0
0
0
0
0
0
0
0
0
0
0
0
0
-3.33862e-05
0
-8.86907e-05
0
0
0
0
0
0
0
0
0
0
0.00321737
0.00202792
0
0
0
0
0
0
0
0
0
0
0
0
0
0
0
0
0
0
0
-1.95836e-06
3.71455e-06
0
0
0
0
-0.000227104
0.00026824
0
0
0
0
0
0
0
0
0
0
0
0
0
0
0
0
0
0
0
0
0
0
0
0
0
0
0
8.57217e-06
0
-3.79163e-05
0
0
0
-7.6346e-06
0
1.50395e-05
-0.0484436
-0.0511491
0.0608537
0.0122496
-0.0521899
0.0344181
-0.0532976
-0.0124669
-0.0541828
-0.0191776
0.0243268
-0.0345478
-0.0011217
-0.0653899
-0.00969042
-0.0480266
0.042488
0.0386763
-0.0102591
-0.0360129
0.029545
-0.0496365
0.100357
0.0343395
-0.0329625
0.0395592
0.0387409
-0.0247554
-0.0632891
0.0302235
0.0435353
-0.0155091
0.0311069
0.047116
0.018837
-0.0205941
0.0483444
1.32747e-05
0
0
0
0
0
0
0
0
0
0
0
0
0
0
0
0
0
0
0
0.0782691
0.080732
-0.0142465
0.0575133
0
0
0
0
0
0
0
0
0
0
0
0
0
0
0
0.00385641
0.117677
0.029487
0.0557141
-0.0206138
-0.00348794
0.0180335
0.00550405
-0.02155
-0.0183448
-0.00362558
-0.0547108
0.00606009
0.00898729
0.028833
-0.00200173
-0.0144111
0.0146654
0.00581732
-0.0110372
-0.0197072
-0.0240578
-0.0346757
0.0174556
0.034414
0.0121015
0
0
9.22648e-06
7.84402e-07
0
0
0
0
0
0
0
0
0
0
0
0
0
0
0
0
0
0
0
0
0
0
0
0
0
0
0
0
0
0
0
0
0
0
0
0
0
0
0
0
0
0
0
0
0
0
0
0
0
0
0.0334492
0.0263336
-0.00239172
0.0312649
0.0373331
-0.0113955
0.0523841
0.0368526
-0.0177384
0.0479431
0.0450708
-0.0188645
0.051339
0.0371041
-0.00924902
-0.0410567
-0.00640634
0.034281
-0.0368316
0.0211663
-0.0109545
0.0300577
-0.00497797
-0.0446163
-0.0193009
-0.0185133
-0.109921
0.092818
-0.036165
-0.106809
0.0678273
-0.031115
-0.0902086
0.067195
-0.0237145
-0.101416
-0.0710778
0.000608205
-0.0381706
0.0643774
0.0145082
-0.104593
-0.0641584
-0.00812117
-0.0341605
-0.0192732
0.0100413
-0.0486016
-0.0184133
0.0331528
-0.0532236
0.0293209
0.0112235
-0.088764
0.0151845
-0.0161147
-0.0514156
-0.0440966
0.00380002
-0.0572118
-0.0597736
0.00717829
-0.0600368
0.0647101
-0.00223046
-0.0620368
0.0592157
0.00465968
-0.0419689
0.0502744
0.0126532
-0.050731
-0.0661431
0.0156826
-0.0490658
0.0634356
-0.00104952
-0.0526013
0.0502941
0.00999751
-0.0422168
0.0481095
0.00781881
-0.0335663
-0.0461586
0.0110814
-0.0399115
0.0527963
-0.0559844
-0.0488985
-0.00814142
-0.0823858
-0.0858035
0.0126813
-0.109027
-0.101016
0.00040152
-0.0651364
-0.0725238
0.000550333
-0.0167559
0.00928727
-0.00624584
-0.0151412
-0.0421876
-0.00232915
-0.0183454
0.00591537
0.024481
0.0031842
-0.00612568
0.0132
-0.013019
0.0299314
0.0187866
-0.00966309
0.0396505
0.0256495
-0.0284506
0.03628
0.00610264
-0.036951
0.0275607
-0.00376738
0.0459668
0.0208607
-0.0126712
0.0476426
-0.0238847
0.0189486
0.0599487
-0.0414376
0.0180493
-0.0321149
-0.108324
-0.109275
-0.049038
-0.134696
-0.11389
-0.00816522
-0.156304
-0.136907
-0.0194224
-0.109137
-0.120831
-0.0128852
-0.0969479
-0.0665196
0.0631513
-0.0857478
-0.0494511
-0.046311
0.00128981
0.00743772
-0.0560282
0.0360878
0.00817732
-0.0274805
0.0462339
0.0115269
-0.0467403
-0.0425385
-0.000230182
-0.0350013
-0.0464227
0.000843315
-0.0476795
0.0477209
0.01786
-0.0469628
-0.0462862
0.0113421
-0.027068
0.0395386
-0.0105858
-0.0296297
-0.0302841
-0.0202636
-0.042222
0.0248488
0.00565942
-0.0309472
0.0129276
-0.0457661
-0.0226703
-0.0476101
-0.0432325
-0.0132067
-0.00166242
-0.0323197
-0.00644537
-0.0411863
0.0132947
-0.00415267
0.0107182
-0.00264902
-0.00241592
0.00701853
0.00275071
0.0230505
0.0153897
0.0411995
-0.0494802
0.0542094
-0.00482591
-0.00342705
-0.0101859
0.00876805
-0.0187316
-0.0301643
-0.0322133
0.051808
-0.0371427
-0.00749052
-0.0357351
-0.0748223
-0.0420226
0.00147553
-0.0319933
-0.0599419
-0.0294177
-0.0810566
-0.101925
0.0560392
-0.10939
-0.0675139
-0.0535753
-0.135981
-0.0447809
-0.0671419
-0.069563
-0.116146
0.0320163
-0.0497954
-0.0965661
0.028419
-0.037987
-0.0801916
-0.036841
-0.0347029
-0.0794811
0.0488301
-0.0302788
-0.0782557
-0.045316
-0.0278034
-0.0666211
-0.0426846
-0.0507743
-0.00877613
0.0441786
-0.0688105
-0.00473811
0.0397707
-0.0401049
0.0140618
-0.0461267
-0.0463335
0.00681428
0.0457614
0.0256631
-0.0294911
-0.0467799
-0.00989588
0.0346952
-0.0395145
-0.0216806
0.0296572
-0.0412477
0.021742
-0.0133151
-0.0364044
0.0072202
-0.0121966
-0.0229417
0.0131416
-0.0136736
0.022064
0.00284068
-0.0160334
0.014202
0.00404843
-0.00274141
0.00540303
0.00723886
-0.00193705
-0.00105328
-0.000492568
0.00579966
-0.00198548
-0.00814962
-0.0155653
0.00025178
-0.0164072
0.021311
0.0101166
-0.0230316
-0.0327801
-0.00209811
-0.0153748
-0.0409245
0.0358792
-0.0443758
-0.0164308
-0.00292861
0.0460655
0.0727687
0.0272321
-0.10491
-0.00684367
0.0458087
0.0640485
0.00395746
-0.0506009
0
-0.00945932
-0.10517
-0.0271187
-0.00276446
0.0390512
0.0210735
-0.00419942
0.0465526
0.0235389
0.00494456
-0.0106633
0.00131631
-0.0129103
-0.0522182
-0.00270653
0
-0.00499471
0
-0.0466793
0.0158693
0.000529065
0.0120899
0
0
0
-0.0592179
0
0
-0.064955
0
0
0
0
0
0
1.15761e-06
2.9881e-06
0
0
2.39026e-05
-1.9945e-05
-2.06771e-05
0
-1.56568e-07
0
0
0
0
0
0
0
0
0
0
0
0
0
0
0
0
0
0.00355937
-0.00315983
-5.83441e-05
0
0
0
0
0
0
0
0
-0.000330929
0
-0.00164946
0
-0.00723368
0
0
0
0
5.16039e-06
0
-2.90289e-05
0
0
0
0
0
0
0
0
0
3.40329e-05
-8.62734e-05
0.000157375
0
-5.40504e-05
0
4.98885e-05
9.41595e-05
-0.000378813
0
4.48166e-05
0
0
0
0
8.3784e-06
0
-5.81888e-05
0
-1.09854e-05
-1.9017e-05
0
0
0
0
0
0
0
0
0
0
0
0
0
0
0
0
0
0
0
0
0
-4.49821e-06
0
6.38565e-06
0
0
0
-3.91586e-05
0
0
0
0
0
0
0
0
-0.0502225
-0.0599546
-0.062553
-0.014372
-0.0385739
-0.0684348
-0.0191753
-0.0310843
-0.0364658
-0.0104684
-0.0250583
0.0522155
-0.0614778
0.0246993
-0.0195466
0.0688166
-0.026618
0.0299884
0.0192471
-0.000667905
0.0220854
-0.00225537
0.0779478
0.0159647
-0.0438637
-0.0179574
0.0356887
-0.0141917
-0.0724795
0.0257389
-0.0235932
0.0381485
0.0278131
-0.0129875
0.0423507
0.0240494
0.0316671
0.00670984
-0.0124796
0.0393029
0
0
0
0
0
0
0
0
0
0
0
0.0868606
0.0684454
0.00802922
0.0366067
0
0
0
0
0
0
0.0174493
0.0369528
-0.0721101
0
0
0
-3.0264e-07
0
5.92347e-07
0
2.89034e-07
0
0
0
0
-0.0696032
0
0.0667901
0.0177149
0.0042251
-0.016371
0.0234362
0.0685682
0.00331548
-0.00796324
0.0214175
0.0170334
0.015359
0.0152685
0.00255549
-0.00175422
0.00678641
0.0130933
-0.0243627
0.0261316
0.0251686
0.00376002
0.00414249
0.0582531
-0.00818726
-0.00229944
-3.68163e-08
0
0
7.2194e-07
0
-7.75933e-06
0
0
0
0
2.37695e-08
0
-2.49636e-06
0
2.5253e-06
0
0
0
0
0
0
0
7.07751e-05
0
1.33741e-05
-5.06915e-05
2.04359e-05
3.18564e-05
0
0
0
0
0
0
0
0
0
0
0
0
0
0
0
0
1.33894e-06
6.31187e-05
0
0
0
0
0
0
0
0
0
0
0
0
0
0
0
0
0
-2.01213e-05
0
2.32981e-05
0.0262914
0.0225322
-0.00437523
0.0209312
0.0302299
0.00291959
0.0265443
0.0248619
-0.0195738
0.0470472
0.0269469
-0.0107754
-0.058611
0.0369518
0.00910228
0.0456015
0.0246841
0.00101412
0.0389056
-0.00725033
0.0292243
-0.034497
0.0287469
0.0148625
0.0485243
0.0172266
0.0434407
0.0502478
0.0106354
-0.0760042
0.132898
-0.0154278
-0.0765291
-0.0797826
-0.00102127
-0.0766077
0.0671667
-0.0381041
0.0556505
-0.058254
-0.0110637
-0.0411901
0.0871483
0.0126662
-0.0637771
-0.0715218
0.0470377
0.0162393
0.0379349
-0.00742776
-0.0332621
-0.0922485
0.00199676
-0.00493263
0.0480721
0.00197024
0.00433515
0.00425602
0.00130624
-0.0533613
0.05807
0.00276463
-0.0579028
0.0690872
0.00391699
-0.0523347
-0.0619634
0.0221766
-0.0456179
-0.0732878
0.0303721
-0.0504814
-0.0489343
-0.0749806
-0.0800016
-0.0109661
-0.0585819
-0.0722345
0.0188512
-0.0415037
-0.0733308
0.0145292
-0.0492832
-0.0623961
-0.00396338
-0.0476266
-0.0491253
-0.00102708
-0.0518651
-0.0536966
0.00965123
-0.0346304
0.0497361