/*--------------------------------*- C++ -*----------------------------------*\
  =========                 |
  \\      /  F ield         | OpenFOAM: The Open Source CFD Toolbox
   \\    /   O peration     | Website:  https://openfoam.org
    \\  /    A nd           | Version:  8
     \\/     M anipulation  |
\*---------------------------------------------------------------------------*/
FoamFile
{
    version     2.0;
    format      ascii;
    class       volScalarField;
    location    "2100";
    object      alpha;
}
// * * * * * * * * * * * * * * * * * * * * * * * * * * * * * * * * * * * * * //

dimensions      [0 0 -1 0 0 0 0];

internalField   nonuniform List<scalar> 
526318
(
0.000294593
0.000664505
0.000367106
0.000755655
0.000583918
0.00066325
0.000392158
0.000491431
0.000362709
0.000649092
0.000605622
0.00074535
0.000857696
0.000409372
0.000744636
0.000907428
0.000944691
0.00027507
0.000641275
0.000283891
0.000215934
0.000362423
0.00063801
0.00037759
0.000231633
0.00026464
0.000264135
0.000109605
0.00030905
0.000161771
3.41003e-05
0.000154951
0.000146175
0.000635207
0.000704365
0.000741859
0.000539553
0.000415048
0.000268318
0.000620955
0.00063876
0.000928156
0.0011398
0.00024768
0.000164464
0.000778631
0.000361652
0.000642832
0.000669084
0.000848687
0.00099184
0.000895548
0.000615479
0.00101684
0.00346001
0.00047324
0.000390818
0.00563215
0.000246492
0.000121512
0.000285327
0.000402224
0.000504238
9.57513e-05
7.82739e-05
0.000443209
0.000242625
0.00036491
0.000502045
0.00015447
0.00033885
0.000402817
0.000604373
0.000370458
0.0006661
0.000591975
0.000504885
0.000222867
9.54191e-05
0.000268811
0.000162961
0.000225552
0.000329895
0.000135485
9.8378e-05
0.000146133
0.000307688
0.000103888
0.00035555
0.000249217
0.000117513
9.41219e-05
0.000160423
0.000357466
0.000522135
4.54881e-05
0.000253005
0.00040686
0.000220526
0.000540364
0
0
0.0461455
0.0056323
0.00630643
0
0.000546362
0.000617668
0.000546595
7.80891e-05
0.000265977
0.000532336
0.000273097
0.000218077
0.000267581
0.000189048
4.15212e-05
0.000215464
0.000132774
0.000320732
0.000152296
0.000322261
0.000316293
0.000374472
0.000333907
0.00036179
0.000443408
0.000569954
0.000415114
0.000479856
0.000568896
0.000461019
0.000620927
0.000534947
0.000648717
0.000215772
0.000271208
0.000842471
0.000780163
0.000564012
0.000669285
0.000887802
0.000553617
0.00121504
0.000369821
0.00103917
0.00140559
0.00118947
0.000527725
0.00142725
0.00115616
0.000576958
0.00103311
0.000841653
0.000171625
0.000763627
0.000538767
0.000689427
0.000468822
0.000935678
0.00110378
0.0012836
0.000374743
0.000438112
0.000374523
0.000393838
0.000443679
0.000563262
0.00033718
0.000193814
0.000379227
0.000120718
0.000291279
0.000316781
8.40427e-05
0.000173648
0.000275783
0.000189321
0.000103334
0.000147361
0.000153121
0.000130089
0.000317017
0.000523321
0.000475079
0.000703494
0.000709337
0.000636747
0.000612047
0.000884099
0.000705019
0.000917688
0.000810151
0.00093672
0.000803459
0.000871297
0.00105236
0.000763266
0.000375184
8.91086e-05
0.000342084
0.000438986
6.31577e-05
0.000648237
0.000863566
0.000781048
0.00138098
0.000284184
0.000195733
0.000587621
0.000390939
0.00109575
0.000355684
0.000581389
0.000691038
0.000363246
0.000162095
0.00105006
5.32619e-05
0.00116736
0.00174315
0.00086162
0.00142075
0.000841439
0.00169764
0.000719359
0.000572233
0.000972686
0.000133156
0.0611362
0
0.00239175
0.00269973
0
0
0
0
0
0
0.000252895
0.000248862
0.000177236
0.000205017
0.000354222
0.000347888
0.000390267
0.000369695
0.000421433
0.000205874
0.000171632
0.000264496
8.98365e-05
0.000208258
0.000381117
0.000118777
0.000366138
0.000248901
0.000290684
3.97576e-05
0.000365941
0.000235738
4.89636
0
0
0
0.0314778
0
0.0144862
0.0031925
0.000699073
0.000236146
0.000656548
5.96689e-05
0.000121368
0.000384431
0.000174252
0.000255437
0.000326918
0.000252893
0.000155535
0.000287544
0.000415915
0.000272843
0.000397727
0.000575329
0.000962173
0.000522166
0.000608934
0.000780837
0.000829937
0.000316367
0.000625581
0.000329849
0.00267744
0.000415532
0.0014685
0.000958574
0.000549759
0.000442796
0.00116793
0.000588283
0.000740445
0.00261849
0.000590904
0.00087041
0.000793141
0.000150528
0.000322775
0.000941768
0.000710587
0.000859331
0.00114988
0.00172712
0.00226335
0.00179455
0.00307004
0.00108725
0.000494159
0.000333582
0.000363683
0.000851119
0.000390107
0.000902466
0.000917695
0.000321294
0.000548053
0.000181699
9.82369e-05
0.00023115
0.000180007
0.000223264
0.000425854
0.000299319
0.00033537
0.000508727
0.000511676
0.000740543
0.00021985
0.00032605
0.000349951
0.000812689
0.000908851
0.000912008
0.000619114
0.00111888
0.000914668
0.00119511
0.000859775
0.000562189
0.000854947
0.000778432
0.000900207
0.00060412
0.000966162
0.000627877
0.000581325
0.000790637
0.000739726
0.000971569
0.000459045
0.000404186
0.00072179
0.000693547
0.000559372
0.000915489
0.000424132
0.000220372
0.000575887
0.000769331
0.000181403
0.000113358
0.000202749
0.000758208
0.000402027
0.000300145
0.00068654
0.000142161
0.000717403
0.0010526
0.000583011
0.00030259
0.000743706
0.000837369
0.000586261
0.000396068
0.000716092
0.000312842
0.000980055
0.0036487
0.00546138
0.00468961
0.00674033
0.00306267
0.00155218
0.0022265
0.00131079
0.000578289
0.000796626
0.00121252
0
0
0.0141925
0
0.0124092
0.040665
0
0.38647
0
0
0
0
0
0
0
0
0.000241955
0.000331268
0.000226041
0.00026582
0.000278181
0.000192785
0.000288142
0.000243554
0.000323683
0.000154859
0.000191955
0.000204891
0.000365523
0.000125936
0.000245203
0.000252992
0.000178481
9.56807e-05
1.34035e-05
0.000297213
0.000114856
0.00029758
0
0.00259604
0
0
0
0
0
0
0.00356001
0.00236336
0
0
0
0
0.00735204
0
0
0
0
0.112297
0
0
0.0223665
0.00857916
0.00224261
0.00796866
0.000171887
0.000494512
0.000178451
0.000309825
0.000218168
0.000169208
0.000213841
0.00030331
0.000222513
0.000332497
0.000231096
0.000272252
0.000368754
0.000584984
0.000820203
0.000446698
0.000486256
0.00114462
0.00058842
0.000693938
0.00051453
0.000506065
0.000301952
0.000775012
0.00261022
0.0006578
0.000318253
0.00252277
0.00245131
0.00103396
0.000974259
0.00103578
0.00198549
0.00390779
0.00231224
0.000697885
0.00040109
0.00119205
0.00146331
0.00162427
0.0017567
0.00206712
0.00254738
0.000287554
0.000730565
0.00105637
0.00065204
0.00141353
0.00123973
0.000753604
0.000671538
0.000844882
0.000621285
0.000405145
0.00091835
0.00140787
0.000682683
0.000703794
0.000923152
0.000952026
0.000553917
0.000759959
0.000367839
0.000246452
0.000290249
0.00011492
0.000254028
0.00028116
0.000264403
0.000540658
0.000391559
0.000696815
0.000663009
0.00217126
0.000688222
0.00113823
0.000228206
0.00256126
0.000833897
0.000797012
0.000884245
0.00112131
0.000865109
0.00081231
0.00108298
0.000340947
0.000934671
0.000685158
0.000958965
0.000719921
0.000897247
0.000877834
0.000854764
0.000679285
0.001013
0.000441452
0.000605286
0.000695107
0.000555749
0.000482893
0.000479386
0.000201366
0.000630144
0.000660141
0.000555591
0.000602273
0.000275366
0.00032973
0.000432681
0.000267174
0.00019932
0.000316166
0.000619498
0.00103334
0.000555888
0.000615126
0.00062195
0.000449674
0.000234363
0.000875276
2.21688e-05
0.00100129
0.000453561
0.000642896
0.000239463
0.000542369
0.000868749
0.0010158
0.00131921
0.0152804
0.00734665
0.00497752
0.0023302
0.000210012
0.00200726
0.00184773
0.00182775
0.00142641
0.00378281
0
0
0
0
0.0064268
0.0105547
0
0
0
0
0
0
0
0
0
0
0
0
0
0
0
0
0
0
0
0
0.00830901
0
0
0.00125856
0.00348441
0.00905265
0
0
0
0
0
0
0
0
0
0
0
0
0
0
0.00024664
0.000237208
0.000220869
0.000236621
0.00021406
0.000190225
0.000444593
0.000258828
0.000134655
0.000298378
0.000231971
0.00027942
0.000219559
0.000228996
0.000245209
0.000122761
0.000107178
0.000125164
0.000261263
0.000103678
0.000433973
0.000204684
0
0
0
0
0
0
0
0
0
0
0
0
0
0
0
0
0
0
0
0
0
0
0
0
0.0313925
0
0
0
0
0
0.0129864
0
0.00850837
0.0046034
0.000594818
0.00187186
0.000330567
0.000411444
0.000314904
0.000132444
0.000175843
0.000234203
0.000302819
0.000226598
0.000216653
0.000302673
0.000251585
0.000198114
0
0
0
0
0
0
0
0
0
0
0
0
0
0
0
0.0432175
0
0.000319328
0.000643122
0.000412467
0.000718983
0.00112134
0.000476312
0.000943056
0.000830095
0.00170331
0.000980803
0.000318396
0.00190146
0.00176465
0.00134112
0.00590281
0.00237846
0.000398889
0.00284317
0.00232594
0.0016649
0.00421239
0.00963904
0.00327397
0.00439738
0.00121216
0.000765853
0.00128646
0.00645126
0.00607035
0.00670904
0.0235757
0.0157063
0.000408793
0.000730057
0.000458232
0.000156705
0.000900398
0.00133552
0.000280173
0.000406667
0.000426131
0.000211487
0.00143217
0.00105159
0.00116593
0.000553178
0.000828842
0.00143489
0.0013681
0.0013106
0.00174327
0.00221607
0.00107899
0.00160112
0.000580882
0.000498596
0.000643307
0.000724998
0.0004379
0.00018835
0.000520847
0.000200534
0.000980248
0.000586002
0.00141753
0.000351962
0.00190302
0.00201705
0.00411576
0.0017872
0.0043742
0.00234072
0.00107402
0.00100298
0.000861055
0.000613191
0.000911891
0.000692716
0.000349933
0.000712705
0.000935126
0.00037152
0.000527751
0.000772145
0.000836958
0.00110548
0.000662302
0.000855686
0.000385475
0.000316533
0.000553253
0.000599759
0.000486916
0.000353023
0.000398231
0.00052426
0.000246807
0.00025627
0.000441569
0.000567773
0.000290597
9.48213e-05
0.000328035
0.000419246
0.000349974
3.01091e-05
0.000590475
0.00053999
0.000412241
0.000406444
0.000313691
8.65059e-05
0.000226226
0.000359484
0.00029929
0.00030028
0.000241401
0.000283378
0.000205472
0.000301376
0.000301429
0.000180049
0.000244511
0.000248052
0.000222607
0.000263866
0.000187923
0.000221726
0.000194107
0.000223571
0.000267086
0.000225493
0.000151744
0.000191877
0.000219208
0.000135528
0.000210592
0.000203452
0.000188855
0.000170361
0.000186187
0.000202728
0.000165499
0.000176319
0.000190551
0.000206588
0.000209368
0.000178791
0.000114703
0.000216936
0.000186748
0.000177463
0.000171761
0.00169407
0.00102254
0.000455311
0.000569353
0.000937811
0.000745483
0.000374997
0.000652704
0.00137081
0.00950244
0.00658951
0.00467908
0.00149153
0.0119142
0.0143489
0.0113812
0.00424739
0.00467915
0.0027162
0.00725302
0.0114392
0.00687075
0.00159157
0
0.0166695
0
0
0
0
0
0
0
0
0
0.0154944
0
0
0
0
0
0
0
0
0.0175237
0
0
0
0
0
0
0
0
0
0
0
0
0
0
0
0
0
0
0
0
0
0.0277758
0
0.00659689
0
0.00379984
0.00337839
0.000530997
0
0.0181081
0.00554036
0
0
0.0143211
0
0
0
0
0
0
0
0
0
0
0
0
0
0
0.015252
0
0
0.000217781
0.000213299
0.000160706
0.000166146
0.000358163
0.000184169
0.000225293
0.000102756
0.000164068
0.000391779
9.90889e-05
0.000242874
0.000198734
0.000181324
0.000244727
7.71451e-05
0.000455187
0.000187018
0.000108486
0.000195369
7.06203e-05
9.14153e-05
0
0
0.0866682
0.0600757
0
0
0
0
0
0.0284322
0
0
0
0
0
0
0
0
0
0
0
0
0.0170257
0.0114787
0
0
0
0.00994027
0.00103622
0.00686089
0.000965546
0.000272975
0.000479224
0.000121033
0.000319181
6.85858e-05
0.00025562
0.000185255
0.000259778
0.000230977
0.000142112
0.000252511
9.37962e-05
0.000120884
0.0112026
0
0.0147735
0
0
0.000853589
0
0
0.000255599
0
0
0
0
0
0
0
0
0
0
0
0
0
0
0
0.0154241
0
0.000552758
0.000302957
0.00092104
0.00056277
0.00171259
0.000933962
0.000811252
0.0041885
0.00332947
0.000244081
0.00254135
0.00491779
0.00875552
0.00648132
0.00604458
0.00810825
0.00223425
0.00197026
0.00446918
0.00411138
0.0388501
0.011121
0.00840863
0.0112943
0.00311461
0.0147475
0.0495019
0.0812731
0.123323
0.0369703
0.0258973
0.0298567
0.000294809
0.000184714
0.000552392
0.000897985
0.00107842
0.00138604
0.000394566
0.000395868
0.00028109
0.000291052
0.00028238
0.000332706
0.000317776
0.000259473
0.000251844
0.000267149
0.000218607
0.000238217
0.000212962
0.000261391
0.000239305
0.000211721
0.00022572
0.00022522
0.000136671
0.000197847
0.000198213
0.000170859
0.000218353
0.00021446
0.00136122
0.00159125
0.0014246
0.000502618
0.00172258
0.00179103
0.00168226
0.00218563
0.00355979
0.0022005
0.0091005
0.000792882
0.00349029
0.000367742
0.00078852
0.000541677
0.000197271
0.000469719
0.0017175
0.00106153
0.00204151
0.00246597
0.00278307
0.00209687
0.023219
0.0273702
0.194414
0.0160935
0.00255743
0.00629309
0.02558
0.00112472
0.0016695
0.00181395
0.00104375
0.000606364
0.00103091
0.000282825
0.000429698
0.000621889
0.000938202
0.000801695
0.000375516
0.000690544
0.000233708
0.000415738
0.000316356
0.000379247
0.000736252
0.00045159
0.000397317
0.000394456
0.000330033
0.000590711
0.000239519
0.000514929
0.000544434
0.000238539
0.00033552
8.12955e-05
0.000480954
0.000663045
0.000494053
0.000452178
0.000337052
0.000255085
0.000180613
0.000263865
0.000449599
0.000205101
0.000386983
0.000122687
0.000305784
0.000243336
0.000154575
0.00024831
0.000178256
0.000196829
0.000170395
0.000140404
0.000182721
0.000105281
0.000177305
0.000133968
0.000153647
0.000167697
0.000164304
8.56709e-05
0.000189522
0.000160804
0.000169666
4.13173e-05
0.000137459
0.000112538
0.000119065
0.000139626
0.000107151
9.38153e-05
9.33301e-05
9.77519e-05
0.000130911
0.000104674
8.5204e-05
0.0038158
0.00391116
0.00233807
0.00185252
0.00248532
0.00172551
0.000963005
0.000132701
0.00103647
0.00273862
0.00485193
0.00378057
0.00834922
0.00113144
0.00108291
0
0
0.00430449
0.102855
0.00393675
0.00707993
0.00655905
0.00592055
0.0124937
0.0212734
0
0
0
0
0.0124616
0.00945096
0
0
0
0.0234664
0
0
0
0
0
0.0335862
0
0.0180428
0
0
0
0
0
0
0
0
0.00303424
0
0
0
0.00604885
0
0
0
0
0
0
0
0
0
0
0
0
0
0
0
0
0.00998834
0
0.00757126
0
0
0
0
0
0
0
0
0
0
0.000146942
0.000285329
0.000146388
8.28755e-05
0.000184978
9.15259e-05
0.000424177
7.99333e-05
0.000132509
0.000242852
0.000218383
0.000247453
0.000108751
0.000115731
0.000372586
0.000114595
0.000378138
7.446e-05
0.000223442
0.000132073
8.73082e-06
9.47272e-05
0.0741781
0
0.0338687
0
0
0
0
0
0
0
0
0
0
0
0
0
0
0
0
0
0
0
0
0.0290236
0
0
0.0127187
0.00997699
0.000807945
0.00232596
0.000807887
0.000360161
0.000516455
5.8471e-05
0.000120496
0.000285094
0.000195326
0.000200156
0.000172867
0.000173792
0.000173546
5.98988e-05
6.44597e-05
8.62199e-05
0
0
0
0
0
0
0
0
0
0
0
0
0
0
0.0170569
0
0
0
0
0.00255346
0
0.0014002
0
0
0.0383069
0
0
0
0
0
0
0.000794305
0.000545502
0.000223413
0.000885583
0.00309712
0.000749961
0.00092274
0.00131012
0.000257458
0.000248368
0.000497111
0.0101955
0.00374994
0.085603
0.102453
0.0248669
0.0137004
0.0103207
0.0109753
0.00255426
0.0117834
0.00479193
0.00590301
0.0211513
0.0291743
0.0268238
0.0248844
0.878732
1.27786
0.369717
0.0817742
0.0207755
0.0929594
0
0
4.75001e-05
4.96929e-05
9.0785e-05
8.63591e-05
0.000106029
7.61535e-05
0.000198412
0.000152416
0.000160211
0.000173249
0.000229157
0.000213658
0.00026035
0.0002147
0.000124783
0.000123953
9.4459e-05
0.000104871
0.000120506
0.000133476
0.000121461
9.72071e-05
9.62919e-05
0.000112212
0.000125969
6.06138e-05
9.90012e-05
0.000120521
4.39229e-05
0.00018346
0.000159736
0.000107283
0.000164405
0.000137655
5.21454e-05
0.00027864
0.000260953
0.000546695
0.00076856
0.00144482
0.000950837
0.000391259
0.000464403
0.000321539
0.000273845
0.000322402
0.000253165
0.000285532
0.000324411
0.000262336
0.000212423
0.000254867
0.000206807
0.000261015
0.000219465
0.000236985
0.00021964
0.000222901
0.000204314
0.000211597
0.000199771
0.000223791
0.000195853
0.00122794
0.0019045
0.00138602
0.00229077
0.00196104
0.000708213
0.000773681
0.00354921
0.00210579
0.00166486
0.00506568
9.52866e-05
9.14773e-05
8.94114e-05
7.39949e-05
6.97538e-05
3.25984e-05
5.01234e-05
2.04043e-05
1.52637e-05
7.10995e-05
5.59621e-05
0.000125776
0.000110342
0.000182528
0.000150211
0.000213978
0.000182247
0.000179492
0.00294963
0.0040212
0.00554257
0.000800444
0.00280483
0.00107571
0.00287926
0.000746775
0.00726961
0.00950548
0.00161926
0.00681685
0
0.0339318
0
0
1.4042
0
0.010395
0.0170679
0.582496
0.00131218
0.00264412
0.000290515
6.66295e-05
0.000300568
0.000196735
0.00133875
0.000833022
0.00103686
0.000560101
0.000203355
0.000184082
0.000697224
0.000290996
0.000748847
0.000260641
0.00070745
0.000210837
0.000683008
0.000550063
0.000310125
0.00039787
0.000371215
7.54504e-05
0.000332631
0.000244511
4.13687e-05
0.000439834
0.000180838
0.000348358
0.000284089
0.000370582
0.000324588
0.000252574
0.000143335
0.000297484
0.000312187
0.000296449
0.000141466
0.000215776
0.000227272
0.000193862
0.000201618
0.000183639
0.000175457
0.000126976
0.000130013
0.000129492
0.000111071
0.000116922
0.000140781
0.000134031
0.000143561
0.000121269
0.000118585
0.000185921
0.000119733
0.000153158
6.00915e-05
0.000197038
0.000102963
7.11659e-05
0.000103348
7.94203e-05
0.0121161
0.00517213
0.00797435
0.0011297
0.00445555
0.00356202
0.0151738
0.000617407
0.00326728
0.0326073
0.0196876
0.0211946
0
0.0129977
0.00231022
0
0
0
0
0.00298087
0.141141
0.0658353
0.0958385
0
0
0
0
0
0.0110256
0.0116225
0.0125964
0
0.000142921
0
0
0
0
0
0
0
0
0
0.0434175
0
0
0
0
0
0
0
0
0.218284
0
0.00282151
0
0
0
0
0
0
0.00491631
0
0
0
0.0322246
0
0
0
0
0.0210386
0
0
0
0
0
0
0
0
0.027126
0
0
0
0
0
0
0
0
0
0
0.0154565
0
0
0
0
0.0196564
0.000226373
0.000276877
0.000271963
0.000222055
0.000208639
0.000188669
0.000125603
5.90154e-05
0.000151781
6.52419e-05
0.00029192
5.71985e-05
0.000214839
0.000389868
0.000225711
0.000152069
9.98496e-05
0.00024111
7.86987e-05
3.08262e-05
0.000449889
0.000187497
9.64857e-05
0.000216236
6.04318e-05
0
0
0
0
0
0
0
0
0
0
0
0
0
0.01321
0.00449654
0.00275713
0
0
0
0
0
0
0
0
0
0
0
0.000736938
0.000810218
0.000341686
0.00056308
6.73152e-05
0.000136971
9.51984e-05
0.000398802
6.7115e-05
0.000141651
9.91065e-05
0.000161475
0.000126344
0.000154101
0.000141635
0.000242792
0
0.00228521
0
0
0
0
0
0
0
0
0
0
0
0.0343254
0
0
0
0.0092333
0
0
0
0
0
0.0328124
0
0
0
0
0
0
0.00793145
0
0
0
0
0
0
0.000337685
0.000295268
0.000424647
0.000749939
2.9944e-05
0.000429656
0.0015049
0.0118572
0.00245524
0.05758
0.0234844
0.00046844
0.00108761
0
0
0.694003
0.680693
0.0406599
0.0479952
0.0187485
0.187792
0.0090528
0.00242074
0.00511614
0.00784413
0
0
0
0
0
0
0
0
0
0
0
0
0.000109446
7.5988e-05
0.000112928
0.000118987
0.000222516
0.000175067
0.000302028
0.000273358
8.59268e-05
0.000114026
0.000113026
0.000140512
0.000165693
0.000119006
0.000160385
0.000150058
0.000158334
0.000207709
0.00018147
8.9193e-05
5.41062e-05
0.000127749
0.000318942
0.000406829
0.000664845
0.0004756
0.000860776
0.00122916
0.00051234
0.000387081
0.000284106
0.000254275
0.000342767
0.000305972
0.000288482
0.000258094
0.000236859
0.000296965
0.000300304
0.000246699
0.000208972
0.000262296
0.000231146
0.000259316
0.000242079
0.000211734
0.000237016
0.000193662
0.000235645
0.000196687
0.000225869
0.000237269
0.000185702
0.00268521
0.00285245
0.00158517
0.00116843
0.00302958
0.00176203
0.000823135
0.000900986
0.00175071
0.00166644
0.00312133
0.00262232
7.56853e-05
0.000161607
6.02448e-05
4.17457e-05
5.27186e-05
4.793e-05
2.05928e-05
1.94888e-05
2.8976e-05
7.75877e-06
4.12629e-05
0.000106124
6.77867e-05
0.000106721
0.0001529
0.000172753
0.00015553
0.000195512
0.000190027
2.77646e-05
3.34802e-05
1.28551e-05
0.00021395
0.000215245
0.000235335
0.00531709
0.00949021
0.00987652
0.0295039
0.00409481
0.00848542
0
0.011067
0.0070263
0
0
0
0
0.0111526
0
0.00627655
0
0
0.019878
0.190833
0.136562
0.00621646
0.00372659
0.00859274
0.00102916
0.00107142
0.00159117
0.00155297
0.000329083
0.00103286
0.000712089
0.000346027
0.000586781
0.000341712
0.000450925
0.000231046
0.000226295
0.000351008
0.000159115
0.000320297
6.64073e-05
0.000215488
0.000255491
0.000118271
0.000332681
0.000173127
0.000113846
0.000244551
0.000204108
0.000361604
0.000122653
0.000244277
0.00014867
0.000238423
0.000220603
0.000306889
0.000219905
0.000168081
8.71328e-05
0.000118626
7.79673e-05
0.000148155
9.80137e-05
0.000110628
0.000116902
0.00013346
0.000117411
0.000110278
0.000133984
0.000147126
0.000102639
9.36385e-05
0.000143426
7.35727e-05
0.000124586
9.62437e-05
6.83042e-05
0.000274124
0.000113934
6.42748e-05
8.48162e-05
6.56902e-05
0
0
0
0
0.00475584
0.00998173
0.0261298
0.0409025
0.0113412
0
0
0
0
0
0
0
0
0
0
0
0
0
0
0
0
0
0
0
0.0141085
0.00648417
0
0
0
0
0
0
0
0
0
0
0
0
0.23921
0
0
0
0
0
0
0
0
0.10763
0
0
0
0.00939208
0.00482451
0
0.00439921
0.0119252
0
0
0.056733
0
0.0494882
0.0398311
0
0
0.0224063
0.0453533
0
0
0
0
0.0128993
0
0.0222274
0
0
0
0
0
0.00824407
0.0109476
0
0
0
0
0
0
0
0
0
0
0.00718557
0
0
0
0
0
0
0
0
0.000333901
0.000335277
0.000293312
0.00028802
0.000257158
0.000240216
0.000242467
0.000236058
0.000255822
0.000245698
3.16638e-05
0.000374451
0.000217442
0.000222549
0.000181674
8.63992e-05
0.000141108
0.000222375
0.000130142
6.86315e-05
5.41727e-05
0.000135826
8.06998e-05
0.000173545
0.00025612
0.000753138
0.000142726
0
0
0
0
0
0
0
0.00300803
0.00184374
0.00389229
0
0
0
0
0.115773
0
0.0148098
0
0
0.0062518
0
0
0
0
0
0.000146554
0.00022744
0.000205824
0.000800689
0.000520694
0.000388092
0.00022909
0.000446833
0.000156425
0.000108138
0.000177561
0.00015353
7.66289e-05
0.00014771
8.62606e-05
0.000313922
0
0
0.000258714
0.0134864
0
0
0.0136815
0.00635633
0
0
0
0
0
0
0
0.00479092
0.000791874
0.00578607
0
0
0
0.00480824
0
0
0
0.031488
0
0
0
0
0
0
0
0
0
0
0
0
0
0
0
0
0
0
0
0.000887825
0.000101472
0.000682791
0.000329324
0.00181139
0.00249833
0.00101501
0.00702258
0.0109778
0
0.432106
0.0219784
0.0314398
0.00743044
0.00775763
0
0
0
0
0
0
0.292405
0.022117
0.0150706
0.00917454
0.00713235
0.00606384
0
0
0
0.0101658
0
0
0
0
0
0
0
0.00684078
0.000123488
0.000144685
0.000171044
0.000157119
0.000221954
0.000264513
0.000298749
0.000351172
0.000361544
0.000368269
0.000394698
0.000419484
0.000360691
0.000418682
0.000101126
8.21087e-05
9.58321e-05
0.000122588
0.000134934
0.000168225
0.000198943
0.000204949
0.000156866
0.000219296
9.92841e-05
0.000176595
0.000129029
9.41885e-05
0.000299604
0.000507087
0.000643233
0.000474914
0.000926978
0.000722081
0.000476582
0.000321914
0.000264041
0.000319086
0.000256234
0.000347094
0.000294213
0.000248509
0.000288172
0.000314923
0.000251928
0.000287879
0.000270795
0.000290899
0.000269846
0.000250408
0.000264595
0.000234113
0.000210393
0.000274476
0.000234771
0.000188719
0.000173474
0.000257287
0.00221435
0.00246483
0.00137963
0.0010919
0.0016194
0.00224705
0.000852527
0.000891888
0.00118391
0.00219477
0.00319516
0.00327091
0.000219678
1.02099e-05
5.06177e-05
3.43735e-05
3.17776e-05
3.07011e-05
3.98938e-05
8.84074e-06
2.63647e-05
6.71419e-06
3.02516e-05
7.83125e-05
3.22009e-05
0.000115746
7.15694e-05
0.000149341
0.000130552
0.000179999
0.000184452
0.000219105
0.000220434
4.03288e-05
5.54004e-05
0.000241594
0.000247787
0
0
0
0
0
0
0
0
0.0091243
0
0
0
0
0
0
0
0.137919
0
0.0511439
0.189234
0.508482
0.025509
0.00373244
0.00654657
0.000341081
0.000233366
0.000805398
0.00276149
0.000469537
0.000718513
0.000427318
0.000556057
0.000422996
0.000455636
0.000398813
0.000205417
0.00024322
0.000353124
0.000136827
0.000337604
0.000143125
0.000164366
0.000178992
0.000195805
0.000221204
0.000213368
0.00026349
0.000164356
0.000141868
0.000152373
0.000139532
0.000292973
0.000106763
0.000186764
0.000192323
9.67062e-05
4.99637e-05
0.000188083
8.62295e-05
0.000142057
0.000114436
0.000119114
0.000128983
0.000147228
0.000114382
0.000149084
9.53928e-05
0.000153142
0.00014828
9.79718e-05
6.74472e-05
0.000125512
6.73122e-05
0.000113052
0.000104927
0.000149135
6.52549e-05
8.70446e-05
8.58758e-05
0
0
0.154609
0.00107712
0
0
0
0
0
0
0
0.0234289
0
0.0326249
0.0326778
0.0408113
0.0310931
0
0.0511113
0.0253644
0
0
0
0.00258556
0
0.00314412
0.00555428
0
0
0
0
0
0
0
0.0266876
0.0311448
0
0
0
0
0
0
0.189581
0
0
0
0
0
0
0
0
0
0
0
0
0
0
0
0
0
0
0
0
0
0
0
0
0
0
0
0
0.117656
0
0
0
0
0
0
0
0
0
0
0.255373
0
0
0
0
0
0
0
0
0
0
0
0
0
0
0
0
0
0
0
0
0
0
0
0
0
0
0
0
0
0.00483507
0
0
0
0
0.000252043
0.000248327
0.00026248
0.000262392
0.000259132
0.000274041
0.000339373
0.000314431
0.00028297
0.000303174
0.000259567
0.000283316
0.000293202
0.00037583
0.000401167
3.00336e-05
0.000153439
0.000356838
0.000184932
0.000170113
2.33402e-05
0.000134113
0.000150344
0.000106161
0.000100003
0.000267284
0.000131206
0.000353439
0.000248002
0
0
0
0.00806884
0.0111099
0.00148496
0.00540208
0.028089
0
0.0143128
0
0
0
0
0
0
0
0
0.0524776
0
0.0458794
0
0
0
0.000136176
0.000213728
4.97391e-05
0.00017701
0.000257424
0.000721555
0.000328616
0.000487655
0.000174098
0.000429048
0.000335982
0.000244698
0.000175056
8.27053e-05
0.000280766
0.000351773
0
0.00393832
0
0
0
0
0
0.000537647
0
0
0.00614603
0
0
0
0
0
0
0
0
0.000463172
0
0
0
0
0
0
0
0
0
0
0
0
0
0
0
0
0
0
0.00432673
0.0251797
0
0
0
0.0142479
0.00697054
0
0
0
0
0
0
0
0
0
0
0
0
0.000525124
0.000733406
0.000626511
0.00503173
0.00518853
0.0279224
0.0207579
0.0384175
0.0370133
0.0796088
0.0781595
0
0
0
0
0.0447867
0.0209198
0
0
0
0
0.0136084
0.00364774
0.0209992
0
0
0.0332062
0
0.0315152
0
0
0
0
0.00128948
0.00445311
0
0
0
0
0
0
0.000190651
0.000193376
0.000217154
0.00019531
0.000234453
0.000292129
0.000266347
0.000356032
0.000398304
0.000340002
0.000404408
0.000450835
0.000416046
9.92084e-05
0.000109162
9.96755e-05
0.000101342
0.000186708
0.000157245
0.000245778
0.00024109
0.000212644
0.000157828
0.000125528
0.000175683
0.000147105
0.000139688
0.000242577
0.000527926
0.000654893
0.000468018
0.000630178
0.000571991
0.000408047
0.000571225
0.000296249
0.000279927
0.000436051
0.000232444
0.000308797
0.000243724
0.000336553
0.000262982
0.000284808
0.000260327
0.000262241
0.000284228
0.000297888
0.000245885
0.000301574
0.000249122
0.000279682
0.000215396
0.000171632
0.000229292
0.00024394
0.000181145
0.00286787
0.00254606
0.000938781
0.000907577
0.00153478
0.00127409
0.00104213
0.000915734
0.00334981
0.00266953
0.00176471
0.00303799
0.0336108
0.0104848
0.00355852
0.000113031
5.96089e-05
3.46372e-05
5.71682e-05
1.44449e-05
3.61584e-05
1.83711e-05
3.82195e-05
4.96332e-05
7.91382e-05
6.66502e-05
4.55243e-05
5.18075e-05
7.75774e-05
9.55441e-05
0.000105159
0.00014373
0.000148395
0.000186882
0.000183044
0.000216652
0.000218567
6.4941e-05
6.10922e-05
0.000244115
0.00023274
0
0
0.0148542
0
0
0.00757543
0.0162436
0
0
0
0
0.00539001
0.00489373
0
0
0
0
0
0.0156245
0.0826555
0
0.0042158
0.00230712
0.0044394
0.00560088
0.000455325
0.000391618
0.00117666
0.000268367
0.000420053
0.000314172
0.000318405
0.000574699
0.000371268
0.000270264
0.000375993
0.000424051
0.000413094
0.000118695
0.000101592
0.000354657
0.000106902
0.000165281
0.000198252
0.000100391
0.000211897
0.000151985
0.000123162
0.000111402
8.2619e-05
0.000119252
5.15074e-05
6.44386e-05
2.58191e-05
0.000134635
3.7625e-05
2.77385e-05
0.00014442
8.8029e-05
0.000130255
0.000116074
0.000131783
0.000123401
0.000127471
0.000129934
0.000113084
0.000139085
0.000119091
8.72267e-05
0.000131249
6.64303e-05
0.000111918
7.68416e-05
5.71583e-05
7.61458e-05
4.82365e-05
4.76889e-05
1.97572e-05
0
0
0.0171012
0
0
0
0
0.0372367
0
0.0173482
0
0
0
0.0259791
0.0324001
0.0666561
0.0580759
0.0443582
0.197805
0
0
0
0
0
0
0.0209652
0
0
0
0
0
0
0
0
0
0.0295613
0
0
0
0.00217859
0
0
0
0.198942
0
0
0
0
0
0
0
0
0
0
0
0
0
0
0.00192605
0
0
0
0
0
0.00264559
0.00586856
0.00426221
0
0
0
0
0
0
0
0
0
0
0
0
0
0
0
0
0
0
0
0
0
0
0
0
0
0
0
0
0
0
0
0
0
0
0
0
0
0
0
0.005902
0
0
0
0.00164231
0
0
0.000703661
0.0204885
0
0.000263775
0.000265978
0.000239305
0.000277457
0.000286192
0.000293344
0.000300965
0.000331423
0.000330106
0.000308922
0.000311643
0.000334852
0.000294349
0.00031513
0.000384994
0.000363396
0.000419594
0.000388871
0.000413359
0.000106382
0.00021192
0.000341116
9.82996e-05
6.19906e-05
2.83973e-05
0.000178707
0.000145988
0.000376678
0.000709775
0.000102266
0.000323014
0.000724654
0.000426607
0
0
0.00135846
0.000849586
0.00964612
0
0
0.0128599
0.0189446
0
0
0
0
0
0
0
0
0.0188712
0
0
0
0
0
0
9.86718e-05
0.000176185
0.000198858
0.000433909
0.000401313
0.00102831
0.000688737
0.000388832
0.000332258
0.000363923
0.000317564
0.000232457
0.000212342
0
0
0
0
0
0
0.0118653
0.00655454
0
0
0.00652511
0
0
0
0
0
0
0.310527
0
0
0
0
0
0
0
0
0
0
0.0531775
0
0
0
0
0
0
0
0
0
0
0
0
0
0
0
0
0
0
0
0
0
0
0.0149839
0
0
0
0
0
0
0
0
0
0
0
0.000407048
0.00199052
0.0044485
0.00698138
0.0128336
0.0172547
0.0171142
0.0305316
0.00720704
0
0
0
0
0
0
0
0
0
0
0
0
0
0
0.123279
0.00235384
0
0
0
0.0147841
0.0114251
0.0202288
0
0
0
0.00481261
0
0
0
0
0
0
0
0
0.000247266
0.000254588
0.00022286
0.000255141
0.000246327
0.000266781
0.000308593
0.000332693
0.000391349
0.000433333
0.000419278
0.000435767
0.000449389
0.000404966
0.000122743
0.000118061
0.000120511
0.00010626
0.000189572
0.000217986
0.000296183
0.000290853
0.000207627
0.000165673
0.000176231
0.000172698
0.000143666
0.00020064
0.000333673
0.000580488
0.000576035
0.00052888
0.000727401
0.000616434
0.00064605
0.000572332
0.000233915
0.000360646
0.000297941
0.000511792
0.000289823
0.000222802
0.000183547
0.000288391
0.000270408
0.000239799
0.000295924
0.000241219
0.000243283
0.000295897
0.000245397
0.000273824
0.000232561
0.00023273
0.000167513
0.000218752
0.000207377
0.000193028
0.00236607
0.00236612
0.00118509
0.000822677
0.00133554
0.00145573
0.00129241
0.00108013
0.0017771
0.00144242
0.00225391
0.00225011
0.0019075
0.000123946
7.79479e-05
5.93774e-06
4.75387e-05
5.17226e-05
3.74287e-05
4.49839e-05
7.62474e-05
6.55293e-05
6.52752e-05
6.75756e-05
7.2502e-05
7.98288e-05
7.84042e-05
0.000121996
0.000111429
0.000149748
0.000143717
0.000175576
0.000173075
0.000197052
0.000207629
7.02205e-05
8.34761e-05
0.000214581
0.000232807
0
0
0
0
0
0
0
0
0
0.00717752
0
0
0
0
0
0
0.015538
0
0
0.036827
0
0.0101895
0.000826281
0.00260637
0.00390258
0.000204613
0.00121057
0.000465947
0.000582694
0.000545391
0.000658752
0.000476311
5.34373e-05
0.000335878
0.000460873
0.000275183
0.000287425
0.00026239
0.000151208
9.08045e-05
0.000255598
4.41378e-05
7.00152e-05
0.000202986
2.22317e-05
0.000154522
9.79865e-05
0.000119824
9.4295e-05
8.04619e-05
1.34827e-05
8.24154e-05
3.78733e-05
8.96083e-05
4.87872e-05
0.000124164
0.000138951
1.48604e-05
0.000101186
8.56361e-05
9.00513e-05
9.43789e-05
9.14312e-05
8.32044e-05
0.000106994
9.5007e-05
9.39139e-05
9.72284e-05
8.99943e-05
7.53988e-05
7.06397e-05
6.73887e-05
3.56055e-05
2.2486e-05
2.07525e-05
4.153e-05
4.99469e-05
3.39554e-05
0
0
0
0
0
0
0
0
0
0
0
0
0
0
0
0
0
0.205572
0
0
0.210386
0
0
0
0.00256689
0
0
0
0
0
0.00146311
0
0
0
0
0
0
0
0
0
0
0
0
0
0
0
0.199293
0.0595762
0.0412155
0
0
0
0
0.0047993
0
0
0.00385306
0
0
0
0
0.017433
0
0
0.00961555
0
0
0
0
0
0
0
0
0
0
0
0
0
0
0
0
0
0
0
0
0
0
0
0
0
0
0
0
0
0
0
0
0
0
0
0
0
0
0
0
0
0
0
0