/*--------------------------------*- C++ -*----------------------------------*\
  =========                 |
  \\      /  F ield         | OpenFOAM: The Open Source CFD Toolbox
   \\    /   O peration     | Website:  https://openfoam.org
    \\  /    A nd           | Version:  8
     \\/     M anipulation  |
\*---------------------------------------------------------------------------*/
FoamFile
{
    version     2.0;
    format      ascii;
    class       volScalarField;
    location    "2100";
    object      H;
}
// * * * * * * * * * * * * * * * * * * * * * * * * * * * * * * * * * * * * * //

dimensions      [0 1 0 0 0 0 0];

internalField   nonuniform List<scalar> 
526318
(
0.91461
0.872604
0.945479
0.856245
0.930194
0.883503
0.900198
0.815573
0.878782
0.755651
0.736818
0.858254
0.804174
0.845049
0.803474
0.830139
0.805705
1.0017
0.910196
0.955643
0.952163
0.905525
0.666486
0.907453
0.789626
0.655592
0.928088
0.927999
0.929249
0.941787
0.971445
1.01774
0.999215
0.883554
0.87901
0.845839
0.856141
0.945941
0.873962
0.822852
0.884855
0.854976
0.519803
0.571362
0.473537
0.525289
0.499264
0.621292
0.800549
0.703458
0.786053
0.788197
0.743288
0.701166
0.198424
0.446546
0.444749
0.23977
0.95961
0.96993
0.991742
0.943775
0.889245
1.01656
1.01029
0.969894
0.959445
0.955289
0.85854
0.853268
0.967502
0.743599
0.803097
0.695773
0.651029
0.639026
0.738113
0.729135
0.650876
0.687333
0.772757
0.772633
0.724017
0.678911
0.707691
0.773902
0.770533
0.755046
0.706985
0.776904
0.683209
0.628196
0.621812
0.556985
0.551574
0.556412
0.553957
0.552237
0.54997
0.550422
0.000830709
8.70003e-08
0.0127145
0.0495167
0.112689
0.000489998
0.45537
0.270415
0.583991
0.547747
0.587946
0.706361
0.928948
0.819647
0.930301
0.942568
1.00973
0.979809
1.023
0.545805
0.54634
0.550847
0.550424
0.507291
0.547585
0.459252
0.50055
0.410968
0.459738
0.410761
0.409473
0.401384
0.375534
0.368988
0.39611
0.338223
0.392358
0.341936
0.361575
0.306849
0.312169
0.33145
0.36133
0.348709
0.303051
0.305542
0.317389
0.305105
0.303089
0.312733
0.325842
0.313789
0.312709
0.32136
0.317461
0.281765
0.318124
0.319596
0.283833
0.238479
0.317028
0.265584
0.326834
0.81293
0.905798
0.855312
0.834896
0.639295
0.709301
0.64042
0.63981
0.640605
0.641595
0.661445
0.64239
0.576302
0.544994
0.511003
0.455395
0.516458
0.553515
0.555817
0.555561
0.442797
0.495225
0.38273
0.391577
0.401678
0.393033
0.395483
0.397353
0.387377
0.38801
0.385202
0.373853
0.35591
0.380828
0.375635
0.346067
0.328166
0.354844
0.33778
0.332003
0.349969
0.336189
0.343906
0.305036
0.324225
0.353104
0.353254
0.795599
0.808209
0.841251
0.817219
0.795004
0.793953
0.794242
0.672162
0.714988
0.458162
0.436546
0.441409
0.558055
0.697338
0.570017
0.60558
0.610778
0.557191
0.533098
0.0420764
0.000105473
0.177635
0.385024
0.00027704
9.76159e-09
0.000996477
0.000255125
0.000396609
0.000963311
1.0104
0.988648
1.04208
1.03035
1.00356
0.992111
0.901791
0.988071
0.830227
0.774063
0.776972
0.775565
0.77647
0.775828
0.76281
0.765052
0.679566
0.744915
0.561327
0.618328
0.545463
0.560921
0.00100815
1.06404e-10
0.000109022
0.000998914
0.0236187
0.000294142
0.0239195
0.174575
0.553913
0.367824
0.605035
0.604932
0.717124
0.818385
0.940832
0.941439
0.980112
0.956633
1.02526
1.05193
0.526597
0.527386
0.486445
0.459116
0.357179
0.392187
0.321898
0.3291
0.321356
0.315408
0.306743
0.311947
0.238076
0.263666
0.29307
0.3364
0.390132
0.359488
0.317318
0.316829
0.253348
0.244946
0.292693
0.34401
0.267816
0.30545
0.306067
0.273294
0.27219
0.239827
0.238063
0.200902
0.198978
0.197994
0.191721
0.311612
0.350251
0.314458
0.361093
0.705377
0.667284
0.569356
0.657121
0.575998
0.630815
0.639867
0.629595
0.640522
0.641395
0.553466
0.465659
0.392283
0.37839
0.449705
0.3986
0.380933
0.495435
0.385551
0.434067
0.374921
0.373536
0.381703
0.376078
0.387456
0.383726
0.381827
0.387543
0.38725
0.384636
0.39296
0.388921
0.399754
0.398989
0.402941
0.379223
0.395691
0.376908
0.348379
0.353995
0.380411
0.406764
0.405779
0.375499
0.355974
0.388749
0.42713
0.430874
0.439124
0.396345
0.435498
0.453721
0.489393
0.4392
0.446178
0.473769
0.504011
0.615979
0.695271
0.618723
0.65111
0.725505
0.799621
0.692843
0.555471
0.673784
0.572097
0.596021
0.321581
0.277384
0.300326
0.292616
0.408909
0.531528
0.460079
0.533128
0.527401
0.552677
0.528109
0.000727933
0.000435787
0.100138
1.24915e-07
0.187772
0.0698051
0.000599399
0.00127482
0.000274748
0.00100962
0.000664765
0.00100889
0.000730728
0.000955715
0.000582482
0.000952703
1.03757
1.02319
1.06283
1.04873
1.02976
1.00281
0.924135
0.842522
0.773818
0.786201
0.765986
0.760153
0.743377
0.74509
0.727279
0.72257
0.672677
0.717416
0.641483
0.582055
0.52946
0.485692
0.000956836
0.00119159
0.0009818
0.000663073
0.000357198
0.000718604
0.000562173
0.000420374
0.00119087
0.0011881
0.000646663
0.00100984
0.000790809
0.00100942
0.00134696
0.00017911
0.00023894
0.000698627
0.000929979
0.00101466
0.000140369
0.00081212
0.0919599
0.0630675
0.264634
0.103831
0.465604
0.630374
0.640257
0.736243
0.952187
0.847893
0.969464
0.965424
0.980975
1.01064
1.04359
1.05902
0.445323
0.446147
0.399865
0.425075
0.364526
0.329121
0.319804
0.320485
0.314181
0.323022
0.275549
0.269025
0.215015
0.235432
0.286631
0.264548
0.233338
0.281241
0.276977
0.290297
0.200776
0.192122
0.2131
0.224728
0.226715
0.184058
0.187849
0.184311
0.190304
0.174166
0.169962
0.472935
0.451604
0.448756
0.445546
0.471019
0.570782
0.533409
0.510468
0.397946
0.435797
0.426276
0.42641
0.324615
0.260983
0.434637
0.541244
0.439531
0.441196
0.42028
0.503789
0.482182
0.555078
0.588286
0.515865
0.494358
0.532049
0.409291
0.377552
0.380634
0.374753
0.292413
0.350368
0.276166
0.226771
0.207257
0.325403
0.328067
0.372273
0.372315
0.374806
0.377082
0.374713
0.384688
0.378453
0.390941
0.381834
0.400989
0.393067
0.399921
0.401808
0.42651
0.411896
0.439507
0.444345
0.388056
0.375725
0.441146
0.422915
0.410492
0.428969
0.409575
0.397549
0.449361
0.429791
0.530779
0.5391
0.489404
0.531849
0.542084
0.503829
0.59554
0.570889
0.635612
0.658201
0.683573
0.587832
0.597608
0.593039
0.558696
0.531128
0.504227
0.589946
0.443953
0.427047
0.473423
0.495805
0.169872
0.217996
0.304543
0.423605
0.454211
0.495899
0.397826
0.357119
0.323133
0.267603
0.000965631
0.00059563
0.000409333
7.97938e-10
0.10058
0.170093
0.000993891
0.000234006
0.00100979
0.000545241
0.00024476
0.000470015
0.000926911
0.000208943
0.000648911
0.000986846
0.000766556
0.000551352
0.000138864
0.000388285
0.00097475
0.00101
0.000131117
0.00100044
0.000980267
0.000383333
0.00118217
0.00096771
0.000975879
0.0011819
0.0011819
0.00118192
0.00084039
0.000999494
0.000972368
0.000201819
9.59135e-05
0.000989075
0.000892979
0.0009482
0.00100959
0.000881287
0.00100877
0.00100398
2.70905e-05
0.000985454
1.02792
1.03955
1.06009
1.04863
1.02545
0.955949
0.775112
0.860659
0.744362
0.747576
0.728236
0.723312
0.715951
0.718837
0.710428
0.711393
0.658044
0.624549
0.528301
0.569193
0.426219
0.46467
0.000851104
0.000624444
0.000948563
0.000967574
0.000969827
0.000959968
0.000986514
0.000867944
0.000998153
0.000704389
0.000677989
0.000965569
0.000971308
0.000759356
0.000363775
0.000983729
0.000690401
0.00100737
0.000803925
0.000839513
0.000369052
0.000975289
0.000889611
0.000497262
0.00129303
0.000943296
0.000919582
9.07407e-05
1.08111e-05
0.000363995
0.125896
0.000652952
0.150986
0.150955
0.448384
0.272775
0.65232
0.608915
0.677794
0.782766
0.888504
0.965489
0.979428
0.970031
1.00868
1.04008
1.02567
1.02517
0.00101
0.000734461
0.000886173
0.000277868
0.000947143
0.000922867
0.00081396
0.000926951
0.000890554
0.000769484
0.000975785
0.00092383
0.000794854
6.77522e-07
0.000720774
0.00105283
0.000170373
0.424373
0.426224
0.425448
0.390542
0.310366
0.347958
0.270647
0.265395
0.228717
0.226204
0.179741
0.177789
0.212981
0.202885
0.164627
0.203712
0.196357
0.253914
0.231207
0.235447
0.152993
0.120589
0.127387
0.168962
0.168867
0.169067
0.147822
0.150008
0.111962
0.103574
0.0654765
0.0668973
0.671814
0.637398
0.682246
0.691843
0.637071
0.59165
0.765236
0.785628
0.848145
0.856597
0.409133
0.441231
0.499172
0.584408
0.402358
0.34631
0.385045
0.386661
0.220212
0.279865
0.317179
0.203681
0.418469
0.418017
0.419843
0.418403
0.440651
0.422794
0.437258
0.448146
0.333461
0.322224
0.226688
0.305328
0.301272
0.260819
0.211405
0.230388
0.174566
0.195843
0.172277
0.257179
0.319777
0.257655
0.323795
0.375075
0.377318
0.376408
0.378581
0.383375
0.402124
0.393544
0.408796
0.407559
0.429737
0.419594
0.445665
0.443943
0.450036
0.441364
0.453452
0.448231
0.48607
0.46337
0.42938
0.424665
0.492857
0.458096
0.47189
0.505772
0.548786
0.54527
0.548531
0.547168
0.578753
0.633591
0.694887
0.716091
0.727122
0.704237
0.845158
0.785835
0.912878
0.95225
0.939831
0.980965
1.03906
0.898199
0.987353
1.01314
1.08201
1.13199
1.16362
1.17992
1.21091
1.15845
1.21278
1.17083
1.24788
1.24919
1.29955
1.26815
1.32501
1.35998
1.34472
1.29785
1.35639
1.38443
1.34925
1.34777
1.41026
1.38908
1.42259
1.36206
1.36292
1.42541
1.3913
1.34499
1.34646
1.38136
1.40811
0.397121
0.357599
0.526393
0.522305
0.498125
0.489733
0.491843
0.260532
0.387899
0.0929684
0.116477
0.221281
0.210888
0.084381
0.161833
0.152634
0.324757
0.222858
0.221011
0.138607
0.135123
0.145472
0.157543
0.000349495
0.00107379
0.000810358
0.000234885
0.000784903
8.60608e-05
0.00101
0.000966006
0.000995857
0.00070919
2.36327e-05
0.00123173
0.000842141
0.000928041
0.000844807
0.000867055
0.000163614
0.00069126
0.000943677
0.000831092
0.00111449
0.000832683
0.00012748
0.000146108
0.000949
0.000255762
1.63656e-05
1.61879e-05
0.000990101
0.000818938
0.00100231
0.000835983
0.00091624
0.000410555
0.000483556
0.000651205
0.000762255
0.000945839
0.00089262
0.000980842
0.0010096
0.000991163
0.00142005
0.000942853
0.00117794
0.000928599
0.00117837
0.00117874
0.00119225
0.000904483
0.00117928
0.00117903
0.000251147
0.000916464
0.00103474
0.000935987
0.000921352
0.000377029
0.000991017
0.000960908
0.00100744
0.000997061
0.000136942
0.000962333
0.000950381
0.000921886
0.000915695
0.000919934
0.000961853
0.00137454
0.000915567
0.000968314
1.01727
1.00494
0.978661
0.978257
0.893152
0.96708
0.793124
0.725247
0.715316
0.715798
0.715811
0.717214
0.654597
0.663771
0.507853
0.465407
0.426359
0.59762
0.59809
0.547773
0.548786
0.546972
0.000827014
0.000479614
0.00126646
0.00126376
0.000967853
0.000410537
0.000580511
0.000410365
0.000995333
0.00102394
0.000161511
0.00100893
0.000992648
0.000944764
0.000297472
0.000985833
0.000726155
0.00091818
0.00021426
0.000777799
0.000586615
0.000951565
0.00111311
0.00111334
0.00041997
8.24728e-06
0.000221685
0.14664
0.275891
0.148816
0.440446
0.611861
0.640064
0.671023
0.752597
0.863485
0.931022
0.908698
0.952513
0.888742
0.936673
0.97961
0.936534
0.931488
0.00125733
0.000957679
0.00111197
0.000849207
0.000995281
0.00120845
0.000602707
0.000795712
0.00120843
0.00098429
0.00099196
0.00100515
0.000844192
1.14836e-05
0.000802778
0.000730009
0.000776991
0.000656439
0.00098774
0.000236686
0.000248866
0.000304557
0.00096459
0.00085635
0.001335
0.000478629
0.399979
0.398748
0.318524
0.338502
0.213382
0.23769
0.177797
0.173574
0.175322
0.17668
0.147474
0.148382
0.123133
0.129098
0.102344
0.146183
0.221482
0.184954
0.22098
0.227365
0.040734
0.0620158
0.10338
0.0803188
0.0898329
0.093196
0.0405152
0.0321949
0.018915
0.0328138
0.0416277
0.039922
0.893595
0.893988
0.723497
0.635081
0.621389
0.608223
0.889747
0.805593
1.04812
1.12304
1.02076
0.942215
1.13672
1.12126
1.18749
1.23493
1.26522
1.26592
1.29383
1.26694
1.32141
1.34759
1.34366
1.34253
1.36056
1.34629
1.34497
1.39123
1.33436
1.33205
0.454028
0.383976
0.527557
0.600259
0.382208
0.326067
0.383941
0.386481
0.208686
0.269216
0.0950106
0.257979
0.145381
0.421949
0.358664
0.418193
0.410816
0.422104
0.316214
0.215018
0.136088
0.126559
0.141222
0.174757
0.106912
0.0919082
0.0182681
0.107136
0.188691
0.180835
0.104554
0.199542
0.269551
0.217524
0.323949
0.270497
0.314048
0.368304
0.40367
0.384173
0.415281
0.415546
0.43184
0.416128
0.449367
0.465115
0.461781
0.474646
0.480265
0.480743
0.518279
0.52262
0.514852
0.514217
0.512626
0.509726
0.524937
0.540305
0.59046
0.577463
0.54504
0.580963
0.575008
0.606034
0.639377
0.708225
0.737418
0.737861
0.748899
0.817062
0.898844
0.972183
0.98354
1.11068
0.987038
1.0341
1.18848
1.20932
1.21402
1.24782
1.29659
1.34744
1.35286
1.36075
1.38588
1.41655
1.442
1.4399
1.44978
1.43947
1.44061
1.42147
1.35928
1.41975
1.39566
1.34668
1.34746
1.37915
1.40667
1.4166
1.34736
1.40752
1.36873
0.184491
0.178699
0.246577
0.321405
0.212642
0.27915
0.41587
0.352642
0.379622
0.215918
0.119625
0.0834012
0.0830526
0.190925
0.173838
8.10579e-08
0.000608576
0.135802
0.0244281
0.135495
0.131741
0.142143
0.132769
0.148837
0.165819
0.000871197
0.000837817
0.000904459
0.000821089
0.0012983
0.00129814
0.00086849
0.000172666
0.000919349
0.00123117
0.000981197
0.000951124
0.000506401
0.000315336
0.000512602
0.00105205
0.000713858
0.00111396
0.000934557
0.000984534
0.000917402
0.000660221
0.000998234
0.000701989
0.00100779
0.000868975
0.00105391
0.000962878
0.000810805
0.000709956
0.00120122
0.000105708
0.000999557
0.000884356
0.000280955
0.000852183
0.000544652
0.000890833
0.000765323
0.00099421
0.000981118
0.000823507
0.000978339
0.000943996
0.000974885
0.00092222
0.000281485
0.00154081
0.000949651
0.00106726
0.000920229
0.00100962
0.000641972
0.000367709
0.000916152
0.000960434
0.000951793
0.000892128
0.000800736
0.000479733
0.932737
0.926424
0.910039
0.91529
0.845166
0.908848
0.714663
0.780178
0.677208
0.678564
0.620013
0.603978
0.548298
0.548189
0.464677
0.359349
0.336858
0.504541
0.549953
0.548764
0.547415
0.548274
0.00127478
0.000979749
0.00127606
0.000275827
0.000956527
0.000945818
0.000977644
0.00099334
0.000967193
0.000813892
0.000135327
0.000443454
0.000999665
0.000979554
0.00060297
0.00100999
0.00098232
3.53596e-05
0.000985985
0.000873381
0.000276721
0.000865047
0.000442913
0.00105728
0.000325486
1.08694e-05
0.110485
0.145234
0.338188
0.171734
0.482739
0.611958
0.589338
0.696296
0.863453
0.767253
0.843436
0.844597
0.836008
0.865907
0.920653
0.915744
0.924435
0.894019
0.000769413
0.000922585
0.000573493
0.000958878
0.000712787
0.000933944
0.000627141
0.000311966
0.000809701
0.000879841
0.000957505
0.000891854
0.000972914
0.000668147
0.00102123
0.000874658
0.00096514
0.000987798
0.000851001
0.00107143
0.000724369
0.00107166
0.000907772
0.000926173
0.00102701
0.000860782
0.000668131
0.000540066
0.000136748
0.000756032
0.000938482
0.274323
0.277064
0.240326
0.218065
0.173119
0.197985
0.165358
0.164216
0.318236
0.259827
0.239322
0.0912738
0.102221
0.0317215
0.0333219
0.111137
0.105293
0.105134
0.129775
0.199258
0.142159
0.189142
0.170619
0.0638201
0.0425116
0.0558915
0.0759495
0.00172526
0.00180804
0.00237789
0.0134845
0.0280205
0.0168658
0.00079355
0.000813002
1.46999
1.4788
1.50679
1.48563
1.52664
1.51345
1.53507
1.52842
1.58269
1.56743
1.53218
1.58346
1.55102
1.60524
1.43236
1.38656
1.40643
1.45287
1.43519
1.40433
1.40884
1.46136
1.4677
1.44379
1.42129
1.47697
1.45941
1.46763
1.49627
1.34471
1.34678
1.34933
1.34353
1.36447
1.38822
0.939896
0.885531
0.781108
0.68232
0.594311
0.669264
0.877138
0.857257
1.09322
1.11882
1.00474
1.08776
1.12716
1.17392
1.22308
1.26525
1.26217
1.26515
1.26046
1.2924
1.30376
1.33076
1.31734
1.31936
1.32239
1.33043
1.31087
1.30794
0.503494
0.435636
0.376462
0.369329
0.426385
0.596033
0.578223
0.299712
0.367262
0.238271
0.1636
1.4528
1.46818
1.48813
1.49448
1.49863
1.51408
1.51663
1.54707
1.53009
1.55005
1.54694
1.59497
1.61555
1.64006
1.6378
1.6447
1.65907
1.67964
0.137658
0.0835081
0.0838324
0.345028
0.232317
0.401523
0.305744
0.221051
0.123438
0.123237
0.123621
0.122178
0.000756661
0.0523436
0.000349069
1.87217e-22
0.0109368
8.13541e-100
0.19489
0.128533
0.0216043
0.216841
0.219601
0.217802
0.272672
0.234103
0.354964
0.308564
0.387216
0.357896
0.394622
0.419554
0.441408
0.46437
0.48801
0.484476
0.496649
0.486591
0.546178
0.530434
0.528713
0.526047
0.577127
0.553464
0.619185
0.585648
0.564541
0.609525
0.651248
0.642765
0.663635
0.70389
0.703299
0.646154
0.757747
0.788022
0.757168
0.745771
0.827206
0.914298
0.982641
1.04961
1.00176
1.01719
1.1493
1.20138
1.2521
1.22725
1.29506
1.32446
1.36569
1.37978
1.37466
1.39515
1.45191
1.43425
1.45084
1.45276
1.44183
1.43237
1.45226
1.43598
1.43947
1.43712
1.43595
0.162495
0.157063
0.185962
0.107251
0.127443
0.14389
0.0802998
0.22342
0.118639
0.0608409
0.0771482
0.0587964
0.000510029
0.0575954
0.0814336
0.000402515
1.63894e-16
9.9937e-09
0.000545385
0.129958
0.0236695
0.0282773
0.0333669
0.000468005
1.42028e-05
0.000209803
0.000953536
0.000922916
0.00111722
0.00111703
0.00129775
0.000635044
0.00109855
0.000948161
0.000776109
0.00096702
0.000896738
0.000998449
0.00026155
0.000888291
0.00100984
0.000937879
0.00111682
0.000785062
0.000398457
0.000668916
0.000968977
0.000270015
0.000740386
1.21223e-06
0.0001021
0.00235088
0.000302022
0.00101026
0.000694792
0.000545923
0.000960813
0.000396714
0.00100993
0.00096812
0.00102301
0.000972086
0.000999516
0.000688595
0.0011817
0.000944958
0.000681595
0.000960686
0.000859574
0.00117344
0.00089779
0.000955844
0.000631827
0.000258775
0.00080487
0.000964465
0.000941166
0.000838222
0.00108475
0.00036403
0.000860837
0.000714123
0.000978177
0.000925692
0.000935309
0.000932934
0.00091709
0.000695524
0.000567275
0.00170923
0.000266073
0.000674617
0.000835469
0.000978825
0.00170965
1.63158
1.59997
1.57077
1.67557
1.70821
1.70533
0.90908
0.908552
0.893578
0.889054
0.815237
0.877041
0.71392
0.634966
0.563777
0.578033
0.549001
0.546705
0.544651
0.548789
0.425837
0.343769
0.433827
0.513
0.510457
0.00093523
0.000862557
0.000875173
0.000890082
0.00095502
0.000963454
0.0009791
0.000493094
0.000952111
0.000556963
0.00100943
0.00100702
0.000860931
0.107727
0.142364
0.170426
0.00100998
0.000498781
0.000128694
0.000946984
4.59314e-06
0.000265861
0.000921556
0.000860513
0.000622617
0.000783296
0.000481164
0.315635
0.450502
0.565724
0.570693
0.887485
0.806129
0.818589
0.606859
0.69312
0.783586
0.835981
0.837764
0.834439
0.853173
0.884533
0.87342
0.000767973
0.00109562
0.000627243
0.000982796
0.000877751
0.0009143
0.00100904
0.000845157
0.000781406
0.000926831
0.000817811
0.000932446
0.000763197
0.0011205
0.000984505
0.000920794
0.000929381
0.00109213
0.000994413
0.000975509
0.00090889
0.000872463
0.000803256
0.00110391
0.000975548
0.000885373
0.000494652
0.000801713
0.000962731
0.000997136
0.00114871
0.000984843
0.000791152
0.00101
0.000788921
0.00101
0.001009
0.272797
0.308364
0.296447
0.239121
0.23877
0.209404
0.232502
0.0988863
0.128403
0.0383875
0.0374961
0.242624
0.232869
0.00039352
0.000274281
0.00175694
0.00346288
0.0520379
0.0372623
0.0784996
0.0203327
0.13914
0.0974979
0.14591
0.153719
0.000639976
0.000706668
0.000730484
0.000506433
0.000774372
0.000405731
0.000693939
0.000282451
0.000364452
0.000994303
8.71897e-06
0.000979051
1.46829
1.48443
1.50858
1.52976
1.53598
1.53637
1.57276
1.54626
1.40111
1.39916
1.38203
1.40269
1.43514
1.39737
1.44373
1.41655
1.33186
1.31902
1.31886
1.3529
1.38199
1.35616
0.947272
0.867649
0.760316
0.850608
0.693065
0.607998
0.861551
0.867523
1.10124
1.1051
1.11959
1.01905
1.09578
1.20722
1.1538
1.09557
1.13839
1.23906
1.2534
1.24285
1.25096
1.25711
1.28215
1.30989
1.29794
1.30917
1.30822
1.30369
1.30749
1.30802
1.30612
0.342863
0.35761
0.49262
0.571609
0.350648
0.436018
0.592645
0.601243
0.342276
0.281881
0.19861
0.257143
1.48259
1.44788
1.45912
1.50908
1.50492
1.50924
1.51924
1.54276
1.563
1.57256
1.57552
1.5786
1.59861
1.63709
1.6225
1.64025
1.65567
1.70271
1.68262
1.51598
1.52705
1.54328
1.71103
1.7102
1.70897
0.0824892
0.0849982
0.0871419
0.0553199
0.153374
0.165645
0.000664702
0.0110501
0.0463281
0.000649597
0.00075429
4.68338e-07
0.000808239
0.00140983
0.00055746
0.00140982
0.000969713
1.91092e-06
0.0760003
0.00428765
0.00377994
0.148211
0.22389
0.138768
0.294475
0.322718
0.253957
0.295605
0.358065
0.324319
0.445933
0.395911
0.460666
0.475248
0.487911
0.476075
0.524367
0.567904
0.597901
0.603599
0.611374
0.592238
0.622555
0.60153
0.648779
0.658056
0.680256
0.67602
0.652236
0.658648
0.778885
0.824793
0.723683
0.787184
0.833116
0.792778
0.894211
0.944477
1.03555
1.08351
1.0525
1.15076
1.19831
1.30437
1.28471
1.34466
1.32142
1.41492
1.42011
1.41432
1.44363
1.47336
1.47117
1.52722
1.49105
1.51613
1.47043
1.49473
1.51168
1.43128
1.477
1.44249
0.00041949
0.000464877
0.000931728
0.000507464
0.0967927
0.0791056
0.079831
0.0583916
0.0780123
0.000695652
4.91318e-06
0.000590538
0.000128908
1.4751e-05
0.000550006
0.000414935
6.25428e-07
1.26998e-05
0.000302915
5.31907e-05
0.000783978
0.000801213
1.04606e-06
0.00035877
0.000978557
0.000382819
0.000999883
0.000235474
0.00111704
0.00111698
0.000940016
0.000995782
0.000992745
3.82214e-05
0.00101
0.000912008
0.0010004
0.000112849
0.00044385
0.000919656
0.000906902
0.000297927
0.00133019
0.000141337
0.000984734
7.82134e-05
0.0009581
0.000364482
0.000984125
2.55198e-05
0.000996286
0.00215771
0.000973395
0.000134455
0.000917001
0.00135066
0.00109494
0.000479862
0.0010191
0.00101914
0.000465046
0.000980078
0.00102701
0.000891569
0.00118565
0.00117587
0.000976261
0.000978266
0.00117407
0.00117555
0.000955402
0.000825517
0.000711032
0.000919589
0.0012039
0.000125724
0.00120354
0.000973772
0.00098702
0.000966821
0.000959965
0.00100975
0.00104376
0.00104401
0.000905922
0.000805878
0.000827454
1.24736e-05
9.12481e-06
0
0.00099695
0.000799517
0.000430028
0.000902405
0.0010949
0.000923733
0.00100958
0.00100998
0.000998636
0.000998553
0.000946811
0.000914726
0.00101
1.59087
1.60445
1.60419
1.60805
1.64029
1.75114
1.72477
1.72906
1.75264
1.69157
0.816037
0.801814
0.740425
0.744803
0.700397
0.730609
0.640155
0.595719
0.579001
0.548496
0.523452
0.519652
0.432876
0.439799
0.313178
0.35377
0.352985
0.000529692
0.000965684
0.000913493
0.00101
0.000994913
0.000958706
0.00079604
0.147054
0.282671
0.144575
0.000919443
0.000194133
0.000939635
0.000982453
0.00961603
0.000332424
0.00101178
0.00094893
0.000966057
0.00102326
0.000849804
0.00098479
0.000944045
0.000847483
0.000252265
0.682129
0.681086
0.72667
0.428402
0.564542
0.567484
0.600559
0.727522
0.795463
0.755935
0.664471
0.747204
0.77426
0.780155
0.698294
0.727267
0.000957717
0.000997749
0.00109521
0.00107584
0.000396048
0.000962724
0.00107762
0.0012819
0.00092726
0.000996644
0.000161435
0.000909279
0.00096803
0.000936631
0.000510229
0.00292414
0.00292494
0.00292522
0.000387176
0.000938817
0.000827964
0.00109474
0.000913244
0.000929664
0.000926727
0.00104042
0
0
0
0.000945975
0.000905119
0.000967225
0.00100048
0.000836671
0.00045767
0.000915993
0.000930546
0.000980186
0.000986654
0.000330773
0.000914357
0.000962319
0.000958998
0.000686934
0.00095775
0.289476
0.303274
0.311308
0.178796
0.198506
0.158717
0.157486
0.0908608
0.0755597
0.000530049
0.0036086
0.0023406
0.00339058
0.0915051
0.0886753
0.000445207
0.000607027
0.000242686
0.000584634
0.000686772
0.000673663
0.00453749
0.0560497
0.131839
0.111656
0.168594
0.11895
0.000105983
0.000831136
0.000748908
0.00127466
0.000312228
0.000747328
0.00071343
0.000346646
0.00101
0.000942721
0.000733473
0.00139208
1.47699
1.42679
1.50893
1.46903
1.47792
1.52056
1.50895
1.56102
1.53567
1.58482
1.55216
1.5201
1.58536
1.55076
1.36813
1.36603
1.35745
1.36957
1.38206
1.39351
1.39137
1.40285
1.30481
1.30676
1.32979
1.31594
1.34742
1.35377
0.94981
0.868419
0.787665
0.860527
0.657717
0.745786
0.865092
0.868977
1.09587
1.09515
1.09863
1.02535
1.18278
1.23181
1.14398
1.0943
1.23847
1.23525
1.25183
1.23565
1.2736
1.29782
1.30455
1.30717
1.30656
1.30296
1.30774
1.30316
1.30397
1.30356
0.351806
0.33796
0.509282
0.587979
0.490859
0.408127
0.638124
0.588627
0.32151
0.33942
0.305709
0.235701
1.49678
1.52053
1.49484
1.53281
1.54969
1.53897
1.57093
1.58307
1.56286
1.57345
1.56291
1.57257
1.57618
1.59957
1.62029
1.63924
1.63624
1.68809
1.66959
1.71609
1.72604
1.59745
1.60789
1.72747
1.73425
0.000437086
0.000576657
0.000774652
0.000734788
0.000585383
0.000114681
0.000200151
0.000229668
0.00105075
1.1771e-05
0.000927799
0.000258474
0.000563694
0.000657476
5.07035e-06
0.000780461
0.00407062
0.000162906
0.0129885
0.012048
0.00429561
0.075926
0.225052
0.123839
0.31452
0.311093
0.279923
0.222907
0.351475
0.390794
0.446531
0.438457
0.461185
0.451923
0.57337
0.518205
0.617894
0.616913
0.634631
0.645985
0.611638
0.671288
0.718803
0.693623
0.68005
0.699487
0.75078
0.740528
0.718697
0.765907
0.849675
0.845111
0.842375
0.86073
0.990033
0.910617
1.08076
1.09834
1.10533
1.16691
1.24705
1.31972
1.32961
1.34073
1.38899
1.43606
1.47467
1.47385
1.51299
1.4877
1.5393
1.55189
1.55232
1.54975
1.55206
1.55545
1.50373
1.54934
1.52545
0.000844722
6.39507e-05
0.00543157
0.00102616
0.000821071
0.000438155
0.00077893
0.000440693
0.0008463
0.00057667
0.000680478
0.00122342
0.000249174
0.00122552
0.00122446
0.00122826
0.00123004
0.000951451
0.00123267
0.00523577
0.000999027
0.000638589
0.000184916
0.00201478
0.000309917
0.00201491
0.00201552
0.000523219
0.000533986
0.00100217
0.000993637
0.000687571
0.000937105
0.000417883
0.00112569
0.00103768
0.000791887
0.000959982
0.00100986
0.000887496
0.000962023
0.000996272
0.00121541
0.000983734
0.000146754
1.36216e-05
0.000607696
0.00096357
0.000988249
0.000479144
0.000826696
0.000995103
0.00100941
0.00031059
0.00017161
0.000987756
0.00100992
0.000817418
0.000560979
0.000912277
0.00101
0.000799183
0.000974831
0.000279366
0.000904827
0.00095865
0.000844587
0.00101
0.000954704
0.000876282
0.000986624
0.00102676
0.00097168
0.000773375
0.000984106
0.000952799
0.000957237
0.00098992
0.000934564
0.000964099
0.000974876
0.000974485
0.00138863
0.000991565
0.000905098
0.000691574
0
0
0
0
0
0
0
0
0
0
0
0
0
0
0
0
0
0
0
0.00099334
0.000900055
0.000937661
0.000812305
0.000950155
0.000436148
0.000953503
0.00111252
0.000325168
0.000811332
0.000317982
0.000878445
1.77976
1.76753
1.78474
1.77566
1.78642
1.78554
1.62043
1.62122
1.69025
1.65888
1.751
1.77609
1.75039
1.63335
1.58344
0.680733
0.680664
0.677363
0.670042
0.677246
0.612842
0.658771
0.443312
0.496044
0.365296
0.362206
0.309692
0.311225
0.312535
4.53839e-05
0.000941276
0.000498106
0.00133247
0.117448
0.308616
0.143064
0.00104316
0.000834248
0.0938582
5.33641e-05
0.000971966
0.000945796
0.000976708
0.000966256
0.000717645
0.000560552
0.00097307
0.00102446
0.000190643
0.00102646
0.000932938
0.0004632
0.000768031
0.681413
0.680517
0.685291
0.684206
0.681872
0.396071
0.507916
0.452711
0.571258
0.634092
0.658074
0.587164
0.6715
0.622894
0.623349
0.609522
0.000954778
0.00115426
0.000618097
0.000970576
0.000973219
0.000935143
0.0009571
0.00101907
9.87151e-05
0.000685452
0.00101057
0.00048326
6.92933e-05
0.000527482
0.000984792
0.000616055
0.000763669
0.000919235
0.000886835
0.00101605
0.000694993
0.000941794
0.000740767
0.000726241
0.000621516
0.00100951
0.000739043
0.000807215
0.000354107
2.15212e-05
0
0
0
0
0
0.000969416
0.000984073
0.000907267
0.00118648
0.00111185
0.000652115
0.000835369
0.000380938
0.00101209
0.00101223
0.000964926
0.000965413
0.000695838
0.000988605
0.000787048
0.000894307
0
0
0
0
0
0
0.2895
0.216346
0.208713
0.137896
0.129879
0.0439567
0.0316622
0.0210819
0.0221983
0.0138445
0.0246122
0.000876812
0.000908757
0.000550644
0.00033854
0.0228124
0.0282567
0.000795758
0.000905726
0.000971356
0.000992811
0.109283
0.164612
0.0812519
0.000837722
0.000710288
0.0383623
0.000892889
0.0501955
0.00027789
0.000689118
1.31742e-05
0.000467482
0.00182149
0.00182189
0.00075089
0.000959699
0.000281529
0.000798649
0.00100972
0.000818552
1.43973
1.41903
1.45053
1.44892
1.45038
1.4702
1.48914
1.5092
1.50541
1.50618
1.58607
1.54438
1.50794
1.35602
1.35566
1.38357
1.37009
1.39397
1.39289
1.4191
1.39908
1.30716
1.31073
1.33539
1.32096
1.33551
1.34404
0.985003
0.908051
0.830362
0.860945
0.809463
0.715963
0.899426
0.868881
1.10003
1.1013
1.06062
1.10426
1.18925
1.24238
1.10079
1.15171
1.23973
1.2422
1.26385
1.24178
1.28256
1.30294
1.30068
1.30156
1.30161
1.30169
1.30098
1.3031
1.30217
1.30042
0.340625
0.405951
0.585006
0.56398
0.489887
0.56943
0.589248
0.663318
0.329987
0.336663
0.319123
0.24829
0.0765853
0.124578
0.206024
1.56882
1.55277
1.5891
1.57592
1.60696
1.61357
1.61117
1.61039
1.64842
1.62759
1.63767
1.60709
1.63587
1.64601
1.66809
1.68905
1.70228
1.69499
1.75325
1.7488
1.77829
1.75225
1.66417
1.67587
1.78904
1.78739
0.000172625
0.000278296
0.00104336
8.98509e-06
0.000729054
0.00126021
0.00126006
0.000759085
0.000305007
0.000157083
0.000199772
0.00182966
0.0013508
0.000318165
0.000822227
0.000835447
0.00100232
0.000985108
0.064356
0.0222129
0.000238881
0.114237
0.157012
0.17604
0.156233
0.262049
0.331874
0.211903
0.432072
0.372842
0.446268
0.44166
0.535255
0.477385
0.596529
0.63577
0.629362
0.629839
0.757191
0.715686
0.684781
0.74056
0.771008
0.764133
0.757019
0.744746
0.760212
0.76248
0.843104
0.885273
0.922558
0.883454
0.923967
0.952752
1.08852
1.0242
1.11669
1.10088
1.18306
1.25689
1.34406
1.33951
1.3758
1.41361
1.4916
1.47959
1.50522
1.50827
1.53546
1.54692
1.56235
1.55473
1.56616
1.55898
1.55297
1.56786
1.55237
1.55621
0.000952892
0.000971317
0.00106691
0.000771669
0.000963284
0.000657298
0.000566723
0.00127475
0.000881636
0.00121926
0.000312333
0.000915447
0.000295436
0.00122192
0.00122053
0.00122624
0.00122897
0.00123538
0.00123383
0.000336858
0.000371652
0.00100886
0.000717288
0.000938422
0.00096043
0.00142778
0.000968946
0.000997311
0.000180038
0.000954666
0.000624923
0.00101
0.000209386
0.000811766
0.00100863
0.00103279
0.000771368
0.000881619
0.000842463
0.00335773
0.000107528
0.000210438
0.00024578
0.00101584
0.000932957
6.59175e-09
0.000999216
0.00100983
0.000292881
0.000848872
0.00100647
0.000131712
0.00100976
0.000959372
0.000192273
0.000986414
0.000984453
0.00096021
0.00334548
0.000980885
0.000759889
0.00098777
0.000863873
0.000791971
0.0011094
0.00110934
0.00110859
0.000896489
0.000943214
0.000975384
0.000973731
0.000935172
0.000927075
0.000961192
0.000874935
0.000897996
0.000947049
0.000951887
0.000925848
1.67713e-05
0.000881191
0.00092376
0.0003855
0.000414352
0.00098456
0
0
0
0
0
0
0
0
0
0
0
0
0
0
0
0
0
0
0
0.000983038
0.000947549
0.00101278
0.000933048
0.000866016
0.000834891
0.00120431
0.000673629
0.000752286
0.00115243
0.00109674
0.000972147
1.79821
1.82143
1.82924
1.78578
1.79068
1.77656
1.78486
1.67227