/*--------------------------------*- C++ -*----------------------------------*\
  =========                 |
  \\      /  F ield         | OpenFOAM: The Open Source CFD Toolbox
   \\    /   O peration     | Website:  https://openfoam.org
    \\  /    A nd           | Version:  8
     \\/     M anipulation  |
\*---------------------------------------------------------------------------*/
FoamFile
{
    version     2.0;
    format      ascii;
    class       surfaceScalarField;
    location    "2100";
    object      phi;
}
// * * * * * * * * * * * * * * * * * * * * * * * * * * * * * * * * * * * * * //

dimensions      [0 3 -1 0 0 0 0];

internalField   nonuniform List<scalar> 
788991
(
0.0673597
-0.0105524
0.0350383
0.0586143
-0.02872
0.102531
0.0106757
0.0109206
0.0575184
-0.036792
0.0527094
-0.0523899
-0.0133911
0.057688
0.0434548
0.0760718
-0.07684
-0.0410876
0.0681396
-0.107221
-0.0363614
-0.0296205
0.072299
-0.0243581
0.0245045
-0.0404355
0.0428961
-0.0322588
-0.0192902
-0.0192277
-0.0172607
-0.0293815
-0.00146996
-0.0218581
-0.0285761
-0.00677977
-0.0246895
0.00673244
0.0761372
0.00363329
-0.00287672
-0.0156113
-0.0312768
0.0667478
-0.0894161
0.0412316
0.0688019
-0.0381138
0.0255652
0.0601038
0.097118
-0.0129645
0.0760363
-0.0314444
-0.094989
-0.000367258
-0.0275624
0.0118215
-0.0209635
-0.0381167
-0.00602919
0.0362334
0.0272218
-0.0464496
0.0355971
-0.076431
-0.0421003
0.0330541
-0.0993544
-0.02755
0.058445
-0.0766217
-0.00795402
-0.0310703
-0.0136172
0.0268374
-0.0625809
0.0562403
0.00368049
-0.0387183
-0.0527526
0.054783
-0.0327538
0.0147886
0.0070138
-0.000610672
-0.0418626
0.0414371
0.0412304
-0.00868799
-0.0658605
-0.00496838
0.0292894
0.0347199
0.0248372
-0.0526638
-0.0155297
-0.0478701
0.0513523
-0.0163538
-0.0277393
-0.00395883
0.00907191
0.0366396
-0.0155494
-0.010456
-0.00735303
-0.00131369
0.00970747
0.00207678
0.00735
-0.0100735
-0.00459873
0.00585718
0.011119
0.0151103
0.00356201
-0.00172128
0.0125422
-0.0287146
-0.022052
0.00843832
-0.00608535
0.00149114
0.0128623
0.026245
-0.00423228
0.0229807
0.0201874
-0.0215861
-0.0341924
-0.00180667
0
0
-0.00340175
0.00446896
-0.0191628
-0.0316779
-0.0137362
-0.00153543
-0.0313832
-0.0162216
-0.00749761
-0.0456333
-0.0212057
0.0128416
-0.0437689
-0.0296654
-0.00995592
-0.0281247
-0.0404688
4.55035e-05
-0.00940515
-0.0280898
0.0123524
0.000186823
-0.0119327
0.0143878
0.0271487
-0.00765845
0.0062932
-0.0155811
0.0168782
0.0290082
-0.00848892
0.00216577
-0.0224526
0.0170026
0.0251138
-0.00641793
0.00056269
-0.0210439
0.0150691
0.0181938
0.0103485
0.00295762
0.0183786
0.00724859
0.0200559
0.00967453
0.0101662
-0.0161231
0.0117492
0.0273365
-0.00967106
0.00680063
-0.0179777
0.031128
0.036057
0.0178908
0.00525691
0.0204235
0.0364425
0.0367106
-0.0155123
0.0121189
-0.023294
0.022773
0.0178794
0.0073414
0.00115899
0.0124679
0.0167241
0.00506816
-0.00640316
-0.00638258
-0.0177405
-0.00425703
0.0172831
-0.0222184
0.00142246
0.0271932
0.0118706
-0.0437662
-0.0545015
0.0186512
-0.0442782
-0.0496757
-0.0579514
-0.0119825
-0.0384044
-0.0220544
0.0017216
0.0167008
-0.0129502
-0.00335923
0.00177482
0.000225696
-0.0080316
0.0079047
0.0101213
-0.00752047
-0.0114466
0.00367692
-0.00591053
0.00817666
-0.000644956
-0.00239485
0.0038079
0.00842265
0.0169788
0.0031476
0.0190538
0.0234834
-0.00853858
0.0179568
0.0319082
0.0108077
0.0133221
0.0321259
-0.0109011
0.0152618
0.0328546
-0.0195883
0.0155502
0.0410072
-0.0156316
0.0144964
0.0390544
0.0172108
0.0119128
0.0343534
-0.025288
0.0085069
0.031249
0.012187
0.00542333
0.0111145
0.00181333
0.00153345
-0.0121925
0.0123477
0.000448394
0.0153771
0.0115914
0.00718384
0.000307973
-0.016317
-0.000306894
0.0121921
-0.00800408
0.0201446
0.0791933
-0.0838955
0.0111517
0.0294317
0.048381
0.0555361
-0.0254498
0.0649152
0.0298277
0.0456937
-0.0164318
0.0480748
-0.00608048
0.00161358
0.0116877
-0.0702453
0.00662074
0.038315
-0.0689314
-0.0294976
-0.0581952
-0.0261087
-0.0254027
-0.00429222
0.00322994
-0.0280785
0.0319318
-0.106317
0
-0.0610317
-0.00655118
0.0287757
-0.00784782
0
0
0
0
0
0
0
0
0.0125915
0.0579328
-0.0167556
-0.0141833
0.0358877
-0.0271496
0.0621828
0.0311041
-0.0259807
0.0710344
0.0459397
0.0246546
0.0446455
0.0369991
-0.0153758
0.0189965
0.0081001
0.000347809
-0.00505703
0.0205991
0.0119141
-0.0222231
0.00701968
-0.0274288
-0.0204694
0.0163023
-0.034785
0.00209481
0.00515862
-0.0118823
-0.00521249
0.0172902
-0.0219266
0
0
0
0
0
-0.00222739
0
-0.0169186
-0.0258297
-0.0012829
-0.00840916
-0.0254447
-0.0228229
-0.000714786
-0.0414275
-0.0240637
-0.0057453
-0.0422663
-0.0276561
0.00776285
-0.0335507
-0.03461
-0.00447465
-0.0250089
-0.03713
0.0165254
0.0221183
-0.0339636
-0.032568
-0.0178983
0.0145185
-0.0251153
-0.021857
0.00873004
0.0269396
-0.0212602
0.00182359
-0.0265669
-0.0183731
0.0101896
-0.0206568
-0.00664315
0.00775163
0.016719
-0.00683539
0.00334486
-0.0121324
0.027425
0.00155605
0.01713
0.0421617
-0.0232536
0.0192942
-0.0227492
0.000299856
-0.00943691
0.00904454
-0.00302868
-0.0134474
0.0342401
0.0171801
-0.000586804
-0.00590676
-0.00135567
-0.0137042
0.0105728
0.0036585
-0.0134596
0.00888854
-0.00486971
-0.00731543
0.000103427
-0.00728662
-0.0257276
-0.0133495
0.00752539
-0.0466411
-0.0229267
-0.0202933
-0.00389033
-0.0173862
0.00411916
0.00127769
-0.00825757
-0.00843672
0.0206918
0.0423058
-0.0825938
-0.0675472
0.0752797
-0.0283853
-0.014091
0.0283733
-0.00536739
-0.00445203
-0.0045268
-0.00164983
0.000545357
0.00745687
0.000259737
-0.0015528
-0.00492767
-0.00219601
-0.00581726
0.0049973
-0.0138126
0.0015493
-0.000429868
0.000523273
-0.00751961
0.00331761
0.00935548
0.0178053
0.00126983
0.0236137
0.0240134
0.0109333
0.0220282
0.0361864
-0.0142206
0.0246954
0.0471598
-0.0213969
0.0232668
0.0548832
0.0219312
0.00987166
0.0389458
-0.0179686
0.00453298
0.0324546
-0.0253479
0.00954935
0.0368102
-0.0268384
0.0185092
0.0270303
0.0145443
0.0292644
0.0315517
0.0109779
0.0272993
0.00803422
-0.004524
0.028733
0.0258291
-0.00568708
0.0132036
0.0240171
0.00971205
0.027251
0.0160352
-0.00338864
0.0253236
0.0093465
-0.00117686
0.00719238
-0.0137659
-0.00720031
0.00501352
0.00942817
0.0279199
-0.00980181
0.0238322
-0.00596395
-0.0029003
0.0179562
0.0136612
0.0463717
0.020189
0.0088749
0.00134061
0.0594314
0.0582956
-0.0195431
0.00602665
0.0525684
-0.0281021
-0.0196215
0.019647
0.101449
-0.00913494
0.0277422
-0.0394229
-0.0581328
0.0283106
0.0148033
-0.0334239
-0.136977
-0.0437424
0.0576991
-0.0327036
-0.0921633
0.0340422
0.00818313
-0.0660719
0.0596345
0.0237499
-0.0545526
0.073239
-0.000373618
0
0
0.0468442
0
-0.0329532
-0.0125227
0.0575845
-0.162238
0
-0.00271966
-0.00460708
0
0
0
0
0
0
0
0
0
0
0
0.00548793
0.0716951
-0.0335205
-0.0167827
0.045404
-0.0374504
0.0515569
0.0302235
-0.026436
0.0491192
0.0275186
-0.0187261
0.0281792
0.0142299
0.00483666
-1.54323e-05
0.0285388
0.0208741
-0.0149134
0.00383888
-0.023126
-0.0143711
0.0157752
0.0307015
-0.00281849
0.00257363
-0.011068
-0.00270486
0.00610671
0.0124411
-0.00980942
0.0102867
0.0141525
2.11948e-05
0
-2.80695e-05
0
0
0
-3.99209e-05
-8.63983e-06
-2.75846e-05
0
0
-7.63229e-05
0
0
0
0
7.08004e-05
-0.00188666
0
-5.39403e-06
0
0.000832179
0
6.74683e-06
0
0.000838977
0
0.0109148
0.0730652
0.0320705
-0.0288657
0.0353939
-0.0098833
-0.0255776
-0.00746767
0.00682909
-0.0237348
-0.0163308
-0.00773436
-0.0229613
-0.0256853
0.00669582
-0.0230366
-0.0325692
-0.0161219
-0.00116428
-0.0384192
-0.0264987
0.023217
-0.0334867
-0.0351778
-0.019666
0.0114578
0.0264823
-0.0221307
0.00721177
-0.0293144
-0.0241293
0.00745496
0.02704
-0.0191207
0.0119191
-0.0175394
-0.0104419
0.00124578
-0.0162989
-0.00650433
0.00489446
0.0108049
0.0177238
-0.0172753
0.0203862
0.000529209
-0.0143328
0.0306242
-0.0122003
0.0497767
-0.0139594
-0.00347707
0.0221029
0.00617654
-0.0319843
-0.0512881
0.0384506
-0.00567135
-0.0011644
0.00815217
0.00117962
0.00805264
0.00649759
-0.00944031
0.0174231
-0.00886159
-0.02655
0.0368138
-0.026524
0.0296058
-0.0390852
-0.0261618
0.00556942
-0.02716
0.00175552
0.0200027
0.00491031
-0.0712895
-0.0308569
0.040145
-0.0215798
-0.0166574
-0.026153
-0.0359425
-0.0230951
-0.00199308
-0.00318202
-0.015123
-0.0167112
0.00703467
-0.00516093
0.0392985
-0.0240626
0.0092571
0.0388545
-0.0257039
-0.0282194
0.0221096
-0.00825716
-0.0027242
0.0129215
0.00283054
-0.000253531
0.000694439
0.00111513
0.00485068
0.00457443
-0.00274234
0.00303475
0.00286088
0.00116744
0.00816246
0.0014662
-0.0237083
-0.00232214
-0.0069854
-0.00406412
-0.0265509
0.0181697
-0.0093693
0.0186175
0.00457718
0.0229185
0.0283672
0.0116467
0.0265959
0.0457077
-0.0232766
0.0221897
0.0542381
-0.0230958
0.0137569
0.0386657
-0.0149504
0.00905325
0.0318078
-0.0245397
0.000847711
0.0356301
-0.0256865
0.00662356
0.0351192
0.0234425
0.0204797
0.0464328
-0.0172373
0.0202333
0.0306202
-0.0061474
0.0212431
0.00785766
0.00949566
0.0164148
0.0195783
0.0129979
0.00435801
0.0187451
-0.00238448
0.0206526
0.0164057
0.000200845
0.0245335
0.0128486
0.0138034
0.0275095
0.019942
-0.0155558
0.0202034
0.0217949
-0.00556563
0.0264982
0.0125613
-0.0105173
0.0567942
0.0306271
0.00153311
0.0424749
0.0660774
0.048972
0.000791415
0.0143313
0.00421308
0.030512
0.0366697
-0.00509366
-0.0184072
-0.0201312
0.0433827
0.0101128
-0.00244841
-0.0433369
0.00763613
-0.000995462
-0.0431568
0.0279862
-0.0691079
-0.167432
0.0218806
0.0220016
-0.0641061
-0.107954
-0.02517
0.00263416
-0.0591851
-0.0583807
0.023412
-0.0787691
0.0730426
0.0172439
-0.0857294
0.0646285
0
0
0
-0.077968
0
0
-0.0186796
0.0177514
-0.00920376
0
0
0
0
0
0
0
0
0
0
0
0
0
0
0
0
0
0
0
0
0
0
0
0
-1.95032e-05
0
8.30485e-06
0
-1.99466e-05
-1.1283e-05
-1.37934e-05
0
1.31955e-05
-5.36453e-05
1.01445e-05
0
2.10136e-05
0
0
0
0
0
0
0
0
0
0
0
0
0
0
0
0
0
0.0062366
0.048958
0.0346294
-0.013274
0.0295228
-0.0348547
0.0427489
0.0112927
-0.0240233
0.0344389
0.0162312
0.010326
0.0046036
0.0399
-0.0087621
-0.00926176
0.00955827
0.0272083
-0.0145509
0.015369
-0.0241447
-0.00941699
0.00332118
-0.0170409
-0.000404191
0.00656833
0.0103982
-0.00691334
0.00314214
-0.0105205
-0.00977299
-0.0173006
0.00859239
0
0
0
0
0
0
0
0
0
0
0
0
0
0
0
0
0
0
0
0
0
0
0
0
0
0
0
0
0
0
0
0
0
0
0
0
0.000277023
0.000371517
0
0
0
0
0
0
-0.0106731
0
-0.0493777
0.0256084
-0.0172973
-0.0243054
-0.0145631
0.0410847
0.00440314
-0.0148356
-0.00768292
0.00868778
-0.0149565
-0.0229574
-0.0129687
-0.0113155
-0.0179346
-0.0184343
-0.0107019
-0.0327119
0.0240331
0.00588189
-0.0342317
-0.0305656
0.0169754
-0.026904
0.0305854
0
0
0
-6.10169e-05
0
0
0
0
0
0
0
0
0
0
0
0
0
0
0
0
0.000125223
0.000213909
-0.0159587
0.00834657
0.0236115
-0.0184581
0.0101148
0.0241932
-0.0247388
0.0101898
-0.0231136
-0.0142923
-0.000801041
-0.0206389
-0.0132934
0.00329833
-0.0130653
-0.00626682
-0.0124529
0.0135659
-0.00149022
-0.0333209
-0.0167527
0.0230672
-0.0404451
-0.0622967
0.00677944
-0.0141994
-0.0318062
-0.0296405
-0.0254537
0.0197943
0.00259627
-0.0122466
0.0633191
-0.0118082
-0.0165876
-0.0438439
0.000648365
-0.00367084
0.00133665
0.0134424
-0.00165318
-0.0377081
0.00627362
-0.0675276
0.0434362
-0.00597741
-0.0739269
-0.0143104
-0.00206074
0.022626
0.0393126
-0.00284073
0.0423457
-0.0193138
-0.0606906
-0.0791906
0.0253077
0.0222121
0.0156489
0.00171491
0.0377551
-0.0686681
-0.0391634
0.0292177
-0.0803489
-0.0206303
0.0420483
-0.0107248
-0.0277671
-0.0171013
-0.0676704
-0.0362574
0.00698154
-0.0440422
-0.0571
0.00206149
0.0135939
0.0125085
-0.00391741
0.0180676
-0.00622515
0.0258704
0.0303147
-0.0266248
0.0302823
0.000115368
-0.00296741
-0.0136813
0.00550654
0.0131884
-0.00717759
-0.000635878
0.00976912
0.00279591
0.00543251
0.00631875
0.00704749
-0.0138755
0.014597
-0.0179822
-0.0393241
-0.0112471
-0.0216377
-0.000729524
-0.036928
-0.0261193
0.0174228
0.0183586
-0.00688507
0.0194488
0.0163938
-0.00799551
0.0152405
0.0351099
0.0189013
0.0105205
0.0335836
-0.0188696
0.0167814
0.0304787
0.0192495
0.0104186
0.030007
-0.0232704
0.015695
0.0329525
0.0300577
0.0182115
0.0450918
-0.0179665
0.0106729
0.0265895
0.0039417
0.021663
0.020072
0.0128027
0.0250196
0.0114622
0.0104709
0.0267009
0.0194216
-0.00988376
0.0188422
0.0159951
-0.00393352
0.0198516
0.00484628
0.00877002
0.00704002
0.00681399
0.000721073
0.0126021
0.029569
-0.00811389
0.0133712
0.0142185
-0.0023949
0.0352911
0.0278572
-0.00356912
0.0339056
0.0381742
-0.000480335
0.0162572
0.0291192
-0.00202383
0.0149389
0.0234285
-0.0129505
0.0105709
0.0289557
0.0310984
0.0232338
-0.0283054
0.0276049
0.000744261
-0.0353291
0.0351018
-0.00981607
0.0319456
-0.000951318
0.0240554
0.0374179
-0.0173419
0.03921
-0.0287841
0.0187707
0.03723
-0.0264253
0.047398
0.0186384
0.0203291
0.0403406
-0.0312159
0.0495528
0.00758905
0.0170435
-0.0399315
0.0193435
0.0470289
0.0212075
0.0123663
0.0419918
-0.00659789
0.0455316
0.0318954
0.0190526
0.0416759
-0.00151393
0.0455098
-0.047086
0.0416147
0.0394274
0.0485976
-0.0073766
-0.0386049
0.0258053
-0.0398393
-0.0100157
-0.0137621
0.0591336
-0.0303819
0.00561831
-0.0391712
0.0314844
0.0272676
-0.028735
-0.0366691
0.0238038
-0.00931519
0.0377612
-0.0525343
0.00864553
0.018981
-0.00153067
0.030398
0.0542954
-0.145861
0.0588483
0.0123745
0.0224783
-0.161554
-0.0832182
0.0259119
-0.0628589
0.0425134
-0.0159527
-0.0968618
0.0676541
0.0299264
-0.0258882
0.0405937
0
-0.000110954
1.87678e-06
-0.00578585
0
0
-0.0219356
0
0
0
0
0
0
0
0
0
4.68536e-05
0.000116142
0
0
0
-0.000109346
0
0
0
0
0
0
0
0
0
-7.40451e-05
-0.000156197
0
0
0
0
0
0
0
0
0
0
0
0
-7.47764e-05
0
0
0
0
0
0
0
0
0
0
0
0
0
0
0
0
-0.000409605
-0.000177599
3.23594e-05
0
-8.11913e-05
-1.57064e-05
-2.36783e-05
-0.000153817
-3.45194e-06
3.49075e-07
3.12794e-05
-1.76394e-05
-0.000103329
0
-0.00010597
-0.000109417
0
-7.56529e-06
0
0
0
0
0
0
0
0
0
0
0
0
0
0
0
0
-0.000175848
0
8.2605e-05
0
-9.34961e-05
0
-0.00473466
0.038889
-0.0263331
-0.0154821
0.0266727
0.0219502
0.0449526
0.0103278
0.0120756
0.0111172
0.0330547
0.0104254
-0.00378156
0.00745764
0.0212492
-0.00925326
0.026029
-0.018235
-0.00742227
0.00423852
-0.0190703
-0.00466277
-0.00843864
0.0133383
0.00841138
-0.00613372
0.00676423
-0.00860948
-0.00539683
0.00448833
-0.00893451
-0.0103743
0.00853518
0
0
0
-0.00033045
-9.48981e-05
0.00143117
0
0
0
0
0
0
0.000329002
-0.000111931
0.000223862
0
0
0
0
0
0
0
0
0
0
0
0
-9.48608e-05
0
0
0
0
0
5.41745e-05
0.000118101
4.18683e-05
0
-5.07002e-05
0
0.0333874
0
0.0551146
0.022011
0.00579128
0.0122526
0.00434499
-0.00502451
-0.0143105
-0.00364757
-0.00871026
-0.0193965
-0.0083222
-0.016773
-0.0136108
-0.00479861
-0.0158765
0.0252294
-0.00484966
-0.026008
0.0262156
0.00840661
-0.0221102
-0.0268193
0.0166688
-0.0108893
-0.0194682
2.748e-05
0.000100446
3.11241e-05
0.00010397
0
-8.29166e-05
0
-6.46291e-06
0.000324994
3.74749e-06
0
-9.03976e-06
3.23835e-07
0
0
0
0
0
0
3.92124e-06
0
0
0
0
0
0
0
0
0
0
0
0
0
0
0
8.73364e-05
0
-0.00010586
-0.0156175
0.00870811
-0.0171763
-0.021244
0.0107887
-0.021244
-0.0244161
-0.00520433
-0.0207983
-0.0299955
-0.00313536
0.001748
-0.024232
-0.0328736
-0.00354744
-0.0166002
-0.0189521
0.0300413
-0.0435194
-0.03488
0.037883
-0.0528966
-0.0658138
-0.00160269
0.0165466
-0.0534384
0.0239741
-0.00287098
-0.0693509
-0.083691
0.00762925
-0.0781137
-0.0372213
0.0478702
-0.0498463
0.0464251
-0.00414238
-0.00955511
0.0382906
0.0179417
-0.0425761
0.0417136
-0.00983612
-0.0900127
-0.0479931
0.00638444
-0.0147586
0.05401
0.0200055
-0.0103094
-0.0292956
-0.00477262
-0.0312879
-0.0538805
-0.0226986
-0.0709265
-0.0869651
-0.0178227
0.00681295
-0.0446202
0.0363573
0.00961702
0.0423171
0.0337691
-0.00168379
-0.040927
0.0235249
0.0474613
-0.0313992
0.0376778
0.0552602
0.0112495
0.0273341
0.0542042
-0.0145277
0.013267
0.0509826
-0.0319442
0.00868641
0.0507256
0.037549
0.0104156
0.0514282
0.0393079
0.0496294
0.0430084
-0.03856
0.0137313
0.0313731
0.0527281
0.0170192
-0.0331564
-0.0831352
-0.0387684
-0.0451069
-0.0820916
-0.0488061
0.0389527
-0.0346609
-0.0271059
-0.0502478
-0.0916129
-0.0180461
-0.0619249
-0.0704324
-0.0652599
-0.00200997
-0.0132289
0.000744542
0.0141073
-0.0367701
-0.00424479
0.0214641
-0.0275275
-0.0116166
0.0209971
0.0117077
0.00768179
0.00299555
0.0169063
0.017701
-0.0210857
0.00447727
-0.00370799
0.00724907
-0.0310533
0.00181544
0.00420974
-0.0489284
-0.00438155
-0.0496038
-0.0289449
-0.161521
-0.0205695
-0.00940827
-0.0818542
0.0583039
0.0225518
0.00406969
-0.0293546
0.000858924
-0.0277523
-0.0219075
0.000446299
0.0129182
-0.0236334
0.00769623
0.0292349
0.021743
0.0146781
0.0212117
-0.0164172
0.0213594
0.0373914
0.0183237
0.0101027
0.035386
-0.0155014
0.00469022
0.0157833
0.0121455
0.00870223
0.0204581
-0.000317776
0.0178519
0.0352738
0.0139782
0.021939
0.021331
0.0134162
0.0325564
0.0192299
-0.00572179
0.0243915
0.0186126
0.0104804
0.0273496
0.0108157
0.00403159
0.00928823
0.0136481
0.0045323
0.0147917
0.0260543
0.015445
0.015637
0.0208905
-0.0120619
0.0249696
0.0329713
-0.00143701
0.021169
0.0208053
0.000524894
0.0214461
0.033339
0.00248278
0.00918311
0.0385176
0.0115677
-0.028525
0.0286903
-0.0121707
-0.00326208
0.0151652
-0.0400247
-0.0174712
0.0144208
0.035184
-0.0195971
0.0133077
0.0316494
-0.0222462
0.0195369
0.0330111
-0.026455
0.0176716
0.0358508
-0.017011
0.00891045
0.037092
-0.00784189
0.021407
0.033633
-0.0014601
0.0129024
-0.0367758
0.000143748
0.0595476
0.0335835
-0.00732299
0.0225341
0.00856788
0.0252792
0.00031573
0.0324696
0.0215745
0.0267804
-0.0206817
-0.00564557
0.0277144
0.0213259
0.019996
0.026808
-0.0384101
-0.0679401
0.013043
-0.00939089
-0.0286541
-0.0424584
0.0139949
-0.0111932
-0.0454807
-0.00495112
0.0275418
-0.0244822
0.02436
0.0283533
-0.0216258
-0.036845
0.0533631
-0.00790559
0.00592068
0.00279457
-0.0313343
0.0179202
-0.056949
0
0
-0.0301596
0.026282
-0.035103
-0.00034731
-0.00437497
-0.0148191
-0.0201763
0.0199641
-0.0299907
0.0348143
-0.0337544
-0.160892
0
0
0
0
0
0
6.87193e-05
6.71486e-05
3.6607e-05
0
0
0
-7.50345e-05
0
0.000159274
0
-7.8707e-05
0
0
0
0
0
0.000149003
-0.000278713
0
1.99866e-05
0.000165741
0
0
0
0
0.000103255
0
0
0
0
0
0
0
0
-1.36093e-05
-2.66578e-05
0
0
0
0
-6.8986e-05
-2.7407e-05
0
0
0
-0.000227184
-3.6444e-05
0
0
0
0
2.92785e-05
0
0
5.25654e-05
0
0
0
0
0
0
0
0
-0.000133728
0
7.25715e-05
-6.45887e-05
0
6.86847e-06
0
-5.76185e-05
0
0
0
0
0
0
0
0
1.30636e-05
0
0
0
0
-0.00194241
0.0343972
-0.00906983
-0.00464772
0.0210383
0.00184678
0.0142716
0.0247396
-0.00913022
0.00461926
0.0148403
-0.0137386
-0.00673308
0.0281987
-0.0179201
-0.00246531
0.0111583
0.0153998
-0.00258516
0.011736
0.00753257
-0.00142398
-0.010556
0.00558026
0.00746216
-0.00245524
-0.00972653
-0.00836044
-0.00322623
0.00431364
-0.00432633
-0.00906287
0.0065195
-0.00165695
0.000131318
-0.00030995
0
-0.00084724
-0.000245634
0
0
0
0.000107748
0
0
0
0
0
0
0
0
0
0
0
0
0
0
0
0
0
0
0
0
-2.86086e-05
0
0
0
0.000151101
-0.000274058
0
0
0
-0.00162503
-0.0764559
0.0345526
0.00852456
-0.0515394
0.00265325
0.00503602
-0.00972525
-0.00800001
0.00386432
-0.00647562
-0.0140029
-0.00654952
-0.0100402
0.014837
-0.0014973
-0.0141637
-0.0215615
-0.00298033
-0.0160591
-0.0180599
0.00290284
0.000382184
0.00450665
0.00975476
-0.0173282
0.00526955
0
0
0
0
0
0
0
0
0
0
2.2606e-06
0
0
0
0
0
0
0
0
0.000193064
0.000140074
-3.70775e-05
0
-7.06558e-05
0
0
0
1.69666e-05
0
-8.35388e-06
0
3.62596e-05
1.23915e-06
0.000220896
0
8.20987e-05
0
0
0
0.000303113
0
0
0
0
0
-0.0163925
0.00852789
-0.0134533
-0.013212
-0.00231682
0.0101228
-0.0122363
0.0103634
0.00670474
0.00137277
-0.0194318
-0.00764147
-0.00574758
0.00192069
-0.00358396
0.00490751
0.0354259
-0.0191539
0.0526631
0.0355606
-0.0681097
-0.0624365
-0.026998
-0.0562058
0.129117
-0.0588915
-0.0932871
-0.0213812
-0.0302926
-0.114713
0.0212367
-0.0263704
-0.0460021
0.0657977
-0.000897188
-0.0300608
0.0682677
-0.0292187
-0.071493
-0.058271
-0.0706188
-0.103309
-0.0127621
-0.0495842
-0.0108788
0.00258665
0.00326437
-0.0405314
-0.0221275
-0.0095139
-0.000412899
0
0.0314215
0.0125493
0.0119165
0.0119457
-0.00524137
-0.0192817
0.0523416
0.0327586
-0.0116458
-0.0122257
-0.0384942
0.0432156
0.0133261
-0.0647495
-0.0114766
0.0524018
-0.00908487
0.0231455
0.0292677
-0.019392
0.0241457
-0.0140593
0.0260589
-0.0156276
0.0196056
0.033597
-0.0153278
0.0214409
-0.0070548
0.0162253
-0.0334183
0.0150481
0.00326909
-0.0168621
0.00928157
0.0242797
0.0129034
0.045535
0.0261633
0.0110158
0.0382568
-0.016861
0.00430477
0.0290953
0.0108576
0.0221177
-0.0130119
-0.0379127
0.00319075
-0.0386742
-0.0553179
-0.0167653
-0.0686066
0.0857702
-0.0232401
0.012179
-0.0500803
0.0437755
0.0137464
0.0473116
0.0340963
-0.00807153
0.0480298
0.0310094
0.0531709
0.0278125
0.0293627
0.0550954
0.0224263
0.0184608
0.0511064
0.0325738
0.0118294
0.050744
0.0423962
0.0140222
0.0517461
0.0381759
0.0172836
0.0513721
0.0298101
0.0512291
0.0124141
0.0356782
0.0499982
0.00914826
0.0362606
-0.0630119
-0.100399
-0.038055
-0.0822228
-0.0585996
-0.114126
-0.0053332
-0.089396
-0.0457581
-0.0347715
-0.070018
-0.0613264
0.0249405
-0.0693934
-0.0629987
0.024882
0.0140043
0.0129923
0.0281528
0.0141984
0.0063891
0.0208654
-0.0148429
0.00249826
0.0092935
0.00918822
0.00457121
0.00382909
-0.000699747
0.0225077
0.00495863
-0.00913866
0.0420973
0.0227861
-0.00958614
0.0523619
0.0366628
-0.0142233
0.0440428
0.0584184
0.0330307
-0.019589
-0.0232685
0.0139668
-0.0064456
0.00359296
-0.0208988
-0.0105147
-0.038761
-0.00290008
-0.00172017
0.0415037
0.00940055
-0.0307184
0.00783037
-0.0260072
-0.00268055
0.0236702
-0.0348475
0.0310535
-0.079463
-0.0424323
0.0148915
-0.0625053
0
0
-0.0474864
0
-0.270325
-0.0119304
-0.0213654
-0.0130691
-0.0495451
-0.0293959
0.0378522
-0.00797473
-0.0228082
0.0130188
-0.00163976
-0.00226502
-0.00161239
0.00789364
-0.00890436
0.0255546
0.0256212
0.0260988
-0.0256778
0.0114796
0.0266079
-0.00107107
0.0129613
0.00967836
0.0122388
0.0199577
0.0379142
0.0081949
0.0196774
0.0228364
0.00324386
0.0200531
0.0331335
-0.00984261
0.0244847
0.0185847
0.0147034
0.0228968
0.022683
0.00903074
0.0121892
0.0160504
-0.000226061
0.0156604
0.0101102
-0.00170348
0.0166558
0.0192511
0.00714283
0.0290402
0.000244238
0.0146191
0.0201839
-0.00799511
-0.0241872
0.00651685
0.00680239
-0.0173959
0.023747
0.024803
0.0257263
0.0172686
0.0376561
0.0164679
-0.022339
0.0247893
-0.0160497
-0.00158213
0.00904495
-0.0335822
-0.0189177
0.0109234
0.0331275
-0.0224943
0.0117592
0.0270845
-0.019752
0.013171
0.0281597
-0.0208081
0.0165519
-0.0313978
-0.0275567
0.0105863
0.0335034
-0.0249418
0.00440282
-0.0307969
-0.00462835
0.00962165
-0.0328627
1.76027e-05
0.0601965
0.0257363
0.000748028
-0.0148055
-0.023535
0.0117437
0.0599045
-0.0202287
-0.0128593
0.0175262
0.0420702
-0.0671561
0.127671
-0.0803792
-0.00101872
-0.0530525
0.0209284
-0.00659615
-0.0500362
0.0416524
0.0099107
-0.0115766
-0.0137187
-0.0440523
-0.0502861
0.0139425
-0.0102481
-0.0416492
-0.0338633
-0.0186817
0.013603
0.0222939
-0.119067
-0.0176446
0
-0.0307007
-7.21555e-05
0
-0.00835065
0.039676
-0.0884309
-0.0120406
-0.0439974
-0.02302
-0.0552126
-0.0401
0
0
0
0
0
0.000123679
0.000183285
-5.98127e-05
0.000104727
0
8.41213e-05
8.52383e-07
5.76164e-05
1.37709e-06
0
0
0
0
0
0
0
0
0
-0.00011999
0
0
-0.000174549
0
-0.000410456
0
0
0
0
0
0
0
0
0
0
0.00331401
0.00212069
0
-9.805e-06
-1.11748e-05
0
0
0
-4.16534e-05
0
0
0
0
0
-3.427e-05
0
-5.31473e-06
0
0
0
-2.86088e-05
7.12355e-05
-0.000245102
0
0
0
0
-0.000159748
-5.79675e-05
0
0
0
0
0
0
0
0
0
0
0
-0.000197475
0
-0.000112417
0
0
0
-6.83801e-05
0
0
0
0
0
0
0
0
0
-0.000125534
0
0.000126005
0
0
0
-0.000559192
0
0.000165503
-0.0173736
-0.014448
-0.0583864
-0.0732051
0.035522
0.0218118
0.0475084
0.067064
0.0107639
-0.000539397
-0.0111482
0.00154717
-0.00237217
0.0091202
-0.000917546
0.0109537
-0.0162062
-0.00145668
0.0203667
0.0279207
0.000225459
0.0201264
-0.00618771
-0.00110566
0.0124771
-0.0122015
-1.68375e-05
0.00594153
0.00252405
0.00318398
-0.000353851
0.00880066
0.000462667
-0.0118037
-0.00553232
0.00218183
-0.00667216
-0.000118606
0
0
0
0
0
0
0
0
0
0
0
0
0
0
0
0
0
0
0
0.0271275
1.86192e-05
0.0386922
0.0367768
0
0
0
0
0
0
0
0
0
-0.000122908
0
0
0
0
0
-0.0494672
0
0.0099464
0.00984997
0.00355686
0.00517011
0.00336899
0.0111608
-0.0170866
-0.0151434
0.00951304
-0.00470424
0.000435525
0.0013065
-0.0118155
0.00077288
0.000132601
-0.00931596
-0.00516566
-0.0120356
0.0050667
-0.0142409
-0.0168131
0.00229044
-0.00832106
-0.0170299
0
0
1.66705e-05
-2.67127e-06
0
0
0
0
0
0
0
0
0
0
0
0
0
0
0
0.000102327
0.000173728
-0.000126325
0
0
0
0
0
0
-1.56802e-05
-5.02806e-05
0.000100886
0
0
-0.000222687
0
-0.00012826
1.01513e-05
0
0
0
0
0
0
7.57587e-05
-4.89004e-05
0
0
0
0
0
0
0
0
0
-0.00168516
-0.0019716
-0.00137292
0.00686954
0.00326562
-0.00124794
-0.00634641
0.00276491
0.014984
0.013387
0.0189379
-0.00101553
0.0602872
0.0265933
-0.076021
-0.0181186
-0.00248041
0.00805591
-0.000132879
-0.057192
0.00405276
0
-0.0424475
0.00718147
0.0374746
0.0551263
-0.0911339
0.0415497
-0.0650413
-0.126283
0.0867412
-0.0444635
-0.0495139
-0.0468265
-0.00488733
-0.0131292
-0.0807556
-0.0267637
0
0
-0.0492541
0
0
-0.00641727
0.000206694
0
-0.0346491
0
0
0
0
0
0
0
0
-0.0200221
0.00167349
0.0167634
-0.0394092
-0.00883131
0.0214151
-0.0632247
-0.014389
-0.0394795
-0.081588
-0.0168371
-0.0618946
-0.0117258
0.0203453
-0.0246179
-0.0214401
0.017845
0.03756
-0.0246264
0.0177585
-0.0408486
-0.0234022
0.0146772
-0.0351954
0.0142862
0.0471056
-0.0276322
0.017462
0.0386749
0.011312
0.0052935
0.0250636
-0.0133929
0.0222439
-0.0166092
-0.0524086
-0.00682142
-0.046214
0.0535891
-0.0232044
-0.0742069
-0.071848
-0.0308826
0.00901524
0.0521006
0.0411903
0.0265181
0.0264021
0.0566152
0.0295618
-0.0209061
0.0613578
0.0445013
0.0184069
-0.0368563
0.0353658
0.00378676
0.0483714
0.0107645
0.0492888
0.0445126
0.00704678
0.0495916
0.0502068
0.0130422
0.0525977
0.0447022
0.0214404
0.0532119
-0.0292141
0.0155413
0.0514623
-0.0294702
0.048324
0.00760228
-0.0380306
0.0502371
0.0113786
0.030481
-0.0828288
-0.0596221
0.00685731
-0.077361
-0.0840734
0.041038
-0.11006
-0.105028
-0.00480405
-0.0890333
-0.0632257
0.0217948
-0.029495
-0.0832015
-0.0158579
-0.0352793
-0.0596328
-0.00997333
0.0119141
0.00832918
0.0359025
-0.00725854
0.00372349
0.00762055
-0.00697495
-0.0034721
0.00833063
0.00380232
-0.00138581
-0.00194413
0.00509198
0.0112449
0.00271152
0.00106382
0.0314214
0.0127551
-0.0063436
0.0466179
0.0276038
0.0103503
0.0521027
0.0319449
-0.0199935
0.0603674
0.0310963
0.0260377
-0.00460539
-0.00218226
-0.00365109
0.00386392
0.0716201
0.0446863
0.0386873
-0.0268367
-0.00437866
0.00276674
0.0353838
-0.0512506
-0.049706
-0.0343919
0.00528702
0.035862
-0.0477181
-0.0585461
-0.0503033
0.00182914
0.0153842
-0.00243997
-0.00872591
-0.0348497
-0.00220189
0
-0.000143143
0
6.33273e-05
0
-6.64191e-06
-5.73009e-05
-0.268179
0
0
-0.0656369
-0.00132382
-0.00407442
-0.0613021
-0.0217688
-0.0114721
-0.00315096
-0.0671999
0.0262639
0.0175847
0.0112561
0.0277708
-0.0409205
0.00836272
-0.00496685
0.0105476
0.0346061
-0.00720448
0.0181137
-0.0129874
-0.00547644
0.0292452
0.0385852
0.00977807
0.0304019
0.0108567
0.00661814
0.0252648
0.0132986
-0.00324615
0.0182298
0.0148856
-0.00299463
0.0193571
0.0107147
0.000166764
0.00991444
0.0147848
0.00231397
0.013753
0.00545241
0.0108814
0.0103243
0.0103336
-0.0153488
-0.00582098
0.00792005
0.0217148
0.00303012
-0.00792532
0.0197435
0.00925288
-0.00926347
0.0194756
0.00759558
0.0173018
0.0297042
0.00961086
0.0268967
0.0278514
-0.019634
0.0198861
-0.0180761
-0.00041025
0.0165711
-0.0199104
0.00197802
0.0227346
-0.02171
0.00691673
0.0248228
-0.0232022
0.00990963
-0.0271061
-0.0210303
0.00579686
0.0300743
-0.0253822
0.00492025
-0.0314651
-0.0327764
0.00309216
0.0299948
-0.0143021
0.00296741
0.0272107
-0.00437181
0.0289657
0.0212988
0.00804879
-0.00168767
-0.0284367
0.0156789
0.0922362
-0.0191534
-0.00879862
-0.0143893
-0.0473113
0
0
0
-0.0170791
0
0.0112512
-0.0201636
-0.0721112
-0.00056276
-0.00252735
0.0838941
-0.00484043
-0.0578856
-0.0513596
0
0
0
0
-0.0264754
0
0
-0.0270334
0
0
0
0
0
-0.0362502
-5.23972e-07
0
-0.0826097
0
0
0
0
0
0
0
0
0
0
6.78131e-05
7.60123e-05
4.54169e-05
0
6.81795e-05
0
0
0
0
0
0
0
0
0
0
0
0
0
0
0
0
0
0.00158645
-0.00132563
-0.000130259
0
0
0
0
0
-2.09393e-05
0
0
0.00630301
0
-0.00223707
0
-0.00137169
0
0
2.3469e-05
7.69674e-05
3.11769e-06
0
-3.23181e-05
-2.34463e-05
-8.99118e-05
4.1375e-06
0
1.60439e-05
0
-0.000359234
-4.61005e-05
2.06633e-05
0.000675564
0.000156822
0.00068179
-0.000380535
-9.27455e-05
0
-0.000410833
0.000831678
-0.000403616
0
-1.85895e-06
0
0
0
0
1.55987e-05
0
-8.1762e-05
0
-5.26902e-05
-4.83768e-05
0
0
0
-7.67611e-05
-2.51637e-05
0
0
0.000127295
0
-2.29855e-07
0
0
0
0
0
-7.37741e-05
0
0
0
0
0
-2.3117e-05
0
1.52064e-05
0
0
0
-0.000142272
0
0
0
0
0
0
0
0
-0.0213837
-0.0223022
0.0580192
0.0887942
-0.0207073
0.0569419
0.0780491
-0.0229641
0.049427
-0.026018
0.077261
-0.0505042
0.0515532
-0.0738714
0.00182191
0.002541
0.0192017
0.00154883
0.00140553
-0.016148
0.00119477
0.0211497
-0.0057793
-0.00543866
0.0150622
0.0165759
-0.0021616
0.0124494
0.00547108
-0.00279086
0.00541246
-0.00691778
-7.9966e-05
0.00210672
-0.00292794
-0.0023945
-0.00675811
-0.00872978
-0.00442812
-0.0135323
0
0
0
0
0
0
0
0
0
0
0
0.0161708
0.0305789
0.011676
-0.00242708
0
0
0
0
0
0
0
-0.0107058
-0.00537507
9.38787e-05
0
-2.40929e-05
-2.61365e-05
0.000118159
5.12767e-05
0
2.50818e-05
0
0
0
0
0
0
-0.0147474
-0.000597054
-0.00501078
-0.000910682
0.0130743
0.0164143
-0.0092757
0.00734572
0.0113348
-0.0079718
-0.0269748
-0.0290762
0.0100832
0.00536475
0.00822384
0.00318105
-0.00325816
0.00327822
-0.00403143
-0.0181443
-0.00338371
-0.00765211
-0.0143667
-0.0103192
1.86947e-05
0
0
-1.78714e-06
7.78639e-05
-2.37863e-06
0.00010182
9.37964e-05
-2.40208e-05
2.70565e-05
3.06539e-05
0.000120662
-3.65654e-05
0
6.72857e-05
0
0
0.000298784
0
0
0
0
0.000149659
2.85244e-05
2.29801e-05
0
-9.12885e-05
-0.000149858
7.65498e-05
0
0
-3.63018e-05
0
-2.36104e-05
0
0
2.36331e-06
0.000204227
0
0
0
0
0
0
0
0
0
0
0
2.69654e-05
0
0
0
0
0
0
0
0
0
0
0
0
0
0
0
0
-0.00365437
-0.00875229
-0.00848498
0.00444781
0.0040277
-0.0217081
0.0137872
0.0156645
0.00846096
0.0136343
-0.00425309
-0.0304412
-0.0047622
-0.0445681
-0.0449082
0.020343
0.00014639
-0.000965083
0.00189847
-0.0233964
-0.0145154
-0.0250936
-0.00565911
-0.000408497
0
0
0
0
-0.0230237
0
0
-0.0299688
0.00778951
0.0294658
-0.0759909
-0.0523729
-0.00681643
-0.0264506
-0.0114107
-0.0137654
0
0
0