/*--------------------------------*- C++ -*----------------------------------*\
  =========                 |
  \\      /  F ield         | OpenFOAM: The Open Source CFD Toolbox
   \\    /   O peration     | Website:  https://openfoam.org
    \\  /    A nd           | Version:  8
     \\/     M anipulation  |
\*---------------------------------------------------------------------------*/
FoamFile
{
    version     2.0;
    format      ascii;
    class       volScalarField;
    location    "6420";
    object      alpha;
}
// * * * * * * * * * * * * * * * * * * * * * * * * * * * * * * * * * * * * * //

dimensions      [0 0 -1 0 0 0 0];

internalField   nonuniform List<scalar> 
526318
(
0.000289411
0.000591014
0.00047448
0.000493788
0.000482206
0.000467639
0.00063805
0.000803212
0.000353678
0.000601502
0.000271032
0.000458555
8.5218e-05
0.000704647
0.000882989
0.000697522
0.000395415
0.000484648
0.000355291
0.000357608
0.000191791
0.000215477
0.00101188
0.000458137
0.000455242
0.000355727
0.000536297
0.000797385
0.000337284
0.000327891
0.000330338
0.000395502
0.000265547
0.000214744
0.000367552
0.000340057
0.000426834
0.000330635
0.000243099
0.000507352
0.000321343
0.000439755
0.00128737
0.000993249
0.00355625
0.00268678
0.000793101
0.00100688
0.000904717
0.000664226
0.000768801
0.000509715
0.000750291
0.000333451
0.108861
0.00367537
0.00184181
0.0222618
0.00042751
0.000216887
0.000366712
0.000208741
0.000201703
0.000123645
0.000291464
0.000244686
0.000306212
0.000158925
0.000475205
0.000447874
0.000309852
0.000220588
0.000387437
0.000303041
0.000560501
0.000560449
0.000711114
0.000239908
8.67575e-05
0.00082067
8.30879e-05
0.000582319
0.000820609
0.000307963
0.000387823
0.000654277
0.000324931
0.000943948
0.00122624
0.000642331
0.000783414
0.000736444
0.00144777
0.0024926
0.0008048
0.000921122
0.00215666
0.00211717
0.00129493
0.000449518
0
0
0
0
0
0
0.00297861
0.0142916
0.00149298
0.000954488
0.000672644
0.000618277
0.000493424
0.00055216
0.000213054
0.000466486
0.000273073
0.000205293
0.000282169
0.00132387
0.00166631
0.00195064
0.00211411
0.0014794
0.00165856
0.00183902
0.0023159
0.00240112
0.00191558
0.002207
0.0031445
0.00201116
0.00217364
0.00414819
0.000169846
0.00747296
0.00336458
0.00284423
0.00230697
0.00341807
0.00275104
0.00802131
0.00287046
0.00656523
0.0104412
0.00113722
0.00236739
0.00653276
0.00432975
0.004627
0.00867618
0.00310241
0.00321391
0.0110114
0.00523671
0.00872055
0.00399889
0.00325342
0.0050897
0.0122098
0.00884827
0.0225437
0.00698959
0.00012181
0.000464446
0.000103115
0.000555551
0.000304143
0.000592277
0.000544876
0.000650525
0.000381108
0.00121832
0.001239
0.000293257
0.0010453
0.00192459
0.000902966
0.00147562
0.00500561
0.00211201
0.00330912
0.0021723
0.00130824
0.00171502
0.00228805
0.00120826
0.000508865
0.000285912
0.00235481
0.00138945
0.00611275
0.00207824
0.0025167
0.00118226
0.00112339
0.00177826
0.00400105
0.00505803
0.00291575
0.00507509
0.00298949
0.0033595
0.00299632
0.00764861
0.00489766
0.00549244
0.00644273
0.00583314
0.0097976
0.000432605
0.000511689
6.50408e-05
0.000666906
0.000287588
9.14518e-05
0.0004151
0.000121755
0.00054044
0.000419984
0.0039935
0.00187826
0.000394332
0.00027178
0.0017594
0.0011885
0.000649997
0.000273748
0.000868671
0
0
0
0.00864884
0
0
0
0
0
0
0.000253405
0.00028372
0.00011485
0.000212912
0.000315574
0.000367829
0.000303113
0.000375129
0.000424104
0.000264975
0.000544104
0.000265363
0.000534537
0.000162241
0.000460062
0.00072556
0.000237607
0.000354337
0.00042065
0.000196695
0.000696821
0.000460153
0
0
0
0
0
0
0
0
0.00193004
0.00526052
0.00132131
0.00125988
0.000913437
0.00064972
0.000244103
0.000445853
0.000323994
0.000181033
4.45179e-05
0.000202407
0.00112724
0.000962823
0.000795158
0.00134651
0.00146317
0.00181909
0.00320903
0.00183356
0.00538233
0.00826427
0.00214949
0.0030492
0.0146937
0.0203969
0.0132679
0.0123358
0.00142765
0.00689586
0.00572492
0.00580445
0.0356446
0.0180643
0.0171092
0.00275144
0.0124582
0.00469582
0.00509662
0.0167005
0.0139029
0.0251762
0.0106234
0.123275
0.129603
0.0966514
0
0.0092179
0.00614558
0.0154964
0.00827183
0.000815013
0.000619725
0.000384188
0.000442979
0.000804797
0.000856518
0.000946208
0.000386734
0.00120368
8.58507e-05
0.000303598
0.00312954
0.0083631
0.00415523
0.00302726
0.00422538
0.00926893
0.00339013
0.0172668
0.0033788
0.00177777
0.00481924
0.0020182
0.00244584
0.00328495
0.00294969
0.00432654
0.00310453
0.000667497
0.00340455
0.00183713
0.00248994
0.00444634
0.00333526
0.00215592
0.00557425
0.00274186
0.00334428
0.00606786
0.00257216
0.00258789
0.00105366
0.00505176
0.00339253
0.00136928
0.00534378
0.0019024
0.00420734
0.00127509
0.00879977
0.00481932
0.00411662
0.00114646
0.000159005
0.00231772
0.00121343
0.0024293
0.000480885
6.32257e-05
0.000546733
0.000486412
0.000671581
0.000406453
0.000122762
5.42667e-05
0.00107878
0.000541491
0.00101542
0.00549753
0.0141778
0.0075185
0.00753438
0.00294171
0.000486095
0.00312551
0.00049709
0.0017211
0.00122602
0.000420265
0
0
0
0
0
0
0
0
0
0
0
0
0
0
0
0
0.000232275
0.000271677
0.000210712
0.000120127
0.000306743
0.000321162
0.000433956
0.000342217
0.000332529
0.000405997
0.000435239
7.44471e-05
0.000313695
0.000614093
0.00019007
0.00031265
0.000382455
0.000302926
0.000120646
0.000389943
0.000279006
0.000695293
0
0.00439122
0.00441884
0
0
0
0
0
0.00933663
0.00633257
0
0
0
0
0.00688549
0
0
0
0
0
0
0
0
0
0.0299054
0
0.00703394
0.00131951
0.00124302
0.000573167
0.00041465
0.000392755
0.000276805
0.000365818
0.000262093
0.000248707
0.000186218
2.4712e-05
0.00113979
0.00153979
0.00244565
0.000450567
0.00278419
0.00193503
0.00463638
0.00302797
0.0024923
0.0084083
0.0012344
0.00358023
0.0365208
0.0225699
0.0302476
0.00533747
0.025223
0.0348062
0.0267233
0.0209776
0.0686994
0.696952
0.0764173
0.0377045
0.0557105
2.19519
0
0
0
0
0
0.00209597
0.00327071
0.00415984
0.00395105
0.00328921
0.00287799
0.003529
0.0028579
0.00392456
0.00519675
0.00383829
0.00414824
0.00703877
0.0196879
0.00146226
0.000578054
0.00137364
0.00222822
0.00154024
0.00118081
0.000642867
0.00126236
0.00139559
0.000376489
0.002943
0.00102411
0.00140797
0.00842531
0.00771731
0.0147592
0.0307991
0.0262033
0.0129385
0.146541
0.157357
0.0148462
0.00406714
0.000670997
0.00192034
0.0014985
0.00251397
0.00122009
0.00168007
0.00151508
0.00153611
0.000250433
0.00405406
0.0020875
0.00493246
0.00328414
0.00105992
0.00362519
0.000249308
0.00156146
0.00430751
0.00440901
0.00287617
0.00398429
0.00461422
0.00438207
0.0068534
0.00809483
0.00250995
0.00439578
0.00124502
0.000858044
0.00103447
0.0012684
0.0027885
0.0025168
0.00250596
0.00221303
0.0019458
0.00183562
0.0014123
0.00032783
0.000523069
0.000835654
0.00102416
0.000463418
0.000861236
0.00102095
0.00182968
0.00102404
0.00134685
0.00131192
0
0.0197588
0.00412211
0.000689285
0.00241537
0.00100044
0.000992289
0.00615163
0.00438439
0.0117248
0
0
0
0
0
0.0391977
0
0
0
0
0
0
0
0
0
0
0
0
0
0
0
0
0
0
0
0
0.000517294
0
0
0.000501308
0.000283511
0.0002582
0
0
0
0
0
0
0
0
0
0
0
0
0
0
0.000222038
0.00022859
0.000350689
0.00014528
0.000370992
0.000285121
0.00052222
0.000547073
0.000197457
0.000502732
0.000363417
0.000294789
0.000332172
0.000191822
0.000330727
0.000134845
0.000365898
0.000150509
0.000212242
0.000191185
0.00105157
0.000950683
0
0
0
0
0
0
0
0
0
0
0
0
0
0
0
0
0
0
0
0
0
0
0
0
0
0
0
0
0
0
0
0
0.0393848
0
0.00167412
0.0190607
0.000498269
0.00210379
0.00132636
0.000509599
0.000556986
0.000329091
0.000368196
0.00041758
0.000341567
0.000248939
0.000205414
0.000420306
0
0
0
0
0
0
0
0
0
0
0
0
0
0
0
0
0
0.00206095
0.001308
0.000675728
0.000878628
0.00292049
0.00405183
0.0110899
0.0163875
0.0269968
0.045083
0
0
0.0998227
0.0545603
0
0.180975
0.215545
0.0225711
0.0434179
0.02698
0
0
0
0
0
0
0
0
0
0
0
0
0.00200565
0.00202012
0.0019261
0.00161697
0.00197128
0.00286388
0.00154863
0.00124161
0.00118236
0.000676889
0.0045331
0.00250874
0.00270618
0.00214579
0.00444086
0.00414605
0.00971697
0.00304221
0.00729881
0.0258244
0.00448587
0.0448174
0.00239809
0.00209691
0.00116184
0.00228928
0.00265149
0.00145216
0.00304085
0.00273217
0.00994492
0.0113844
0.0576299
0.0326385
0.0642275
0.0620641
0.343231
0.573819
0
0.297643
0
0.0131375
0.00111022
0.0153288
0.00124768
0.000327208
0.00235888
0.00171818
0.00027592
0.00235634
0.00440988
0.00408306
0.00442086
0.00296383
0.000547532
0.00110607
0.00180492
0.00204784
0.00286993
0.00332322
0.00386305
0.00325834
0.000927025
0.00251257
0.00346348
0.00199977
0.000726574
0.00177676
0.00173453
0.000681651
0.0017811
0.000359906
0.00153874
0.00132302
0.00333305
0.00181226
0.00130295
0.00156124
0.00141367
0.00179074
0.000856748
0.00106947
0.000926155
0.000769381
0.000615584
0.000774231
0.000399549
0.000624262
0.000790133
0.000529043
0.00065242
0.000548006
0.000297858
0.000492618
0.00055588
0.000167147
0.000248208
0.000136189
0.000425672
0.000554015
0.000249199
0.000233688
0.000358704
0.00020938
0.000436148
0.000219344
0.000370567
0.000130252
0.000319456
0.000155705
0.000301991
0.000204482
0.000116044
0.000219893
9.37369e-05
0.000238697
0.000105898
0.000146784
2.20652e-05
0.000164693
0.000157886
0.000585346
0.00313591
0.000350428
0.000657579
0.00130787
0.000399134
0.000227212
0.0298038
0.0040626
0
0
0.0389597
0.0310605
0
0
0
0.00502053
0.034701
0.0343912
0
0
0
0
0
0
0
0
0
0
0
0
0
0
0
0.0100534
0
0
0
0
0
0
0
0
0.0128632
0
0
0
0
0
0
0
0
0
0
0
0
0
0
0.00357472
0.00575082
0
0
0.00424461
0
0
0.0132301
0
0
0
0.0125602
0.00743327
0.00637347
0
0.0195685
0.016162
0
0
0
0
0
0
0
0
0
0
0
0
0
0
0
0
0
0.013334
0
0
0.000335212
0.000277443
0.000381825
0.000516635
0.000304711
0.000518775
0.000510848
0.000458517
0.000208493
1.72741e-05
0.000186608
0.000243515
0.000412891
0.000168204
0.000766285
0.00127861
0.000796787
0.000295165
0.00027611
0.00013889
0.000242345
0.000520932
0
0
0.00482743
0.00373279
0
0
0
0
0.00829716
0
0
0
0
0
0
0
0
0
0
0
0
0
0.0138079
0.0106441
0
0
0
0.0331882
0.0126968
0
0.00122446
0.000809465
0.000933962
0.00105344
0.000994451
0.00065732
0.000497144
0.000595205
0.000505309
0.000636378
0.00059586
0.000366611
0.000636945
0.000447392
0.00248694
0
0
0
0
7.54793e-05
0
0
0.000236023
0
0
0
0
0
0
0
0
0
0
0
0
0
0
0
0.266769
0
0.000486732
0.00308545
0.00166086
0.00141176
0.0362407
0.00793434
0
0
0
0.0102659
0
0
0
0
0
0
0.0683349
0
0.0370696
0.059665
0
0
0
0
0
0
0
0
0
0
0.00158562
0
0.000904861
0.000702235
0.00171566
0.00258302
0.00227629
0.00314144
0.00114434
0.00176502
0.00028378
0.000445778
0.000583697
0.000557134
0.000357334
0.000170466
0.000214595
0.000310975
0.000313871
0.000192196
0.000241003
0.000213017
0.000175173
0.000238332
0.000112836
0.000129341
0.000188046
8.3281e-05
0.000211312
0.000245112
0.000111726
3.66636e-05
0.00298872
0.00333207
0.00306284
0.00221184
0.00429982
0.00572139
0.0101495
0.00640942
0.0571282
0.034936
0
0.0169218
0
0.00172361
0.000488666
0.000842092
0.000771455
0.00247306
0.0152019
0.0664783
0
0
0
0
0
0
0
0
0
0
0
0.154437
0.00945234
0.0269919
0.00517948
0.00366464
0.00867903
0.00233064
0.0055554
0.00388642
0.00378276
0.00195498
0.00253512
0.00140968
0.00234386
0.0017527
0.00294785
0.000793633
0.00285996
0.00139755
0.00103384
0.00122205
0.00113356
0.00196356
0.00144402
0.00102959
0.000487203
0.00127084
0.00050266
0.00170898
0.00238237
0.00135786
0.000370987
0.00125156
0.00218876
0.00117686
0.00116345
0.00136297
0.00111752
0.0010071
0.000830213
0.000545002
0.000732247
0.000563397
0.000652575
0.000804231
0.000634356
0.000391064
0.000651069
0.000363834
0.000516741
0.000261603
0.000440629
0.000205706
0.000364266
0.000168258
0.000281169
0.000167788
0.000303656
0.000181185
0.000327095
0.000269496
0.000193481
0.000159911
0.000229408
0.000184638
0.000159113
0.000160645
0.000175792
0.000117364
0.000128626
6.27347e-05
0.000114372
0
0
0.018993
0.00812355
0.0170608
0.0109244
0.00397246
0.00844497
0.00833548
0.0218351
0
0
0
0.253808
0
0
0
0
0
0.0264916
0.0183397
0
0
0
0
0
0
0
0
0.0169528
0.0350428
0
0
0
0.0129565
0
0
0
0
0
0
0
0.0149082
0
0.029619
0
0
0
0
0
0
0.00023106
0
0
0
0.00630636
0
0
0
0
0
0
0
0
0
0
0
0
0
0
0
0
0.0132145
0
0.00692504
0
0
0
0
0
0
0
0
0
0
0.000501497
0.000409022
0.000515311
0.000520383
0.000234419
0.000445166
0.000240534
0.000341109
0.000135072
0.000426468
0.000396885
0.000177877
0.000239213
0.000391361
0.0011954
0.00391878
0.00252678
0.000290442
0.000454295
0.000398088
6.31861e-05
0.000426036
0.00275531
0
0.00099537
0
0
0
0
0
0
0
0
0
0
0
0
0
0
0
0
0
0
0
0
0
0
0
0
0
0.00324321
0
0.00120942
0.000402047
0.000480483
0.00106908
0.000782231
0.00045634
0.000659092
0.000755067
0.000776244
0.000576122
0.000497152
0.000457602
0.000486949
0.000765312
0
0
0
0
0
0
0
0
0
0
0
0.00383476
0
0
0
0
0
0
0
0.0486313
0
0.0712144
0.147747
0
0
0
0
0
0
0
0
0.00571634
0.0137045
0.00294988
0.00892633
0
0.208602
0
0
0.00369483
0.0216699
0.00724759
0
0
0
0
0.000999944
0.00165064
0
0
0.526414
0
0
0
0
0
0
0
0
0
0
0
0
0
0
0
0.000172475
0.000165367
0.0002321
0.000167881
0.000154485
9.32704e-05
0.000148153
0.000232563
0.000108991
8.04963e-05
0.000192903
0.000183144
0.000225516
0.000174645
0.000158068
4.34693e-05
5.72103e-05
5.50864e-05
0.000200903
0.000218343
3.734e-05
6.63397e-06
0.000221234
0.000181996
0.000282111
8.18621e-05
0.000281388
0.00017765
0.000104189
9.93614e-05
0.000199768
0.000155819
0.000128492
8.37886e-05
9.96792e-05
0.000693123
0.000910446
0.0013254
0.00219626
0.00239004
0.00210113
0.00106837
0.00141668
0.000180645
0.000482143
0.000484641
0.000400591
0.000163428
0.000260574
0.000291903
0.00025596
0.000261008
0.000326243
0.00024035
0.000298299
0.000206754
0.000282951
0.000176007
0.000180753
7.05022e-05
0.000124375
0.000166406
8.63651e-05
0.00363472
0.00233804
0.00575294
0.0116099
0.00948361
0.00214991
0.00232813
0.00466503
0.00448137
0.046288
0
0.00013027
8.77986e-05
9.12756e-05
0.00014645
3.59528e-05
1.03209e-05
0.000114206
4.98219e-05
8.67664e-05
0.000100678
9.29425e-05
0.000150497
0.000149601
0.000111237
0.000121975
0.000197185
0.000143816
0.000156317
0
0
0.00325536
0.00201823
0.0456446
0.00590543
0.0102854
0.0823232
0.00255451
0
0.00924234
0.0160939
0
0
0
0
0
0
0.347014
0
0
0.0452115
0.0154615
0.0199839
0.0133652
0.0701636
0.00570401
0.00665852
0.0022046
0.00805407
0.000766205
0.00249749
0.0016736
0.00232621
0.00423162
0.0017258
0.0018575
0.00334979
0.00164769
0.000967557
0.00139202
0.000843362
0.00138895
0.0016258
0.00168626
0.00103501
0.0012516
0.000245628
0.00197923
0.000566005
0.00211555
0.0021572
0.00158097
0.00238419
0.00165499
0.00167613
0.00167876
0.00137968
0.000914106
0.000696709
0.000769604
0.000875417
0.00104101
0.000955711
0.000724115
0.00049643
0.000631287
0.000449676
0.000540479
0.00034837
0.000276068
0.00044415
0.000419545
0.000196393
0.000182707
0.000335276
0.000351839
0.000212675
0.000357325
0.000330011
0.000330664
0.000213667
0.00023796
0.000332053
9.67744e-05
0
0
0.164596
0
0
0
0
0.0925083
0
0
0
0
0
0
0.0149304
0
0
0
0
0.024434
0
0
0
0
0
0
0
0
0.00815983
0
0.0150184
0
0.00330592
0
0
0
0
0
0
0
0
0
0.019905
0
0
0
0
0
0
0
0
0.208455
0
0.00125548
0
0
0
0
0
0
0
0
0
0
0.0115484
0
0
0
0
0.00131011
0
0
0
0
0
0
0
0
0
0
0
0
0
0
0
0
0
0
0
0.00336514
0
0
0
0
0.00116355
0.000163844
0.000312712
9.5744e-05
7.84558e-05
0.000130325
0.000205973
0.000319582
0.000415937
0.000453872
0.00027593
0.000216559
0.000463053
0.000537849
0.000122532
0.000138346
0.000366849
0.000527762
0.00046853
0.000287512
0.000537007
0.00105791
0.00378404
0.000569596
0.00043216
0.000273536
0
0
0
0
0
0
0
0
0
0
0
0.00386357
0
0
0
0
0
0
0
0
0
0
0
0
0
0
0
0.00659741
0.000560507
0.000494543
0.000430677
0.000483697
0.00038375
0.000305304
5.6631e-05
0.000856952
0.000458769
0.000636676
0.000571123
0.000470507
0.000679778
0.000363646
0.000515385
0
0.00156633
0
0
0
0
0
0
0
0
0
0
0
0
0
0
0
0.00288855
0
0
0
0
0
0
0
0
0
0.0337896
0
0
0
0
0
0
0
0.0267313
0
0.00462302
0.00204651
0.00844933
0.00802273
0.00810915
0.166645
0.025973
0
0
0
0
0.00825871
0.0116105
0
0
0
0
0
0
0
0
0
0
0
0
0
0
0
0
0
0
0
0
0
0
0
0
0.000245818
0.000196008
0.000231421
0.000199759
0.000178709
9.39551e-05
0.000192394
0.000162785
1.06032e-05
5.24722e-05
0.000187998
8.24276e-05
0.000199562
0.000256127
0.000223344
0.000272864
0.000208411
0.000117153
0.000171499
0.000123444
4.56468e-05
0.000125463
0.000511288
0.000937208
0.00155953
0.000831489
0.00186713
0.00184257
0.00145263
0.000637139
4.01147e-05
0.00035851
0.000483627
0.000434872
0.00026722
0.000267155
0.000527119
0.00033836
0.000220878
0.000343892
0.000309824
0.000300297
0.0002871
0.000248157
0.000379856
0.000338209
0.000253783
0.000253168
0.000243736
2.1378e-06
8.70265e-05
9.5388e-05
4.63929e-05
0.00684079
0.00822053
0.00291889
0.00254515
0.0166316
0.00632244
0.0024815
0.00200011
0.0046997
0.00482728
0.515916
0.0470628
0.000194596
0.000134915
0.000136931
0.000113427
7.14081e-05
2.83224e-05
6.64807e-05
4.26802e-05
1.75296e-05
7.71526e-05
9.48519e-05
8.47678e-05
7.86131e-05
0.000141686
0.000106172
0.000170578
0.00016849
0.000115865
0.000138584
0.000119172
5.15889e-05
2.13889e-05
7.14953e-05
0.000141304
0.0001214
0.00847249
0.0223463
0.00972378
0
0
0
0
0
0
0
0
0
0
0.00983191
0
0.00454155
0
0
0
0
0.00465558
0
0.0502844
0
0.015397
0.00491537
0.0843291
0.0253931
0.00418654
0.00510736
0.0042437
0.00247738
0.00261412
0.00327268
0.00161391
0.00263022
0.00192159
0.00231485
0.00204231
0.00185595
0.00248154
0.00177846
0.000993406
0.00133172
0.00167239
0.00136955
0.00198075
0.00208725
0.00197219
0.00204012
0.00157935
0.00128077
0.00155134
0.00133007
0.00143472
0.00128343
0.00153517
0.000567947
0.000667013
0.00124675
0.00125027
0.00072067
0.00058598
0.000564799
0.000422289
0.000377559
0.0005146
0.000446678
0.000320219
0.000280211
0.000429058
0.000350615
0.000198935
0.000258395
0.000293579
0.000273607
0.00025654
0.000403194
0.000221318
0.000348538
0.000367798
0.000210087
0
0
0
0
0
0
0
0
0
0
0
0
0
0
0
0
0
0
0
0
0
0
0
0
0
0
0
0
0.00886627
0.00431326
0
0
0
0
0
0
0
0
0
0
0
0
0.266943
0
0
0
0
0
0
0
0
0.207185
0
0
0
0.0103189
0.00479824
0
0
0
0
0
0
0
0.0104577
0.00763161
0
0
0.00331348
0.00483546
0
0
0
0
0.00954761
0
0.0141522
0
0
0
0
0
0.000647379
0.00121143
0
0
0
0
0
0
0
0
0
0
0.00561631
0
0
0
0
0
0
0
0
0.000203322
0.000298775
8.52026e-05
0.000133981
0.000215891
0.000101533
0.000192564
0.000150163
0.000171498
0.000130713
0.000459188
0.000196739
0.000438706
0.000637036
0.000356777
0.000554224
0.000528829
0.000210311
0.000554804
0.000247623
7.28035e-05
0.000360408
0.000269365
0.000417293
0.00330723
0.00278868
0.00274819
0
0
0
0
0
0
0
0.0228557
0.00995122
0
0
0
0
0
0
0
0
0
0
0.000223221
0
0
0
0
0
0.000368888
0.000171222
0.000230536
0.00239347
0.000368225
0.000502734
0.000233162
0.000113324
6.19664e-05
0.000278862
0.000256448
0.000304398
0.000173861
0.000309456
0.000459375
0.000372447
0
0
0.00145615
0.0119665
0
0
0
0.00117302
0
0
0
0
0
0
0
0.00386562
0.0154255
0
0
0
0
0.00335691
0
0
0
0.0230403
0
0
0
0
0.00473225
0
0
0
0
0
0
0
0
0
0
0
0
0
0
0.00497653
0.00278679
0.00695487
0
0.034099
0
0
0
0
0
0
0.00468709
0.00150766
0
0
0
0
0
0
0
0
0
0
0
0
0
0
0
0.00138582
0
0.00864082
0
0
0
0
0
0
0
0.00462908
0.000276109
0.000264062
0.000284961
0.000587858
0.000296364
0.000334141
0.000350117
0.000514093
0.000605625
0.000291164
0.000661077
0.000482625
5.28408e-05
0.000272688
2.83445e-05
6.02514e-05
0.000100139
0.000119427
0.000264805
0.000162128
0.000374936
0.000224497
0.000169913
6.05405e-05
0.000113312
0.000104867
0.000137254
8.46764e-05
0.000236096
0.00133199
0.00110372
0.000635866
0.00147995
0.00145573
0.00113297
0.000645743
0.000244413
4.85083e-05
0.000141979
0.000693585
0.000238736
0.000134083
9.07338e-05
6.07286e-05
0.000268631
0.000229032
0.000254716
0.000247845
0.000195175
0.000298385
0.000269838
0.00039026
0.000374824
0.000514863
6.07548e-05
0.000102587
0.000239521
0.000389639
0.00342027
0.0113613
0.00371881
0.00212506
0.00241089
0.00506087
0.00177832
0.00253027
0.0139242
0.00645229
0.00527927
0.0925312
0.00017679
0.000202852
0.000223625
0.000153137
0.000182731
8.24696e-05
0.000118386
0.000106225
7.06814e-05
3.37183e-05
6.27383e-05
0.00011611
6.12358e-05
0.000125361
0.000119037
0.000108526
0.000135975
9.0294e-05
0.000108077
0.000153962
0.000123318
4.09261e-05
6.75849e-05
9.4966e-05
0.000103068
0
0
0
0
0
0
0
0
0
0
0
0
0
0
0
0
0.00484432
0
0
0
0
0
0.766523
0
0.00718596
0.00447262
0.0473005
0.187106
0.0136434
0.00506858
0.00269862
0.00293187
0.00386756
0.00150815
0.002492
0.00222788
9.64255e-05
0.00122913
0.00267938
0.000467916
0.00175093
0.00175428
0.000470249
0.000651339
0.00172135
0.00113367
0.00136818
0.000783598
0.00115244
0.00129738
0.00127118
0.00105504
0.00118729
0.0012427
0.000658967
0.00133778
0.00113253
0.000513124
0.000878399
0.000587795
0.000621291
0.000431335
0.000502168
0.000444601
0.000463933
0.000364724
0.000425823
0.000319629
0.000244798
0.000373078
0.000267394
0.000226023
0.000257443
0.000204131
0.000266038
0.000291303
0.000474327
0.000192003
0.000303661
0
0
0.153668
0.000284722
0
0
0
0
0
0
0
0.00781231
0
0.00505228
0.00493511
0.00161739
0.00587146
0
0.0321856
0.0511185
0
0
0
0.00335947
0
0.000968521
0.0037508
0
0
0
0
0
0
0
0
0.000118793
0
0
0
0
0
0
0.770986
0
0
0
0
0
0
0
0
0
0
0
0
0
0
0
0
0
0
0
0
0
0
0
0
0
0
0
0
0
0
0
0
0
0
0
0
0
0
0
0.0196916
0
0
0
0
0
0
0
0
0
0
0
0
0
0
0
0
0
0
0
0
0
0
0
0
0
0
0
0
0
0.000617003
0
0
0
0
0.000129614
0.00015834
0.000134707
0.000154405
0.000116993
0.000139978
6.32324e-05
0.000149515
0.000113856
0.000183413
0.000101927
0.000169452
0.000377596
0.000345374
0.000394205
0.000696874
0.00052531
0.000638579
0.000148443
0.000521478
0.000298074
0.00024938
0.000258871
0.000151164
0.000971666
0.000778895
0.00321324
0.00293768
0.00604883
0
0
0
0
0
0.00576812
0
0
0
0
0
0
0
0
0
0
0
0
0
0
0
0
0
0
0.000712852
0.000384258
0.000561082
0.000372541
0.00041744
0.00324175
0.000886748
0.00131455
0.000280621
0.000308812
0.000338285
0.000444626
0.000503001
0.000616426
0.000120059
0.000576854
0
0.00372897
0
0
0
0
0
0.00106988
0
0
0.00101787
0
0
0
0
0
0
0
0
0.000179091
0
0
0
0
0
0
0
0
0
0
0
0
0
0
0
0
0.00906406
0.0455261
0.00228117
0
0
0
0
0
0.0201748
0
0
0
0.0171197
0
0
0
0
0
0
0
0
0.00662784
0.0180052
0.122677
0
0
0
0
0
0
0
0
0
0
0
0
0
0
0
0
0
0
0
0
0
0
0
0
0
0
0
0
0
0
0.00103003
0.0147853
0
0
0
0
0
0
0.000380325
8.29623e-05
0.000352488
0.000598081
0.000423935
0.000697719
9.72637e-05
0.000859875
0.000436092
0.000500661
0.000520751
0.000169251
4.87646e-05
0.000108802
2.67801e-05
0.000175789
7.46661e-05
0.000239423
0.00020522
0.000310124
0.00030024
1.86588e-05
0.000152957
5.44211e-05
7.22665e-05
9.0197e-05
2.79823e-05
0.000511235
0.0010641
0.000960774
0.000813782
0.00114585
0.00101778
0.000873182
0.000802424
0.000257062
0.000228372
0.000653998
0.000279461
9.07578e-05
0.000135469
0.000136508
0.000347039
0.000135333
0.00017925
0.000250263
8.16577e-05
0.000204303
0.000468487
0.000237506
0.000236826
0.000212787
0.00031018
7.43534e-05
6.00783e-05
0.000164292
0.000223327
0.00627589
0.00559067
0.00197897
0.00301342
0.00173336
0.00253326
0.00228662
0.00186295
0.0132337
0.00769609
0.00359355
0.0681169
0
0
0.216975
0.000189934
0.000129757
0.000179496
0.000229975
0.000100081
8.42687e-05
4.58929e-05
0.000101431
7.83437e-05
5.00439e-05
0.000102327
9.0499e-05
0.000136011
0.000133621
0.000139672
0.00012528
8.91676e-05
0.000116884
6.32039e-05
0.000102222
0.000105742
4.41331e-05
0.00013265
0.000121393
0.000190605
0.000132594
0
0
0
0
0
0.00938666
0.00378166
0
0
0
0
0.00495927
0.00609624
0
0
0
0
0
0
0
0
0
0
0
0
0.0400946
0.00612159
0.108857
0.00233255
0.0094778
0.0042033
0.00278841
0.00274268
0.00517633
0.00144444
0.00184831
0.000704816
0.000820302
0.00107896
0.0017821
0.00185836
0.00119864
0.000386181
0.000526072
0.00116631
0.00102213
0.00110177
0.000757433
0.00110682
0.00117799
0.000923363
0.00126493
0.00121902
0.00100572
0.000593711
0.000874937
0.000858698
0.000831126
0.000679933
0.000529858
0.000472084
0.000486561
0.000473706
0.000449368
0.000390893
0.000402992
0.000305354
0.000369759
0.000257864
0.000243552
0.000298185
0.000244163
0.000279372
0.000311624
0.000259679
0.000247868
0.000330233
0.000187044
0
0
0
0
0
0
0
0
0
0.0131891
0
0
0
0.00393468
0.0100378
0.0108037
0.00653141
0.00810961
0.00543621
0
0
0
0
0
0
0
0
0
0
0
0
0
0
0
0
0.000578565
0
0
0
0.17034
0
0
0
0
0
0
0
0
0
0
0
0
0
0
0
0
0
0
0.055839
0
0
0
0
0
0.00306582
0.00117263
0.0047228
0
0
0
0
0
0
0
0
0
0
0
0
0
0
0
0
0
0
0
0
0
0
0
0
0
0
0
0
0
0
0
0
0
0
0
0
0
0
0
0
0
0.00887138
0
0.0010491
0
0
0.00117959
0
0.0102694
0.000145374
7.57277e-05
0.000156794
0.000148034
0.000143217
0.000260475
0.000120957
9.18796e-05
0.00039001
0.000319433
0.000110242
0.000111854
0.000389089
0.000179307
0.000311954
0.00025138
0.000135921
5.29851e-05
9.74173e-05
0.000369591
9.29452e-05
0.00087205
0.000760434
0.00023119
0.000128849
0.00066327
0.00131854
0.000819248
0.00458044
0.00234032
0.00337324
0.00410561
0.00477422
0
0
0.00682495
0.00189603
0
0
0
0
0
0
0
0
0.016743
0
0
0
0
0.0184447
0
0
0.0153591
0
0
0
0.000397619
0.000326087
0.000288887
0.000179565
0.0018109
0.00134141
0.00168612
0.00146056
0.000523879
0.000342373
0.000154273
0.000736215
0.000678207
0
0
0
0
0
0
0.157858
0.0126131
0
0
0.00594786
0
0
0
0
0
0
0.00738444
0
0
0
0
0
0
0
0
0
0
0.0420477
0
0
0
0
0
0
0
0
0
0
0
0
0
0
0
0
0
0
0
0
0
0
0.00958534
0
0
0
0
0
0
0
0
0
0
0
0.0288727
0
0
0
0
0
0
0
0.00717781
0
0
0
0
0
0
0
0
0
0
0
0
0
0
0
0
0
0
0
0
0
0
0
0
0
0.00444482
0
0
0
0
0
0
0
0
0.000409104
0.000991342
0.0011858
0.000696301
0.000826247
6.89853e-05
0.000368262
5.7603e-05
0.00031277
7.1702e-05
0.000237265
5.32469e-05
3.16669e-05
0.000125308
7.28431e-05
0.000103066
0.000117301
0.000130941
0.000258249
0.00025705
0.000309852
0.000131744
7.58711e-05
5.66048e-05
0.000200762
0.000196421
5.80554e-05
0.000211275
0.000725159
0.000798891
0.000677242
0.00106163
0.000791516
0.00109141
0.000724278
0.0011323
0.000259182
0.000287527
0.000469604
0.000642409
0.000167746
0.000244448
0.000377604
0.000127719
0.00014542
0.000280323
0.000112456
0.000142559
0.000659708
0.000475554
0.00066969
0.000837611
0.000529479
0.000440925
0.000355257
9.51205e-05
7.51997e-05
0.000256704
0.00768571
0.00388108
0.00149231
0.001782
0.000905325
0.001306
0.00171903
0.00234187
0.0100506
0.0183161
0.0166677
0.024911
0.0343207
0.00660682
0.000132861
0.000232624
0.000273542
0.000104941
9.75875e-05
7.28008e-05
7.77751e-05
0.000148145
0.000161075
0.00012073
0.000115402
0.000100771
0.000131181
9.98086e-05
8.28109e-05
7.23585e-05
8.094e-05
7.62311e-05
9.08625e-05
0.000147446
9.33731e-05
0.000113995
0.000144655
8.18685e-05
9.55045e-05
0
0
0
0
0
0
0
0
0
0.00558235
0
0
0
0
0
0.000857925
0.000850742
0
0
0
0
0
0.785753
1.98094
0
0.0113155
0.0210128
0.00658671
0.00534029
0.00734182
0.00423555
0.00699207
0.00114951
0.00251236
0.00132395
0.00058167
0.00280677
0.000730994
0.00124835
0.000449125
0.0017162
0.00106499
0.000361788
0.000755467
0.000859463
0.00110782
0.00127219
0.000720669
0.000918071
0.000902778
0.000742723
0.000782167
0.000880199
0.000805869
0.000578714
0.000670376
0.000675518
0.000604703
0.000482595
0.000435489
0.000484303
0.000394149
0.000380023
0.000386326
0.00029444
0.000337556
0.000236674
0.000253516
0.000261929
0.000318526
0.000273399
0.000344735
0.000302474
0.000293792
0.000263128
0.000266694
0.000198773
0.000232641
0
0
0
0
0
0
0
0
0
0
0
0
0
0
0
0
0
0.00841148
0
0
0.00463423
0
0
0
0.0028924
0
0
0
0
0
0.0108277
0
0
0
0
0
0
0
0
0
0
0
0
0
0
0
0.00162789
0.00994175
0.00557122
0
0
0
0
0.00430664
0
0
0.0053074
0
0
0
0
0.00885709
0
0.0080321
0
0
0
0
0
0
0
0
0
0
0
0
0
0
0
0
0
0
0
0
0
0
0
0
0
0
0
0
0
0
0
0
0
0
0
0
0
0
0
0
0
0
0
0
0
0
0
0
0
0
0
0
0
0.00350998
0
0
0
0.00989222
0
0
0.000118949
7.09235e-05
5.9307e-05
7.21423e-05
0.000137177
0.000129913
0.000136634
0.000176369
0.00017367
0.000138821
0.000131462
9.93614e-05
0.00033672
0.000257343
6.97672e-05
0.000207296
0.000219359
0.000120223
0.000148822
0.00013169
0.000196448
6.00433e-05
4.43638e-05
0.000159851
0.000955863
0.000362603
0.00118846
0.000546447
0.000346521
0.002499
0.00109792
0.00276416
0.00330071
0.00335852
0.00485643
0.0111592
0.0107465
0
0
0.00646506
0.000265215
0
0
0.01238
0
0
0.0174475
0
0
0
0
0.0428508
0
0
0
0
0.0167691
0
0.0137589
0
0
0.000355869
0.000738572
0.00096686
0.000432003
0.000402632
0.00286653
0.000865516
0.00145293
0.00102363
0.000845219
0.00036424
0.00101396
0
0
0.000683156
0
0
0.00362303
0.000956196
0
0
0
0
0
0
0
0
0.0560076
0.0805007
0
0
0.0204706
0
0.00897024
0
0
0
0
0.0590397
0
0.00581865
0.126495
0
0
0
0
0
0
0
0
0
0
0
0
0
0
0
0
0
0
0
0
0
0
0.0202365
0
0
0
0
0
0
0
0
0
0
0
0
0
0
0
0
0
0
0
0
0
0
0.00755232
0.00205796
0
0
0
0
0
0
0
0
0.00208537
0
0
0
0
0
0
0.00138472
0
0
0
0
0
0
0
0
0
0
0.191877
0
0
0
0.006386
0
0.000590905
0
0
0
0
0
0
0
0.000371556
0.000379866
0.000252273
0.000175739
0.000294728
0.000209957
0.000133666
0.000118459
3.27864e-05
8.0231e-05
4.47743e-05
0.000108117
9.32776e-05
8.95282e-05
0.000159084
2.07528e-05
2.7995e-05
0.000162993
6.64641e-05
0.000177275
0.000193491
0.000225712
0.000376747
0.000322365
9.98479e-05
0.000389457
0.000117089
4.40803e-05
0.000126389
0.000742044
0.000891081
0.000763643
0.00119197
0.000804219
0.00115112
0.00117563
0.000976054
0.000361885
0.00028831
0.000568182
0.00065865
0.000181536
0.000164799
0.000112639
0.000223489
6.6461e-05
0.0001027
0.000310151
0.000571958
0.000321191
0.000387933
0.000787741
0.000434849
0.000284723
0.000229405
0.000113401
0.000298219
0.000346338
0.00326079
0.00670675
0.00237486
0.00266944
0.000212081
0.000890942
0.00266131
0.00232061
0.0167146
0.00552664
0.0237548
0.0143113
0.00533125
0.00927436
0.000135409
0.000164736
9.78916e-05
0.000115006
0.000181115
0.00010857
0.000114913
0.00017362
0.000116363
0.000137592
7.2405e-05
8.60747e-05
4.57555e-05
8.26793e-05
6.0625e-05
6.13236e-05
9.20033e-05
8.33127e-05
2.3994e-05
0.00013293
0.000120067
0.000103863
7.66636e-05
7.14245e-05
0.00777344
0.0145226
0.0183274
0
0
0
0
0
0
0
0
0
0
0
0
0
0
0
0
0
0.0126024
0
0.169393
0
0.0658096
0.00558272
0.00532797
0.00968591
0.00620697
0.000997439
0.0134167
0.00533077
0.00126518
0.000993422
0.00102075
0.00336591
0.00186241
0.000739598
0.00144949
0.00146634
0.00110771
0.00126411
0.000757597
0.000708595
0.00107958
0.000633348
0.00138249
0.000572798
0.00097491
0.000848064
0.000614131
0.000538323
0.000831122
0.000622601
0.000577114
0.000625102
0.000458411
0.000471156
0.000408625
0.000372727
0.000343657
0.000360964
0.000258714
0.000265141
0.00023511
0.000247434
0.000366251
0.000314655
0.00039525
0.000362006
0.00033076