/*--------------------------------*- C++ -*----------------------------------*\
  =========                 |
  \\      /  F ield         | OpenFOAM: The Open Source CFD Toolbox
   \\    /   O peration     | Website:  https://openfoam.org
    \\  /    A nd           | Version:  8
     \\/     M anipulation  |
\*---------------------------------------------------------------------------*/
FoamFile
{
    version     2.0;
    format      ascii;
    class       volScalarField;
    location    "1500";
    object      alpha;
}
// * * * * * * * * * * * * * * * * * * * * * * * * * * * * * * * * * * * * * //

dimensions      [0 0 -1 0 0 0 0];

internalField   nonuniform List<scalar> 
526318
(
0.000433944
0.000516857
0.000237289
0.000905545
0.000541414
0.000715059
0.000274888
0.000574877
0.000189509
0.000746509
0.000370331
0.000504614
0.000626531
0.000653024
0.000682794
0.00100782
0.00110404
0.000435587
0.00068554
0.000508317
0.00042896
0.000588137
0.000805605
0.000301064
0.000530739
0.000332749
0.00022823
5.1207e-05
0.000242568
0.000117029
0.000354984
0.00036436
0.000246776
0.000820003
0.00109029
0.00057672
0.000836012
0.000448887
0.000498718
0.000394623
0.00114243
0.00142948
0.00162445
0.000530285
0.000665403
0.00135868
0.00058861
0.00108266
0.000598624
0.000471675
0.000946634
0.000923063
0.00170483
0.00197288
0.00962645
0.000473268
0.00150825
0.00585072
0.000241471
0.000370226
0.000390603
0.000296434
0.000277377
0.00039981
0.000356279
0.000342351
0.000336024
0.000249488
0.000442549
0.00038918
0.000188364
0.000135399
0.000195799
0.000747468
0.000141775
0.000650362
0.000449396
0.000825102
0.000654393
0.000325892
0.000869117
0.000638813
0.00050111
0.000664663
0.000785118
0.000804958
0.000950606
0.000637806
0.00105185
0.000990929
0.00106612
0.0012069
0.00179115
0.00296992
0.00131063
0.00190803
0.00198787
0.00177379
0.0020343
0.00171743
0.435025
0
0.121901
0.0262936
0.0204242
0
0.000529276
0.00577096
0.000586238
0.00125873
0.00100943
0.000462833
5.26083e-05
0.000533179
0.000299174
0.00014984
0.000290854
0.000178814
0.000359706
0.00203198
0.00174268
0.00190237
0.00227979
0.00214399
0.00180754
0.00281652
0.00245276
0.00331371
0.0026158
0.00392817
0.00367507
0.00391145
0.00426267
0.00421386
0.00440323
0.00491559
0.00411538
0.00528052
0.00526565
0.00612531
0.00630311
0.0063723
0.00504042
0.00560771
0.00699178
0.00641552
0.00645611
0.00638402
0.00691987
0.00622765
0.00570751
0.00651021
0.00582081
0.00603832
0.00573652
0.00697505
0.00591944
0.00583183
0.00736527
0.00971852
0.00649648
0.00758862
0.00639408
0.000210144
0.000374226
0.000421152
0.000491102
0.000180953
0.000587037
0.000743208
0.000213949
0.000659907
0.000311528
0.000381385
0.000803577
0.00125559
0.00097029
0.00171641
0.00260475
0.00269856
0.00190863
0.00274165
0.00212493
0.00345291
0.00304282
0.00477366
0.00479529
0.00448555
0.00444625
0.00473646
0.00429486
0.0052271
0.00468648
0.00482669
0.00527336
0.00528168
0.00466899
0.00483406
0.0054985
0.00622665
0.00529457
0.00457182
0.00573743
0.00562193
0.00593238
0.00597343
0.00693013
0.00600593
0.00433867
0.00482145
0.000722172
0.00103707
0.00085015
0.000730392
0.000678614
0.00042752
0.0007292
0.00132543
0.000218665
0.00178705
0.000204361
0.000291376
0.00111222
0.000810756
0.000940962
0.00225845
0.00214006
0.000825028
0.00142004
0.0309939
0
0.0179375
0.00483573
0
0
0
0
0
0
0.000344486
0.00035231
0.000186446
0.000354029
0.000246071
0.000357874
0.000486404
0.000184651
0.000374452
0.000785795
0.000626291
0.000913329
0.00077171
0.000947146
0.000898542
0.000864032
0.000905266
0.000854706
0.00148918
0.00122075
0.00179138
0.0016517
0
0
0
0
0.0699622
0.228186
0.0224875
0.00325565
0.000170731
0.00226679
0.000303819
0.000870815
0.000678953
0.000233575
0.000347011
7.57183e-05
0.000180618
0.000226074
0.000241754
0.000331854
0.00189813
0.00187
0.00210091
0.00234804
0.00380714
0.00320563
0.00489033
0.00503745
0.00571759
0.00541653
0.00644677
0.00659705
0.00868585
0.00810307
0.00477822
0.00454181
0.00391507
0.00377168
0.00501999
0.00444964
0.00888261
0.00921743
0.0061295
0.00453484
0.00608775
0.0073785
0.00653489
0.0079481
0.00879342
0.00910985
0.0104103
0.0116462
0.0132514
0.0103186
0.0130983
0.00392876
0.00399042
0.00487029
0.00376305
0.000587841
0.000556278
0.00068174
0.00039379
0.000991617
0.000404854
0.000422893
0.000872594
0.000418823
0.000939067
0.00142172
0.000888897
0.00226599
0.00337661
0.00196491
0.00372965
0.00394051
0.0032406
0.00418498
0.00405093
0.00597255
0.00613717
0.00541413
0.00553172
0.00516104
0.00499754
0.00500784
0.00530945
0.00520484
0.00491145
0.00482593
0.00459627
0.00457551
0.00437969
0.00423072
0.00510134
0.00491088
0.00557604
0.00469868
0.00481535
0.00480787
0.00461619
0.00378291
0.00401441
0.00428032
0.00416995
0.00343482
0.00310432
0.00234333
0.00273355
0.00294395
0.00303581
0.00223533
0.00213953
0.00211279
0.0017374
0.0020317
0.000630678
0.000852391
0.000569345
0.000265418
0.000884967
0.000744644
0.000354033
0.000536672
0.000440871
0.000298343
0.000676671
0.00257318
0.00148552
0.00406113
0.00216295
0.00115226
0.00264588
0.00316461
0.00149012
0.00138446
0.000981891
0.00013823
0
1.20923
0.0310018
0
0.00645922
0.0152427
0
0.00993663
0
0
0
0
0
0
0
0
0.000241751
0.00032574
0.00021712
0.00029524
0.00021239
0.000387457
0.000288276
0.000629172
0.000868499
0.000562225
0.000695564
0.000920178
0.000909217
0.000738079
0.00073377
0.000872383
0.000984991
0.000780366
0.00106275
0.00139515
0.00157908
0.00196471
0
0.189728
0
0
0
0
0
0
0.0915568
0.193727
0
0
0
0
0.00743387
0
0
0
0.0197195
0
0
0
0.00672441
0.0215471
0.000489449
0.00399472
0.00106025
0.000126937
0.000623082
0.00025625
0.000182847
0.00037586
0.000259838
0.000111485
0.000262216
0.000140363
0.00024409
0.000208115
0.00225797
0.00231798
0.00276388
0.002457
0.00363756
0.00412377
0.00504414
0.00546578
0.00561602
0.00599668
0.00819958
0.00806909
0.00930274
0.00915068
0.00541199
0.00922871
0.00872812
0.00621364
0.00446909
0.00486295
0.0112367
0.00968544
0.00931371
0.0118473
0.0105813
0.0152622
0.0143435
0.0144975
0.0128387
0.0159361
0.0133772
0.00201048
0.00185748
0.00219302
0.0020382
0.00184544
0.00134341
0.00151908
0.00182879
0.00277096
0.00198741
0.00191525
0.00226268
0.0046969
0.00608136
0.00103039
0.000871129
0.00127641
0.00132331
0.00120013
0.000849236
0.00134036
0.000707072
0.000796667
0.0014685
0.0011225
0.00171617
0.003357
0.00250317
0.00452035
0.00278426
0.00463837
0.00499429
0.00855022
0.0106692
0.0157906
0.0088372
0.00767626
0.00656883
0.00597204
0.00571477
0.00579562
0.00562828
0.00552248
0.00531747
0.00509962
0.00493114
0.00466111
0.0045486
0.00431249
0.0047261
0.00463506
0.00467875
0.00406881
0.00408253
0.00422191
0.0044936
0.00371698
0.00389041
0.00349869
0.00290456
0.00328377
0.0039266
0.00286259
0.00312699
0.00204503
0.00155034
0.00258493
0.00156432
0.00170368
0.00192181
0.00117538
0.00178793
0.00121284
0.000964815
0.00111846
0.000380579
0.000589077
0.000216806
0.000650862
0.000548432
0.000341212
0.000535562
0.000461205
0.00136959
0.000826712
0.000687613
0.000780277
0.00206338
0.00568437
0.00319471
0.00223399
0.00171532
0.00322209
0.00187155
0.00079114
0.00325272
0
0
0.0437068
0
0.0101358
0.00600392
0
0
0
0
0
0
0
0
0
0
0
0
0
0
0
0.0204046
0
0
0
0
0.00881533
0
0
0.000531442
0.00376195
0.00971687
0
0
0
0
0
0
0
0
0
0
0
0
0
0
0.000337338
0.000223475
0.00020706
0.000275959
0.000240974
0.000457318
0.00076468
0.000408595
0.000897184
0.000664205
0.000680908
0.000935408
0.00091168
0.000655469
0.000920624
0.000686881
0.000847274
0.00118256
0.00157872
0.00117781
0.00242689
0.00176515
0
0
0
0
0
0
0
0
0
0
0
0
0
0
0
0
0
0
0
0
0
0
0
0
0.0313478
0
0
0
0
0
0.00960993
0
0.00898723
0.00265906
0.000473564
0.00178503
0.000203759
0.000422324
0.000356336
0.000258512
0.000211998
0.000184824
8.12959e-05
0.00026178
0.000254135
6.77706e-05
0.000210173
0.000206847
0
0
0
0
0
0
0
0
0
0
0
0
0
0
0
0.0469515
0
0.00238137
0.00254505
0.00262581
0.00290747
0.00454721
0.00418216
0.00677537
0.00742052
0.00912613
0.0104134
0.0143481
0.0146081
0.00977651
0.00929504
0.0123107
0.01453
0.0116883
0.00882352
0.0086375
0.00916061
0.0176582
0.0252025
0.0228036
0.0160112
0.0149366
0.01663
0.0198447
0.0162435
0.0223752
0.0260736
0.0398184
0.036114
0.00114298
0.00092083
0.00115999
0.00103302
0.00122085
0.00127644
0.000775295
0.000914625
0.000719177
0.000570824
0.00226822
0.0023896
0.00154999
0.00130384
0.0027126
0.00304029
0.00259051
0.00211286
0.00717777
0.00572346
0.0032228
0.00196841
0.00105377
0.00174864
0.00142474
0.00135724
0.00132007
0.00182706
0.00219275
0.00146758
0.00430535
0.003019
0.00943837
0.00472603
0.00546818
0.00829072
0.0111874
0.011943
0.0200801
0.0175098
0.0255141
0.012572
0.00839889
0.0106666
0.00736314
0.00624387
0.00602964
0.00536339
0.00542622
0.00568705
0.00496693
0.0048964
0.00442512
0.00491567
0.00449916
0.00452231
0.00391646
0.00393318
0.00372394
0.00370148
0.00338736
0.00328507
0.00302238
0.00330823
0.00296946
0.003254
0.00271143
0.00280425
0.00290958
0.00185185
0.00160854
0.00164087
0.00175159
0.00152363
0.00173913
0.00114088
0.00119319
0.000878191
0.00104929
0.00108355
0.000628744
0.00101821
0.000618744
0.000635646
0.00041523
0.000566519
0.000434209
0.000497332
0.000538286
0.000409408
0.000444784
0.000434
0.000395301
0.000399372
0.000357045
0.000397867
0.000352395
0.000396494
0.000352073
0.00033414
0.000276489
0.000304263
0.000270526
0.000237038
0.000267155
0.000270927
0.000237582
0.000247844
0.000228782
0.000241583
0.000219701
0.000210118
0.000215541
0.000214536
0.000200051
0.000210771
0.000196396
0.000209242
0.0001823
0.000181992
0.000211988
0.00119815
0.00101461
9.64285e-05
0.000345991
0.000818692
0.000639563
0.000291154
0.000733762
0.000229364
0.0115412
0.00101901
0.00264635
0.00544843
0.0102355
0.0121281
0.0239581
0.00605011
0.00874262
0.0090187
0.0105927
0.0129287
0.01151
0.00561037
0
0.0171734
0.221129
0
0.296874
0
0.0135684
0
0
0
0
0.0174884
0
0
0
0
0
0
0
0
0.0186566
0
0
0
0
0
0
0
0
0
0
0
0
0
0
0
0
0
0
0.00969496
0
0
0.00942044
0
0.00418431
0
0
0.00392795
0.000707959
0
0.00906232
0.0173657
0
0
0.0144514
0
0
0
0
0
0
0
0
0
0
0
0
0
0
0.125963
0
0
0.000232841
0.000392774
0.000358412
0.000189468
0.000524163
0.000312765
0.000499867
0.000832419
0.000666607
0.000890613
0.000878033
0.00060793
0.00103861
0.000657626
0.00175046
0.00171425
0.00262387
0.00122218
0.000847255
0.0015017
0.00109115
0.00117242
0
0
0.00905647
0.0173543
0
0
0
0
0
0.00999883
0
0
0
0
0
0
0
0
0
0
0
0
0.0182502
0.0107151
0
0
0.171995
0.00680597
0.00232739
0.00329064
0.000575446
0.000383681
0.00017369
0.000249447
0.000135279
0.000216219
0.00016362
0.00020015
9.46091e-05
0.000271718
0.000218753
0.000179458
0.000111729
0.000339903
0.00331728
0
0.0150556
0
0
0.00116266
0
0
0.000444125
0
0
0
0
0
0
0
0
0
0
0
0
0
0
0
0.0155589
0
0.00303265
0.00280512
0.00403197
0.00405949
0.00814915
0.007536
0.0133426
0.0126595
0.0130992
0.0141611
0.0153873
0.017415
0.0184997
0.0168029
0.0231056
0.0192301
0.00856701
0.0124693
0.00778587
0.00827665
0.0643812
0.0525642
0.0189462
0.0305363
0.025151
0.0265555
0.0460905
0.0598131
0.0702916
0.0546004
0.0683556
0.0500528
0.000680732
0.000535227
0.000946882
0.00065904
0.00110713
0.00117727
0.000651278
0.000628373
0.000426076
0.000449407
0.000552427
0.000486885
0.000448356
0.000420074
0.000400669
0.000345037
0.00027919
0.00031261
0.000249741
0.000278398
0.0002234
0.000214224
0.000179111
0.000184582
0.000164944
0.00018201
0.000195823
0.000205873
0.00015161
0.000168626
0.0024826
0.00242003
0.00119032
0.000970918
0.00321118
0.00216938
0.00258446
0.00273011
0.00473839
0.00648893
0.00900754
0.00330089
0.00504583
0.00167562
0.00169987
0.00149418
0.00155008
0.00197652
0.00336015
0.00376884
0.0138096
0.0139385
0.0168955
0.0110785
0.0153355
0.0317045
0.125496
0.0291983
0.0205193
0.0246851
0.0256385
0.0178421
0.0110285
0.0147448
0.00791793
0.00948714
0.00753258
0.00652048
0.00513966
0.00523805
0.00460489
0.00479657
0.00444864
0.00462864
0.00379218
0.00358998
0.0034614
0.00339883
0.00321714
0.00305374
0.00256711
0.00220921
0.00226735
0.00265217
0.00210389
0.00248196
0.00219752
0.00201311
0.0017194
0.00152183
0.00182269
0.00139012
0.00136661
0.00153153
0.00151785
0.00107199
0.00100127
0.00109347
0.00109161
0.000755807
0.000771707
0.000393239
0.000537015
0.000412789
0.000439015
0.000469203
0.00033926
0.000329103
0.000316759
0.0002661
0.000279724
0.000213112
0.00024412
0.000238285
0.000229422
0.000227577
0.000201287
0.000181939
0.000157263
0.000180445
0.000161256
0.000140682
0.000187218
0.000145634
0.000115631
0.00013052
0.000150298
9.29857e-05
0.000133737
0.000136405
8.47172e-05
8.82026e-05
0.000121174
0.00390503
0.00373037
0.000593118
0.00117613
0.00301624
0.00144411
0.00107987
0.000201182
0.000507084
0.000554759
0.00667783
0.00719509
0.0139977
0.0060995
0.0110951
0
1.88221
0.0101751
0.0520454
0.0103238
0.0123167
0.00963978
0.0131838
0.0212844
0.00892732
0
0
0
0
0.0334201
0.0592801
0
0
0
0.0234344
0
0
0
0
0
0.0509627
0
0.0193027
0
0
0
0
0
0
0
0
0
0
0
0
0.00598469
0
0.0334047
0
0
0
0
0
0
0.049147
0
0
0
0
0
0
0
2.3521e-05
0
0.00374985
0
0.0211645
0
0
0
0
0
0
0
0
0.000291268
0.000457539
0.00043255
0.000203369
0.00053424
0.000358009
0.000768486
0.000502863
0.000871014
0.000656754
0.000668585
0.00104589
0.000836184
0.00134254
0.00212495
0.00253472
0.00386579
0.00123076
0.00154028
0.00141888
0.000947185
0.00106529
0.00313391
0
0.00100498
0
0
0
0
0
0.0193494
0
0
0
0.0197935
0.0264749
0
0
0
0
0
0
0
0
0
0.0302594
0
0.353553
0.0168087
0.000779956
0.00059822
0.00356202
0.000370437
0.000201018
4.53213e-05
0.000187869
0.000166621
0.000109255
0.000180708
0.000134409
0.000170713
0.000212847
0.000122914
0.000415473
0.000328957
4.5948e-05
0
0
0
0
0
0
0
0
0
0
0
0
0
0
0.0127321
0
0
0
0
0.0016427
0
0.00295814
0
0
0.0405595
0
0
0
0
0
0
0.00509964
0.0050682
0.00658012
0.00736059
0.0126819
0.0102642
0.0156359
0.0131029
0.00365051
0.00415287
0.00585609
0.0232501
0.0252806
0.0538783
0.0413431
0.0235163
0.0225107
0.0289963
0.020521
0.00970436
0.0115032
0.0110358
0.0068284
0.0374925
0.0612896
0.0420897
0.0132383
0.103954
0.10283
0.12394
0.0685127
0.0268835
0.060123
0.238026
0.193948
0.000279719
0.000254319
0.000255219
0.000282172
0.000246664
0.000245426
0.000241721
0.00027762
0.000201991
0.000260612
0.000294804
0.000291556
0.000281374
0.000232491
0.00013215
6.54816e-05
0.000127184
0.00015822
0.000188609
0.000100244
0.000193525
0.000202448
0.000223439
0.000232726
0.000143676
0.000250419
0.00019119
0.000238949
0.000255425
0.000168733
0.000181943
0.000151068
0.000134458
7.50791e-05
0.000104976
0.000663447
0.000536132
0.000789812
0.000565678
0.00113532
0.000923087
0.000672136
0.000526761
0.000387473
0.000491357
0.000430308
0.000491141
0.000396811
0.00037242
0.000393995
0.000298337
0.000307485
0.000294769
0.000274499
0.000282742
0.000219387
0.000237991
0.000180341
0.0001724
0.000167819
0.000155788
0.000154677
0.000117767
0.00153566
0.00191727
0.00226877
0.0024494
0.00165229
0.00096961
0.000808684
0.00127882
0.00325513
0.00569365
0.00853218
0.000129051
0.000177887
0.000157503
0.000205948
0.000211317
0.000235961
0.000222345
0.000218549
0.000227361
0.000202059
0.000215996
0.000186185
0.000222407
0.000200192
0.000252768
0.000272869
0.000251116
0.000268724
0.00854688
0.0114988
0.0121115
0.0021479
0.00105813
0.00179604
0.00364055
0.00211249
0.0105036
0.0101631
0.00764425
0.00695654
0
0.0165747
0
0
0.422984
0
0.0119603
0.0202121
0.105334
0.0153634
0.013068
0.0153593
0.010758
0.0143855
0.00615745
0.00838272
0.00535273
0.00586636
0.00500865
0.00482664
0.00405032
0.00365582
0.00311155
0.00329558
0.00287298
0.00307236
0.00209351
0.00252208
0.00218246
0.0020807
0.0020299
0.00186996
0.00152119
0.00177759
0.00190044
0.00163352
0.0014131
0.00117502
0.0015196
0.00121587
0.00128231
0.00153617
0.000864753
0.00109671
0.00110357
0.000841913
0.000876589
0.00047468
0.000567355
0.000484097
0.000521744
0.000468793
0.000327511
0.000309234
0.000266827
0.000247262
0.000270266
0.000199684
0.000209785
0.000243326
0.00023454
0.00022454
0.00016123
0.000191388
0.00012451
0.000153535
0.000140997
0.000115821
0.00011064
0.000131972
0.000112006
0.000122925
0.000140812
0.00630937
0.00589776
0.00105903
0.00329704
0.00482856
0.00251046
0.0079971
0.00153569
0.00451874
0.0197176
0.0132697
0.0414792
0.586756
0.0202022
0.0155829
0
0
0
3.98676
0.00792553
0.0154773
0.0124145
0.0297193
0
0
0
0
0
0.0862302
0.0879425
0.012894
0
0.000270902
0
0
0
0
0
0
0
0
0
0.084121
0
0
0
0
0
0
0
0
0.2209
0
0
0
0
0
0
0
0
0.00709925
0
0
0
0.000391314
0
0
0
0
0.0117237
0
0
0
0
0
0
0
0
0.0267421
0
0
0
0
0
0
0
0
0
0
0.0228801
0
0
0
0
0.0381228
0.000310732
0.000321088
0.000320752
0.000293557
0.000268019
0.000263232
0.000435781
0.000324903
0.000278508
0.000420008
0.000496559
0.000369761
0.000527172
0.000775933
0.00103854
0.000764728
0.0012027
0.000832554
0.0008648
0.00132678
0.00220876
0.00194199
0.00132945
0.00155819
0.00102404
0
0
0
0
0
0
0
0
0
0
0
0.0118258
0
0.0159878
0.00302383
0.00132114
0
0
0
0
0
0
0
0
0
0
0
0.00121345
0.000291245
0.000165523
0.000265482
0.00046247
0.0003307
0.000493643
0.000138004
9.9376e-05
6.9772e-05
7.09572e-05
0.000165062
3.38961e-05
7.46184e-05
0.000336592
0.000202865
0
0.00259224
0
0
0
0
0
0
0
0
0
0
0
0.0337917
0
0
0
0.152395
0
0.0937789
0
0
0
0
0
0
0
0
0
0
0.00791511
0
0
0
0
0
0
0.00452482
0.00336495
0.00234701
0.0064509
0.00633466
0.00815249
0.00664179
0.0219374
0.0155822
0.0476355
0.0436804
0.00491138
0.00565568
0.112976
0.113378
0.054674
0.0471726
0.0378024
0.0491174
0.0516672
0.100214
0.0109141
0.0114773
0.00688819
0.0106013
0
0
0
0.0816872
0.283091
0.440425
0
0
0
0
0
0
0.000278443
0.00029267
0.00031141
0.000282794
0.000288118
0.000315648
0.000312732
0.000326223
0.00010386
7.65063e-05
0.000106335
0.000143793
0.000190437
0.000141392
0.000255308
0.000227015
0.000164302
0.00016386
0.000131817
0.000149664
0.00010138
0.000109879
0.000637672
0.000562474
0.000519727
0.000668334
0.00082712
0.00103235
0.00047469
0.000635989
0.000350494
0.000445092
0.000382963
0.000442693
0.000449018
0.000309971
0.000462164
0.000468766
0.00036417
0.000361582
0.000306384
0.00032018
0.000336829
0.000280493
0.000322145
0.000254266
0.000220161
0.000172971
0.000172326
0.000109802
0.000138221
0.000131391
0.000112011
0.00275659
0.00240506
0.00149199
0.0011621
0.00272006
0.00155322
0.000710582
0.00103285
0.00179867
0.00179402
0.00482423
0.00234099
0.000200627
0.000179784
0.00019339
0.000216624
0.000212085
0.000224568
0.000215881
0.000206933
0.000201116
0.000193907
0.000173957
0.000176443
0.000203528
0.000235312
0.000191993
0.000241006
0.000255805
0.000255411
0.000262133
0.000210349
0.000182508
0.000188313
0.000263365
0.000269243
0.000267057
0.0239437
0.00368181
0.0251059
0.0194108
0.00263426
0.0062902
0.38724
0.0323524
0.0117913
0
0.146414
0.128293
0
0.216969
0
0.0107158
0
0.823098
0.0248377
0.130307
0.0841142
0.0233123
0.0155026
0.0227179
0.00806382
0.00751435
0.0102172
0.00865133
0.00624624
0.00700704
0.00387697
0.00505631
0.00352678
0.00315183
0.00297172
0.00323482
0.00268108
0.00198161
0.00189313
0.00126326
0.00165059
0.00180327
0.00158626
0.00187886
0.00144111
0.00121643
0.00119715
0.00136256
0.00147879
0.00136401
0.00115662
0.000781103
0.00128418
0.000940863
0.000941717
0.000637028
0.000814985
0.000309552
0.000604989
0.000345834
0.000429672
0.000273945
0.000273781
0.000215343
0.000208773
0.000188991
0.000240083
0.000229633
0.000188355
0.000206486
0.000213217
0.000176153
0.00015098
0.000125369
9.15075e-05
0.000117961
9.39601e-05
0.000117912
0.000145443
0.000142655
0.000173987
0.000174887
0
0
0
0
0.00684554
0.0136183
0.0218144
0.026737
0.0217094
0
0
0
0
0
0
0
0.787822
0
0
0
0
0
0
0
0
0
0
0
0.0617098
0.0909209
0
0
0
0
0.0488262
0
0
0
0
0
0
0
0.0214426
0
0
0
0
0
0
0
0
0.39032
0
0
0
0.00628871
0.00312458
0
0.00550085
0.0127965
0
0
0
0
0.00692773
0.0141219
0
0
0.0133545
0.0162028
0
0
0
0
0.00791086
0
0.00633316
0
0
0
0
0
0.0101307
0.0117113
0
0
0
0
0
0
0
0
0
0
0.00549391
0
0
0
0
0
0
0
0.0138836
0.000343927
0.000356922
0.000350967
0.000355555
0.000321919
0.000269563
0.000270068
0.000272887
0.000275368
0.000296329
0.000391207
0.000481146
0.000539497
0.000459492
0.00054747
0.000494987
0.000619221
0.000795762
0.000754376
0.00105878
0.00122604
0.000924599
0.00168398
0.00109266
0.0018111
0.00244526
0.00147111
0
0
0
0
0
0
0
0.00145807
0.000377887
0.001273
0
0
0
0
0.0196264
0
0.00454416
0
0
0.00359955
0
0
0
0
0
0.000671271
0.000440396
0.000661327
0.000535171
7.36035e-05
0.000351712
5.08451e-05
0.000436557
0.000559202
3.40841e-05
0.000197228
0.000161617
0.000140168
0.000384737
0.000302528
0.000440885
0
0
0.00637087
0.0137468
0
0
0.0139949
0.00606926
0
0
0
0
0
0
0
0.0063407
0.00139015
0.00225402
0
0
0
0.136631
0
0
0
0.00411294
0
0
0
0
0
0
0
0
0
0
0
0
0
0
0
0.0639279
0
0
0
0.00363206
0.00157831
0.00261637
0.00710728
0.00379373
0.0109707
0.00928945
0.0164332
0.0239106
0.10345
0.0436647
0.0800797
0.114366
0.014888
0.0176349
0
0
0
0
0.424628
0.324998
0.110868
0.0208144
0.0100989
0.0146123
0.00538963
0.0034473
0
0
0
0.169101
0
0
0
0
0
0
0
0.00687562
0.000330612
0.000327608
0.000345254
0.000375081
0.000386717
0.00035401
0.000390774
0.000364161
0.000390726
0.000377714
0.000404579
0.000416724
0.000404895
0.000427068
0.000122529
0.000102026
0.000142261
0.000138519
0.000170278
0.000196027
0.000259394
0.000304892
0.000136488
0.000135739
0.000145044
0.000125957
0.000127633
0.000134965
0.000596064
0.000586411
0.000471836
0.000593963
0.000783474
0.000656584
0.000461581
0.000573435
0.000390369
0.000412676
0.00043382
0.000434616
0.000428154
0.000312613
0.000378746
0.000440442
0.000339354
0.000359909
0.00035536
0.000333396
0.000276632
0.000317382
0.000216816
0.00025443
0.000179513
0.000176868
0.000104263
7.10724e-05
0.000108024
0.000133238
0.00257322
0.00230588
0.00139997
0.00100365
0.0012705
0.00150554
0.000822368
0.000655938
0.00119702
0.0021395
0.00184503
0.00411606
0.000199504
0.000200314
0.000214831
0.00021296
0.000199796
0.000194088
0.000180756
0.000158278
0.000182466
0.000184396
0.00016594
0.000177163
0.000198239
0.00020206
0.000224959
0.000228618
0.000240974
0.000242221
0.000252055
0.000254249
0.000245377
0.000188151
0.000151799
0.000262153
0.000279385
0
0.248229
0
0.688543
0
0
0
0
0.0111236
0
0
0
0
0
0
0
0.0442077
0
0.0876696
0.114475
0.0621719
0.0435227
0.0110209
0.020831
0.00758173
0.0074085
0.00742854
0.0110027
0.00613366
0.00495597
0.00343737
0.00400017
0.00343337
0.00361679
0.00221004
0.00297266
0.00195475
0.00158713
0.000754573
0.00141084
0.0018272
0.00123546
0.00110917
0.00117012
0.00124377
0.00125616
0.000947209
0.000989596
0.00119644
0.000986466
0.000906168
0.000618403
0.000866358
0.000586085
0.000419791
0.000772183
0.000565996
0.000350159
0.000296899
0.000284011
0.000221381
0.000196902
0.00021146
0.000193771
0.00022157
0.000184499
0.000193905
0.000184241
0.00014343
0.000164288
0.000115957
8.53767e-05
9.56132e-05
8.44993e-05
0.000147774
0.000126998
0.000166194
0.000193758
0.000229347
0
0
0.0950658
0.00251573
0
0
0
1.0885
0
0
0
0.0419457
0
0.129429
0.0475679
0.126765
0.0337629
0
0.113367
0.48874
0
0
0
0.00389471
0
0.00050244
0.00402242
0
0
0
0
0
0
0
0.0273744
0
0
0
0
0
0
0
0.0278048
0
0
0
0
0
0
0
0
0
0
0
0
0
0
0
0
0
0
0
0
0
0
0
0
0
0
0
0
0
0
0
0
0
0
0
0
0
0
0
0.0214066
0
0
0
0
0
0
0
0
0
0
0
0
0
0
0
0
0
0
0
0
0
0
0
0
0
0
0
0
0
0.00485621
0
0
0
0
0.000283131
0.000276164
0.000290303
0.00027022
0.000280253
0.000291533
0.000390273
0.000372306
0.00031597
0.000350538
0.000286579
0.000277726
0.00030252
0.000419432
0.000450588
0.000475681
0.00060909
0.000746995
0.000652291
0.000477113
0.000728501
0.000536098
0.00121183
0.000820526
0.00170664
0.00136246
0.00164795
0.00235923
0.00151178
0
0
0
0.00829626
0.000574856
0.000785337
0.00243946
0
0
0.00487325
0.17157
0
0
0
0.0123879
0
0
0
0.00924485
0
0.00903347
0
0
0
0.000669131
0.000543557
0.000402289
0.000348179
0.000710772
0.000898531
0.000114994
0.000582888
0.000209036
0.00069058
0.00056599
0.00035318
0.000189042
0.000425992
0.000395119
0.000662581
0
0.00394243
0
0
0
0
0
0.000794868
0
0
0.00584976
0
0
0
0
0
0
0
0
0.000703752
0
0
0
0
0
0
0
0
0
0
0
0
0
0
0
0
0
0
0.00400781
0.0198667
0
0
0
0.056207
0.0619996
0
0
0
0
0
0
0
0
0
0
0
0
0.00277075
0.00368274
0.00240029
0.00364211
0.00989434
0.0127188
0.0308662
0.0472562
0.032112
0.0444391
0.0344092
1.50276
0
0
0
0.0389498
0.0285185
0
0
0
0
0.0123505
0.00581663
0.012439
0.869802
0
0.0524846
0
0.0118746
0
0
0
0
0.00164591
0.00421251
0
0
0
0
0
0
0.00038436
0.000357062
0.000425858
0.000413037
0.000441935
0.000427146
0.000433483
0.000413532
0.000426895
0.000410376
0.000443151
0.000453758
0.00042241
0.000160053
0.000152023
0.000188074
0.000169888
0.000236471
0.00020818
0.000331379
0.000292584
8.78513e-05
9.98723e-05
0.00014149
8.59774e-05
0.000115116
0.000188202
0.000488274
0.000521538
0.00043047
0.000513433
0.00052481
0.000645589
0.000489495
0.000445971
0.000378917
0.000427283
0.00037937
0.000384042
0.000374604
0.000335219
0.000421667
0.000414172
0.000340725
0.000354861
0.000339284
0.000326281
0.000273786
0.000289337
0.000233377
0.000235912
0.000188042
0.000166785
4.69639e-05
9.42536e-05
0.000136533
0.000107611
0.00164697
0.00197959
0.000681409
0.000795555
0.000440275
0.000668652
0.000713558
0.000631282
0.0020717
0.000492717
0.00237288
0.00332968
0.00758851
0.00190674
0.00231184
0.000187434
0.000204206
0.000183293
0.000195657
0.000173699
0.000173444
0.000166416
0.000162652
0.000183719
0.00016878
0.000162766
0.000205592
0.000218564
0.00019817
0.000224294
0.00021557
0.00022987
0.000220039
0.000222429
0.000227534
0.000228422
0.000258069
0.000171741
0.00020427
0.000275007
0.00024708
0
0
0
0
0
0.00788965
0.0174832
0
0
0
0
0.0014299
0.000406526
0
0
0
0
0
0.0308294
0.0593633
0
0.016969
0.0137165
0.011807
0.0173334
0.00748429
0.00609475
0.0121705
0.00351017
0.0044502
0.00348248
0.00350328
0.00257059
0.00321964
0.0021173
0.00162405
0.00164912
0.00173672
0.000983077
0.000874266
0.00139632
0.000738365
0.00086852
0.00085706
0.000915709
0.000963935
0.000777446
0.00081469
0.000751913
0.000534998
0.000465014
0.000712717
0.000432015
0.000570801
0.000329427
0.000532026
0.000361108
0.00028599
0.000275395
0.000222823
0.00020312
0.000196423
0.000200271
0.000190527
0.000172356
0.00017293
0.000140789
0.000146149
0.000112297
9.29173e-05
9.19814e-05
8.01595e-05
0.000136575
0.000139839
0.000198286
0.000196116
0.000212362
0.000215732
0
0
0.0173527
0
0
0
0
0.0389435
0
0.00383734
0
0
0
0.0118106
0.0471898
0.052234
0.123532
0.120697
0.0746869
0
0
0
0
0.00880461
0
0
0
0
0
0
0
0.0159906
0
0
0
0.035226
0
0
0
0.0170048
0
0
0
0
0
0
0
0
0
0
0.0120661
0
0
0
0
0
0
0
0.0108082
0
0
0
0
0
0.00373579
0.000507196
0.00458858
0
0
0
0
0
0.0515241
0.0245213
0
0
0
0
0
0
0
0
0
0
0
0
0
0
0
0
0
0
0
0
0
0
0
0
0
0
0
0
0
0
0
0
0.00631796
0
0
0
0.00187928
0
0
0.00121844
0.0837776
0
0.000287073
0.000275878
0.00025124
0.000302346
0.000302123
0.000302526
0.000308236
0.000384836
0.000375629
0.000323518
0.000319594
0.000315219
0.000295167
0.000312751
0.000453238
0.000425891
0.000432602
0.000457079
0.000456415
0.000280933
0.000607054
0.00064525
0.00026992
0.00060182
0.000751471
0.000422596
0.000900846
0.00061935
0.00120642
0.0016518
0.00180234
0.00178872
0.00145999
0
0
0.00298481
0.00079046
0.00239349
0
0
0.00164781
0.0065451
0
0
0
0.762086
0
0
0
0
0.0190772
0
0
0
0
0
0
0.000139674
0.000637895
0.000213293
0.0007701
0.000595305
0.000922833
0.000538222
0.000480841
0.000597689
0.000635343
0.000373914
0.000375698
0.000602221
0
0
0
0
0
0
0.00536258
0.00462446
0
0
0.0111151
0
0
0
0
0
0
0.901456
0
0
0
0
0
0
0
0
0
0
0.0482768
0
0
0
0
0
0
0
0
0
0
0
0
0
0
0
0
0
0.0194635
0
0
0
0
0.0162469
0
0
0
0
0
0
0
0
0
0
0
0.00390574
0.00333219
0.00887867
0.0168453
0.00601045
0.0178978
0.0183618
0.0322386
0.0109008
0.0367697
0.0658894
0
0
0
0
0
0
0
0
0
0
0
0
0.0355606
0.00350168
0
0
0
0.0220565
0.00731896
0.00441732
0
0
0
0.00486864
0.0202812
0
0
0
0
0
0.00810673
0
0.000407988
0.000400336
0.000470533
0.000467016
0.000485819
0.000481186
0.000439171
0.000457547
0.000435172
0.000432956
0.000441545
0.000449921
0.000435308
0.000447169
0.000192084
0.000231569
0.000240243
0.000252913
0.000277554
0.000305914
0.000383726
0.000346603
5.86893e-05
5.73164e-05
5.16407e-05
0.000130604
0.000141851
0.000216677
0.000357312
0.000445601
0.000359562
0.000537352
0.000485761
0.00052362
0.000405484
0.00043711
0.000411436
0.000380425
0.000324405
0.000386706
0.000375146
0.000376678
0.000456071
0.000428766
0.000341257
0.000371754
0.000321185
0.000323583
0.000259003
0.000284584
0.000208797
0.000232766
0.000173764
0.000145821
4.85903e-05
9.5291e-05
9.69598e-05
0.000115407
0.00120565
0.00119233
0.000503339
0.000393845
0.000321842
0.000527839
0.000573768
0.000366404
0.000684543
0.00151182
0.000699683
0.000302458
0.00176853
0.000852562
0.000200949
0.000182569
0.000197571
0.000183742
0.000159938
0.000195172
0.000179333
0.000208407
0.00019362
0.000192572
0.000213394
0.000209877
0.000208186
0.000200864
0.000212665
0.000213903
0.000206523
0.00021148
0.00022606
0.000225026
0.000244824
0.000203439
0.000218036
0.000225021
0.000242134
0
0.00652384
0
0
0
0
0
0
0
0.0078078
0
0
0
0
0
0
0.0158186
0
0
0.0223946
0
0.0157541
0.0113454
0.0130094
0.0221391
0.00799319
0.00703659
0.00459707
0.00275952
0.00395907
0.00314454
0.00413683
0.00167352
0.00243911
0.001494
0.00150526
0.00145339
0.0012009
0.000732191
0.000661323
0.000992427
0.000653509
0.000616478
0.000707476
0.000483893
0.000676985
0.000678753
0.000534675
0.000491587
0.000363625
0.000496394
0.00029805
0.000485497
0.000296413
0.00032963
0.000241588
0.000230541
0.000300697
0.000178012
0.000222753
0.000179117
0.000181875
0.000146578
0.000158002
0.000114327
0.000128536
9.39373e-05
9.2996e-05
7.44563e-05
8.99184e-05
0.000117167
0.000121513
0.000158846
0.000173597
0.000205362
0.00017362
0.000178212
0.000198794
0
0
0.0140592
0
0
0
0
0
0
0
0
0
0
0
0
0
0
0.07946
0
0
0.0419052
0.0733335
0
0
0.00287823
0
0
0
0
0
0.00279576
0
0
0
0
0
0
0
0
0
0
0
0
0
0
0
0.0102058
0.0150425
0.0118155
0
0
0
0
0.00545711
0
0
0.0076897
0
0
0
0
0.0176297
0
0
0.0097294
0
0
0
0.0412794
0
0
0
0
0
0
0
0
0
0
0
0
0
0
0
0
0
0
0
0
0
0
0
0
0
0
0
0
0
0
0
0
0
0
0
0
0
0
0
0
0
0
0
0
0
0
0
0
0.00319702
0
0
0
0
0
0
0.00022062
0.000253175
0.000240481
0.000300754
0.000306859
0.000303679
0.000276556
0.000294014
0.000297929
0.000389299
0.000362538
0.000335055
0.000327381
0.000314682
0.000299041
0.000301625
0.000319126
0.000457447
0.000421005
0.000458067