/*--------------------------------*- C++ -*----------------------------------*\
  =========                 |
  \\      /  F ield         | OpenFOAM: The Open Source CFD Toolbox
   \\    /   O peration     | Website:  https://openfoam.org
    \\  /    A nd           | Version:  8
     \\/     M anipulation  |
\*---------------------------------------------------------------------------*/
FoamFile
{
    version     2.0;
    format      ascii;
    class       volScalarField;
    location    "1500";
    object      Hclip;
}
// * * * * * * * * * * * * * * * * * * * * * * * * * * * * * * * * * * * * * //

dimensions      [0 1 0 0 0 0 0];

internalField   nonuniform List<scalar> 
526318
(
0.964297
0.922732
0.995544
0.906626
0.97912
0.933224
0.950049
0.868011
0.927774
0.807435
0.784324
0.907242
0.850937
0.893101
0.85332
0.878401
0.851327
1.05104
0.957955
1.00436
0.997876
0.954395
0.714048
0.956759
0.839607
0.704373
0.977593
0.977475
0.978467
0.991851
1.02057
1.06638
1.04979
0.92956
0.929545
0.89587
0.907489
0.997161
0.919335
0.874425
0.930657
0.903341
0.569613
0.620131
0.52296
0.574138
0.546546
0.673751
0.854395
0.748044
0.837839
0.834974
0.78987
0.749713
0.247677
0.492641
0.490679
0.286219
1.00718
1.02049
1.03934
0.99121
0.939233
1.06646
1.06087
1.02006
1.00626
1.00708
0.907689
0.899794
1.01682
0.795334
0.850086
0.739825
0.697869
0.685912
0.786694
0.780119
0.695543
0.734417
0.817212
0.814849
0.7685
0.727196
0.755676
0.81941
0.823412
0.796049
0.749674
0.818914
0.727174
0.672115
0.668978
0.600097
0.598745
0.598989
0.601531
0.595826
0.595606
0.592368
0.0267889
0.001
0.063229
0.101189
0.160435
0.001
0.506987
0.318247
0.63133
0.595097
0.63761
0.753015
0.977425
0.869258
0.979695
0.992061
1.05784
1.02951
1.07473
0.592584
0.588947
0.591597
0.597782
0.55256
0.588491
0.49972
0.545226
0.453834
0.500781
0.449506
0.452758
0.441423
0.414671
0.408241
0.433166
0.3767
0.430782
0.379189
0.397906
0.343103
0.349054
0.368541
0.399031
0.383536
0.340835
0.341047
0.356126
0.345217
0.340635
0.348787
0.361821
0.348596
0.35224
0.352333
0.352429
0.317374
0.350577
0.350224
0.318899
0.275781
0.349085
0.299639
0.356026
0.862276
0.953978
0.899219
0.884221
0.689316
0.754957
0.686186
0.687908
0.687632
0.684988
0.705966
0.688324
0.622392
0.590451
0.556165
0.499952
0.558988
0.597644
0.600755
0.597892
0.483687
0.539242
0.424849
0.430522
0.439204
0.432635
0.431493
0.436605
0.422601
0.426198
0.421115
0.41015
0.39354
0.416129
0.408249
0.380588
0.358129
0.385358
0.365512
0.357773
0.377866
0.366702
0.371635
0.333043
0.349811
0.380748
0.384016
0.847064
0.856138
0.885797
0.86584
0.843448
0.847795
0.842949
0.722125
0.760787
0.511294
0.490435
0.484447
0.610507
0.747118
0.615413
0.653325
0.657697
0.599665
0.585461
0.0942325
0.001
0.23458
0.425727
0.001
0.001
0.00100169
0.001
0.001
0.001
1.05933
1.03883
1.08883
1.08037
1.04965
1.03837
0.946595
1.03476
0.878297
0.820972
0.822221
0.821631
0.820739
0.822123
0.809726
0.806661
0.727101
0.787126
0.608617
0.660997
0.593418
0.602994
0.001
0.001
0.001
0.001
0.0671903
0.016892
0.0730719
0.2252
0.603578
0.417308
0.650802
0.655137
0.766409
0.864646
0.989371
0.990549
1.02895
1.00528
1.07254
1.10326
0.572645
0.568871
0.528649
0.503566
0.399995
0.434458
0.361408
0.368981
0.358934
0.354307
0.342484
0.347645
0.272396
0.29061
0.328603
0.365003
0.413133
0.38265
0.342425
0.344442
0.277675
0.270084
0.322614
0.376082
0.299864
0.340249
0.341381
0.309783
0.305368
0.274342
0.270825
0.230759
0.232672
0.236355
0.224983
0.343958
0.376297
0.342269
0.381505
0.757644
0.720499
0.614515
0.705154
0.623527
0.677897
0.686306
0.675954
0.684726
0.687451
0.598478
0.509696
0.43813
0.422778
0.496508
0.440554
0.422436
0.540262
0.429694
0.474424
0.416894
0.411926
0.420771
0.414792
0.42512
0.422396
0.419771
0.421473
0.420952
0.420087
0.429171
0.42448
0.435935
0.433558
0.434753
0.413703
0.423998
0.407564
0.379915
0.383348
0.407885
0.434598
0.431029
0.404792
0.387672
0.414564
0.451388
0.454945
0.465912
0.42387
0.458616
0.476354
0.516508
0.464918
0.470515
0.499046
0.528144
0.666705
0.741202
0.66369
0.702288
0.765462
0.830209
0.74862
0.606571
0.724929
0.626252
0.637785
0.381161
0.321861
0.357946
0.337693
0.458564
0.578308
0.507391
0.575618
0.580535
0.594156
0.585341
0.001
0.00191999
0.14637
0.001
0.234393
0.122968
0.001
0.00133807
0.001
0.00100962
0.001
0.00100889
0.001
0.001
0.001
0.001
1.08367
1.072
1.10974
1.09753
1.07753
1.04605
0.974347
0.886656
0.820362
0.833939
0.810961
0.809396
0.78886
0.789927
0.768253
0.769601
0.720726
0.760829
0.683452
0.630434
0.571305
0.532967
0.001
0.00121693
0.00100124
0.001
0.001
0.001
0.001
0.001
0.00124081
0.00119371
0.001
0.00100984
0.001
0.00100942
0.00136291
0.001
0.001
0.001
0.00109046
0.001
0.001
0.001
0.140085
0.112574
0.308335
0.154573
0.519379
0.674923
0.693257
0.779923
0.999435
0.897553
1.01625
1.01437
1.02917
1.05944
1.09156
1.10836
0.488254
0.491332
0.44476
0.468407
0.406856
0.372644
0.361277
0.359742
0.354811
0.358904
0.310599
0.305756
0.251072
0.258702
0.316614
0.284342
0.259912
0.305494
0.298322
0.318754
0.233582
0.221733
0.245647
0.258745
0.261932
0.217334
0.222271
0.216617
0.222327
0.20403
0.20262
0.495074
0.47314
0.474501
0.469469
0.493308
0.602353
0.556261
0.53362
0.420717
0.462941
0.450459
0.45125
0.350838
0.291283
0.483091
0.596483
0.480918
0.489612
0.466847
0.55243
0.529079
0.602759
0.63444
0.560086
0.539568
0.575344
0.451494
0.421259
0.423518
0.420396
0.335824
0.394852
0.319258
0.272618
0.24472
0.362823
0.367509
0.410469
0.41049
0.413493
0.411892
0.411943
0.416248
0.41304
0.423834
0.416653
0.43492
0.428201
0.434387
0.434915
0.456041
0.441426
0.466951
0.467386
0.417359
0.402199
0.464995
0.450591
0.434967
0.457034
0.439232
0.423021
0.476148
0.451973
0.554232
0.566979
0.513905
0.559495
0.565601
0.532237
0.626817
0.596697
0.660364
0.686095
0.707283
0.638023
0.640514
0.64653
0.606181
0.580596
0.553719
0.640047
0.493813
0.469143
0.529801
0.538556
0.223064
0.271586
0.349507
0.475562
0.504439
0.541647
0.44381
0.41333
0.370119
0.326137
0.001
0.001
0.0440081
0.001
0.150688
0.219096
0.001
0.001
0.00100979
0.001
0.001
0.001
0.001
0.001
0.001
0.001
0.001
0.001
0.001
0.001
0.001
0.00101005
0.001
0.001
0.001
0.001
0.00117687
0.001
0.001
0.00117634
0.00117639
0.00117646
0.001
0.001
0.001
0.001
0.001
0.001
0.001
0.001
0.00100959
0.001
0.00100822
0.00100502
0.001
0.001
1.07544
1.08851
1.10964
1.09678
1.07716
1.00095
0.821287
0.909069
0.7885
0.793529
0.770839
0.768401
0.760961
0.762338
0.756366
0.75571
0.699026
0.67263
0.574713
0.612702
0.471082
0.508352
0.001
0.001
0.001
0.001
0.001
0.001
0.001
0.001
0.001
0.001
0.001
0.001
0.001
0.001
0.001
0.001
0.001
0.00100737
0.001
0.001
0.001
0.001
0.001
0.001
0.00139482
0.001
0.001
0.001
0.001
0.001
0.177813
0.001
0.197228
0.193425
0.491323
0.32645
0.697481
0.661802
0.727121
0.828511
0.937594
1.0137
1.02744
1.01582
1.05819
1.08773
1.07334
1.0736
0.00101
0.001
0.001
0.001
0.001
0.001
0.001
0.001
0.001
0.001
0.001
0.001
0.001
0.001
0.001
0.00109734
0.001
0.468452
0.470906
0.468448
0.436317
0.355767
0.388345
0.31461
0.304062
0.270606
0.263304
0.218329
0.21726
0.241113
0.243172
0.201748
0.231798
0.228438
0.270315
0.255281
0.25639
0.180185
0.155873
0.153768
0.192459
0.208205
0.207324
0.182549
0.18748
0.146941
0.136515
0.0987523
0.101926
0.693172
0.666009
0.70068
0.71241
0.661421
0.618039
0.787135
0.806646
0.870178
0.881983
0.431019
0.465998
0.51744
0.606893
0.427618
0.375167
0.407723
0.41066
0.249928
0.302478
0.363126
0.254382
0.467198
0.467266
0.467314
0.46809
0.488896
0.465852
0.480199
0.495905
0.375397
0.367317
0.267829
0.350182
0.341874
0.305882
0.249041
0.277815
0.219065
0.234855
0.207231
0.295437
0.357216
0.294991
0.360158
0.409165
0.408858
0.410914
0.411943
0.414254
0.433989
0.427511
0.443892
0.438963
0.457873
0.451382
0.472176
0.472042
0.47208
0.472161
0.479402
0.47567
0.515716
0.485793
0.452981
0.453379
0.519128
0.487773
0.492034
0.534679
0.57565
0.574405
0.57752
0.575067
0.606068
0.661169
0.720774
0.740894
0.748819
0.726276
0.870248
0.806272
0.933829
0.974406
0.96852
1.00504
1.06345
0.92513
1.01149
1.03786
1.10776
1.15658
1.18473
1.20253
1.23338
1.17822
1.23331
1.18958
1.27017
1.27161
1.31999
1.28783
1.34922
1.38008
1.36926
1.31843
1.38097
1.40599
1.37263
1.3699
1.43183
1.41143
1.44295
1.38331
1.38384
1.44479
1.41553
1.36788
1.36833
1.40041
1.43013
0.440408
0.41207
0.579664
0.572774
0.544563
0.540704
0.537926
0.301546
0.437984
0.137248
0.172865
0.268815
0.262874
0.127869
0.220399
0.196089
0.379094
0.280796
0.270525
0.189994
0.181515
0.198583
0.213167
0.001
0.00108163
0.015726
0.001
0.0123881
0.001
0.00102437
0.001
0.001
0.001
0.001
0.00118475
0.001
0.001
0.001
0.001
0.001
0.001
0.001
0.001
0.00110397
0.001
0.001
0.001
0.001
0.001
0.001
0.001
0.001
0.001
0.00100231
0.001
0.001
0.001
0.001
0.001
0.001
0.001
0.001
0.00101363
0.001
0.001
0.0013606
0.001
0.00107156
0.001
0.001
0.00123242
0.00119285
0.001
0.0012317
0.00123118
0.001
0.001
0.00103621
0.001
0.001
0.001
0.001
0.001
0.00100744
0.001
0.001
0.001
0.001
0.001
0.001
0.001
0.001
0.00143658
0.001
0.001
1.06608
1.05326
1.02643
1.02632
0.940907
1.01464
0.837245
0.771367
0.762645
0.760748
0.760856
0.762567
0.699763
0.706132
0.551602
0.509484
0.470198
0.643925
0.642529
0.593242
0.591989
0.590481
0.001
0.001
0.00135214
0.00135167
0.001
0.001
0.001
0.001
0.001
0.00107346
0.001
0.00100893
0.001
0.001
0.001
0.001
0.001
0.001
0.001
0.001
0.001
0.001
0.00109593
0.00109599
0.001
0.001
0.0393163
0.199404
0.323772
0.195631
0.490264
0.657591
0.691358
0.716269
0.801375
0.912215
0.978479
0.956943
0.999465
0.93569
0.986274
1.02494
0.982396
0.977923
0.0012618
0.001
0.00112306
0.001
0.001
0.00121142
0.001
0.001
0.00121149
0.001
0.001
0.001
0.001
0.001
0.001
0.001
0.001
0.001
0.001
0.001
0.001
0.001
0.001
0.001
0.00138277
0.001
0.445198
0.442434
0.365446
0.378954
0.259621
0.277031
0.216162
0.219579
0.216395
0.215352
0.189194
0.188988
0.15388
0.157414
0.135109
0.170178
0.244945
0.213583
0.24682
0.246632
0.0729196
0.0900033
0.13116
0.113984
0.129007
0.131461
0.0764991
0.0714491
0.0551415
0.0648247
0.0705906
0.0729055
0.915097
0.915965
0.743962
0.663131
0.648702
0.631716
0.912105
0.826642
1.07304
1.14727
1.04478
0.966814
1.15869
1.14225
1.20779
1.25618
1.28713
1.28763
1.31503
1.2893
1.34403
1.36889
1.36508
1.36473
1.38215
1.36754
1.36708
1.41265
1.35846
1.35301
0.47475
0.404385
0.548418
0.622525
0.405949
0.357259
0.407285
0.406668
0.235642
0.29281
0.135553
0.302368
0.195864
0.465961
0.409659
0.468051
0.460478
0.466809
0.360666
0.262989
0.182334
0.171869
0.183214
0.219309
0.145808
0.133144
0.0635347
0.136364
0.227304
0.210102
0.144659
0.236208
0.303729
0.254479
0.356394
0.305906
0.346404
0.40009
0.436718
0.4141
0.447352
0.447744
0.459345
0.44751
0.48051
0.49161
0.489579
0.501644
0.50576
0.509969
0.540653
0.554681
0.545712
0.536867
0.543406
0.534134
0.552826
0.570038
0.615966
0.607886
0.574602
0.607604
0.604059
0.63562
0.664035
0.728182
0.759744
0.757925
0.769371
0.840916
0.921902
0.99848
1.00943
1.13487
1.0111
1.05901
1.20992
1.23356
1.23512
1.27182
1.31968
1.3695
1.37755
1.38184
1.40731
1.43723
1.46182
1.46481
1.46627
1.46207
1.46262
1.44875
1.38189
1.4461
1.41687
1.36894
1.36941
1.40335
1.4345
1.44577
1.37143
1.43324
1.39229
0.23889
0.22318
0.297942
0.370604
0.262633
0.330076
0.464854
0.400589
0.429798
0.266083
0.165423
0.13506
0.132373
0.227698
0.226696
0.001
0.00207614
0.187246
0.0643521
0.171351
0.189597
0.188054
0.184935
0.198983
0.209696
0.001
0.001
0.001
0.001
0.00132709
0.00131628
0.001
0.001
0.001
0.00118442
0.001
0.001
0.001
0.001
0.001
0.00109046
0.001
0.00110337
0.001
0.001
0.001
0.001
0.001
0.001
0.00100779
0.001
0.001
0.001
0.001
0.001
0.00122363
0.001
0.00119494
0.001
0.001
0.001
0.001
0.001
0.001
0.0010237
0.001
0.001
0.001
0.001
0.001
0.001
0.001
0.00155093
0.001
0.00106985
0.001
0.00110772
0.001
0.001
0.001
0.001
0.001
0.001
0.001
0.001
0.976365
0.973565
0.956793
0.96253
0.890643
0.954565
0.762376
0.825862
0.722313
0.722216
0.666082
0.649496
0.592946
0.594047
0.508092
0.40313
0.38154
0.548175
0.593643
0.594242
0.592414
0.592038
0.00135219
0.001
0.00135245
0.001
0.001
0.001
0.001
0.001
0.00103375
0.001
0.001
0.001
0.00101983
0.00102203
0.001
0.00100999
0.001
0.001
0.001
0.001
0.001
0.001
0.001
0.00107485
0.001
0.00854837
0.159962
0.193395
0.389662
0.219219
0.528576
0.66206
0.637949
0.744496
0.912099
0.81593
0.891655
0.89114
0.884672
0.911142
0.96985
0.963448
0.967884
0.94219
0.001
0.001
0.001
0.001
0.001
0.001
0.001
0.001
0.001
0.001
0.001
0.001
0.001
0.001
0.00102133
0.001
0.001
0.001
0.001
0.00107103
0.001
0.00107136
0.001
0.001
0.00104121
0.001
0.001
0.001
0.001
0.001
0.001
0.320511
0.316959
0.279125
0.263458
0.220494
0.236585
0.201545
0.20667
0.363078
0.302148
0.284258
0.134109
0.139567
0.0708667
0.075143
0.128755
0.134492
0.123823
0.161217
0.225675
0.179609
0.208705
0.19689
0.0912652
0.0721056
0.0855265
0.104046
0.0386623
0.0378041
0.0368692
0.0475803
0.0626006
0.05017
0.0140191
0.0202867
1.4869
1.49635
1.52699
1.50196
1.54684
1.53318
1.55854
1.54905
1.60648
1.59271
1.55767
1.60945
1.57508
1.62821
1.45881
1.41256
1.432
1.48099
1.45918
1.4317
1.43218
1.48459
1.48803
1.46445
1.4468
1.49525
1.4814
1.48706
1.51214
1.36716
1.36661
1.36787
1.36676
1.3876
1.40974
0.961578
0.905549
0.802739
0.710933
0.617779
0.698401
0.896379
0.878425
1.11787
1.14224
1.02685
1.112
1.15018
1.19536
1.24525
1.28503
1.28574
1.28353
1.2836
1.31027
1.32544
1.34957
1.33761
1.34133
1.34416
1.35419
1.33119
1.3327
0.525044
0.455549
0.399413
0.387886
0.447273
0.620012
0.60211
0.332962
0.385587
0.256978
0.190215
1.47685
1.49732
1.5123
1.51732
1.52322
1.53247
1.53621
1.56367
1.54843
1.56888
1.56684
1.6188
1.63962
1.66205
1.66221
1.666
1.67854
1.70417
0.183114
0.130311
0.124377
0.392334
0.280259
0.451706
0.352003
0.272014
0.170077
0.175561
0.170323
0.17115
0.001
0.0973693
0.001
0.001
0.0341303
0.001
0.232875
0.156408
0.0579705
0.250429
0.253704
0.251724
0.306221
0.263912
0.389596
0.337009
0.422793
0.387621
0.421881
0.448902
0.470036
0.494506
0.514979
0.514084
0.523209
0.515306
0.574727
0.559576
0.555149
0.554966
0.604518
0.581711
0.65133
0.610444
0.591062
0.636648
0.678628
0.671298
0.688868
0.724121
0.726895
0.672114
0.779777
0.809693
0.779726
0.771301
0.851432
0.938678
1.00826
1.07449
1.02396
1.0393
1.16977
1.22737
1.27245
1.25307
1.31625
1.34876
1.38795
1.402
1.39542
1.4161
1.47484
1.4548
1.46929
1.47654
1.46737
1.46836
1.46864
1.46519
1.46807
1.46616
1.46712
0.224072
0.21507
0.234672
0.151207
0.170103
0.194
0.122505
0.269097
0.172586
0.108384
0.127131
0.100781
0.00781451
0.111042
0.129951
0.001
0.001
0.001
0.00115342
0.178458
0.0690105
0.0836116
0.0805543
0.001
0.001
0.001
0.001
0.001
0.00109633
0.00109084
0.00132485
0.001
0.00109927
0.001
0.001
0.001
0.001
0.001
0.001
0.001
0.00100984
0.001
0.00109816
0.001
0.001
0.001
0.001
0.001
0.001
0.001
0.001
0.00231724
0.001
0.00101
0.001
0.001
0.001
0.001
0.00100993
0.001
0.00102421
0.001
0.001
0.001
0.00117545
0.001
0.001
0.001
0.001
0.00117276
0.001
0.001
0.001
0.001
0.001
0.001
0.001
0.001
0.00112625
0.001
0.001
0.001
0.001
0.001
0.001
0.001
0.001
0.001
0.001
0.0016797
0.001
0.001
0.001
0.001
0.00168286
1.65687
1.62223
1.59796
1.69704
1.73331
1.72506
0.955527
0.954231
0.942619
0.939552
0.864701
0.926331
0.757509
0.682729
0.610732
0.623787
0.594701
0.59305
0.592563
0.594567
0.470489
0.388562
0.478397
0.557905
0.556437
0.001
0.001
0.001
0.001
0.001
0.001
0.001
0.001
0.001
0.001
0.00100943
0.00102552
0.001
0.159184
0.191438
0.219388
0.00100998
0.001
0.001
0.001
0.001
0.001
0.001
0.001
0.001
0.001
0.001
0.36143
0.502822
0.614821
0.616172
0.933649
0.854259
0.86846
0.655524
0.742041
0.832686
0.883864
0.884712
0.883475
0.90256
0.929793
0.923728
0.001
0.00109361
0.001
0.001
0.001
0.001
0.00100904
0.001
0.001
0.001
0.001
0.001
0.001
0.00114877
0.001
0.001
0.001
0.00113331
0.001
0.0011436
0.001
0.001
0.001
0.001
0.001
0.001
0.001
0.001
0.001
0.001
0.00119904
0.001
0.001
0.001
0.001
0.00101
0.001009
0.318344
0.354524
0.340808
0.285302
0.279587
0.257397
0.271955
0.14581
0.168666
0.077831
0.0832363
0.286379
0.278875
0.035395
0.0331809
0.0360945
0.0397616
0.0784273
0.0655858
0.0924162
0.0460996
0.174246
0.119197
0.172102
0.174624
0.001
0.001
0.001
0.0189037
0.00875249
0.00793087
0.001
0.001
0.001
0.001
0.001
0.001
1.4876
1.50105
1.52444
1.54824
1.5582
1.5556
1.59705
1.57074
1.42539
1.4238
1.40816
1.42767
1.45932
1.42342
1.46316
1.44172
1.35308
1.3418
1.34095
1.37187
1.40285
1.37677
0.966118
0.88784
0.783897
0.872728
0.722467
0.629536
0.883717
0.885087
1.1238
1.13074
1.14278
1.03868
1.11782
1.22941
1.17659
1.11881
1.16414
1.26231
1.27346
1.26609
1.26929
1.27917
1.29908
1.32715
1.3188
1.32917
1.32899
1.32936
1.32901
1.32978
1.33021
0.372503
0.37344
0.513184
0.595426
0.37336
0.457337
0.615208
0.627896
0.365421
0.313141
0.223464
0.290025
1.50606
1.46609
1.48472
1.52921
1.52748
1.52858
1.53828
1.56137
1.58195
1.59302
1.59562
1.60172
1.62141
1.66074
1.64517
1.65899
1.6796
1.72777
1.70034
1.53592
1.5468
1.56208
1.73018
1.73179
1.7338
0.133912
0.129769
0.137937
0.10623
0.20133
0.216983
0.0148642
0.0548539
0.0909383
0.001
0.0166549
0.0211087
0.001
0.00146544
0.001
0.00146469
0.001
0.00412125
0.109191
0.0361275
0.031495
0.178967
0.252801
0.170432
0.326223
0.353689
0.284953
0.325862
0.387555
0.352611
0.47917
0.41999
0.489975
0.505239
0.513401
0.502577
0.551143
0.592265
0.627425
0.629552
0.636235
0.621322
0.648226
0.62869
0.676791
0.683009
0.705442
0.705078
0.678767
0.68311
0.800394
0.846553
0.744861
0.810177
0.857495
0.819441
0.919707
0.965447
1.06217
1.10186
1.07737
1.17085
1.22458
1.32586
1.3113
1.36975
1.34262
1.43517
1.44261
1.43538
1.46327
1.49338
1.49294
1.5504
1.51563
1.54318
1.50613
1.50471
1.54036
1.4711
1.50742
1.4703
0.001
0.001
0.001
0.001
0.147347
0.133241
0.126809
0.110118
0.123902
0.001
0.001
0.001
0.001
0.001
0.001
0.001
0.00398486
0.001
0.001
0.001
0.001
0.001
0.001
0.001
0.001
0.001
0.001
0.001
0.00109838
0.00109642
0.001
0.001
0.001
0.001
0.0010447
0.001
0.0010004
0.001
0.001
0.001
0.001
0.001
0.00115972
0.001
0.001
0.001
0.001
0.001
0.001
0.001
0.001
0.00207818
0.001
0.001
0.001
0.00139316
0.0010866
0.001
0.0010348
0.00103391
0.001
0.001
0.001
0.001
0.00117507
0.00117493
0.001
0.001
0.00117274
0.00117355
0.001
0.001
0.001
0.001
0.00117349
0.001
0.00117314
0.001
0.001
0.001
0.001
0.00100269
0.00104961
0.00104913
0.001
0.001
0.001
0.001
0.001
0.001
0.001
0.001
0.001
0.001
0.00108562
0.001
0.00100958
0.00100998
0.001
0.001
0.001
0.001
0.00102057
1.6175
1.62822
1.62947
1.62929
1.66499
1.77345
1.7496
1.74915
1.77542
1.7141
0.861651
0.85338
0.788236
0.787593
0.749093
0.774499
0.685575
0.645119
0.626956
0.595786
0.570457
0.567476
0.479223
0.487722
0.358737
0.399771
0.399755
0.001
0.001
0.001
0.00101
0.001
0.001
0.001
0.19431
0.33003
0.192689
0.001
0.001
0.001
0.001
0.0590863
0.001
0.00101602
0.001
0.001
0.00102468
0.001
0.001
0.001
0.001
0.001
0.730273
0.729777
0.774813
0.474975
0.613906
0.614362
0.649002
0.774202
0.843882
0.805009
0.715023
0.79561
0.823858
0.827623
0.746242
0.775484
0.001
0.001
0.00109469
0.00108174
0.001
0.001
0.00108347
0.00130902
0.001
0.001
0.001
0.001
0.001
0.001
0.001
0.00290984
0.00291341
0.00291366
0.001
0.001
0.001
0.00110979
0.001
0.001
0.001
0.00117242
0.001
0.001
0.001
0.001
0.001
0.001
0.00100048
0.001
0.001
0.001
0.001
0.00100072
0.00100073
0.001
0.001
0.00106624
0.001
0.001
0.001
0.336527
0.346646
0.358138
0.22528
0.242725
0.206853
0.201057
0.128473
0.122147
0.0379451
0.046772
0.0358626
0.034749
0.136629
0.134827
0.001
0.001
0.001
0.001
0.0101299
0.00877593
0.0266597
0.0807356
0.162926
0.12364
0.20298
0.151179
0.001
0.001
0.00100092
0.00718232
0.001
0.001
0.001
0.001
0.00101
0.001
0.001
0.00141229
1.49258
1.44629
1.52554
1.48421
1.49443
1.54183
1.53166
1.58523
1.5611
1.60913
1.57751
1.54578
1.60894
1.57537
1.38954
1.38905
1.38023
1.39381
1.40733
1.41744
1.41754
1.42269
1.32757
1.32841
1.35045
1.33628
1.36712
1.37444
0.967383
0.889729
0.808745
0.885216
0.679498
0.775622
0.884735
0.892119
1.11591
1.11976
1.11845
1.04563
1.20589
1.25562
1.16817
1.1157
1.26014
1.25897
1.27133
1.25886
1.29588
1.31487
1.32667
1.32414
1.32611
1.32494
1.33012
1.32944
1.32843
1.32575
0.368615
0.365686
0.529627
0.612247
0.511661
0.431291
0.666532
0.609164
0.343877
0.366737
0.344458
0.248257
1.50556
1.54226
1.5245
1.54998
1.56897
1.55748
1.59342
1.60499
1.58168
1.59284
1.58593
1.59601
1.5971
1.62249
1.64289
1.65879
1.66021
1.71421
1.68734
1.7413
1.7437
1.61621
1.63122
1.74574
1.75681
0.001
0.0235119
0.001
0.00434183
0.001
0.001
0.001
0.001
0.00106645
0.001
0.001
0.001
0.001
0.001
0.001
0.001
0.0333024
0.001
0.041247
0.0400273
0.0321651
0.106725
0.250505
0.154691
0.342523
0.341523
0.308681
0.256244
0.377359
0.421379
0.478578
0.464448
0.488749
0.476629
0.596956
0.543412
0.64553
0.638226
0.663242
0.669589
0.642628
0.699822
0.744966
0.717678
0.701553
0.727423
0.778864
0.764588
0.74306
0.788907
0.871863
0.872053
0.864567
0.886589
1.015
0.93169
1.10025
1.12526
1.12631
1.19325
1.27053
1.3466
1.3529
1.36581
1.41
1.45816
1.49482
1.49395
1.53427
1.50863
1.56249
1.57753
1.57731
1.57761
1.57657
1.57577
1.54259
1.57627
1.54346
0.001
0.001
0.00539245
0.00102642
0.001
0.001
0.001
0.00389901
0.001
0.001
0.001
0.00122343
0.001
0.00121434
0.00121773
0.00119225
0.00119112
0.001
0.00118606
0.00507135
0.001
0.001
0.001
0.00205672
0.001
0.00205731
0.00206097
0.001
0.001
0.00100217
0.001
0.001
0.001
0.001
0.00114538
0.001
0.001
0.001
0.00100986
0.001
0.001
0.001
0.00115934
0.001
0.001
0.001
0.001
0.001
0.001
0.001
0.001
0.001
0.00100941
0.001
0.001
0.001
0.00100992
0.001
0.001
0.001
0.00101
0.001
0.001
0.001
0.001
0.001
0.001
0.00101
0.001
0.001
0.001
0.001
0.001
0.001
0.001
0.001
0.001
0.001
0.001
0.001
0.001
0.001
0.00145586
0.001
0.001
0.001
0.001
0.001
0.001
0.001
0.001
0.001
0.001
0.001
0.001
0.001
0.001
0.001
0.001
0.001
0.001
0.001
0.001
0.001
0.001
0.001
0.001
0.001
0.001
0.001
0.001
0.001
0.00111642
0.001
0.001
0.001
0.001
1.79957
1.78662
1.80506
1.79849
1.80755
1.80623
1.64215
1.64502
1.71413
1.67963
1.77382
1.79703
1.77202
1.65578
1.60698
0.726977
0.72945
0.728625
0.719846
0.726368
0.661662
0.702947
0.492645
0.545603
0.413107
0.409516
0.35665
0.358442
0.358195
0.001
0.001
0.001
0.00135259
0.165058
0.354158
0.19049
0.001
0.001
0.144822
0.0351123
0.001
0.001
0.001
0.00104752
0.001
0.001
0.001
0.00101825
0.001
0.00101822
0.001
0.001
0.001
0.730948
0.730106
0.730447
0.730131
0.73128
0.442276
0.554871
0.50183
0.618427
0.682994
0.706714
0.636526
0.72069
0.671228
0.673234
0.657894
0.001
0.00115656
0.001
0.001
0.001
0.001
0.001
0.00101925
0.001
0.001
0.00101197
0.001
0.001
0.001
0.001
0.001
0.001
0.001
0.001
0.00101614
0.001
0.001
0.001
0.001
0.001
0.001
0.001
0.001
0.001
0.001
0.001
0.001
0.001
0.001
0.001
0.001
0.001
0.001
0.00118909
0.00113897
0.001
0.001
0.001
0.00106355
0.00107133
0.001
0.001
0.001
0.001
0.001
0.001
0.001
0.001
0.001
0.001
0.001
0.001
0.334914
0.265023
0.251964
0.178005
0.174598
0.0927451
0.0793483
0.0690004
0.0659906
0.0587585
0.0672127
0.00141104
0.001
0.001
0.001
0.0693306
0.0725586
0.001
0.001
0.001
0.001
0.119535
0.192429
0.107659
0.00404075
0.001
0.0595541
0.001
0.076601
0.001
0.001
0.001
0.001
0.00181912
0.00182056
0.001
0.001
0.001
0.001
0.00100972
0.001
1.45606
1.43949
1.46628
1.46431
1.46564
1.48786
1.50849
1.53012
1.53015
1.52992
1.61029
1.56952
1.53471
1.37703
1.3758
1.40642
1.39193
1.41809
1.41868
1.44125
1.42576
1.32882
1.33508
1.35763
1.34235
1.35761
1.36448
1.00682
0.927348
0.85152
0.888664
0.835679
0.740088
0.926071
0.888592
1.1202
1.12147
1.08033
1.12562
1.21221
1.26499
1.12223
1.17132
1.26268
1.26373
1.28423
1.26446
1.30593
1.32176
1.32354
1.31945
1.32292
1.32077
1.32793
1.32606
1.32352
1.32373
0.364138
0.419776
0.613643
0.585893
0.515575
0.590781
0.612134
0.686697
0.356134
0.351935
0.348689
0.263903
0.105052
0.15148
0.225137
1.57448
1.57859
1.60615
1.59817
1.62224
1.63343
1.63419
1.63401
1.66819
1.64928
1.66177
1.62467
1.65542
1.66843
1.69083
1.70937
1.72129
1.72133
1.77154
1.77483
1.79603
1.7754
1.68881
1.69205
1.80984
1.80614
0.001
0.001
0.001
0.001
0.001
0.00126461
0.00126447
0.001
0.001
0.001
0.001
0.0018144
0.0013589
0.001
0.001
0.001
0.00100232
0.001
0.0905634
0.0502609
0.001
0.145713
0.184699
0.204468
0.185503
0.289872
0.360676
0.239578
0.460968
0.397805
0.468733
0.473492
0.562772
0.501005
0.62385
0.657197
0.65195
0.656682
0.781239
0.743846
0.71421
0.767996
0.793842
0.787108
0.781188
0.771826
0.786265
0.786958
0.866902
0.910509
0.947679
0.903629
0.946996
0.97285
1.11365
1.04551
1.13882
1.12715
1.20788
1.2836
1.36861
1.3651
1.39854
1.43534
1.51053
1.50176
1.52496
1.5318
1.56039
1.57019
1.58729
1.58134
1.58894
1.58592
1.5748
1.58709
1.57436
1.57614
0.001
0.001
0.00107753
0.001
0.001
0.001
0.001
0.00133816
0.001
0.00122779
0.001
0.001
0.001
0.00122424
0.00122246
0.00121234
0.00121237
0.00120055
0.00120594
0.001
0.001
0.00100886
0.001
0.00161452
0.001
0.0010045
0.001
0.001
0.001
0.001
0.001
0.00102734
0.001
0.001
0.00100863
0.00121194
0.001
0.001
0.001
0.00337087
0.001
0.001
0.001
0.00100991
0.001
0.001
0.001
0.00100983
0.001
0.001
0.00102712
0.001
0.00100976
0.001
0.001
0.001
0.001
0.001
0.00334515
0.001
0.001
0.001
0.001
0.001
0.00110035
0.00110035
0.00110029
0.001
0.001
0.001
0.001
0.001
0.00102728
0.00103018
0.001
0.001
0.001
0.001
0.001
0.001
0.001
0.001
0.001
0.001
0.001
0.001
0.001
0.001
0.001
0.001
0.001
0.001
0.001
0.001
0.001
0.001
0.001
0.001
0.001
0.001
0.001
0.001
0.001
0.001
0.001
0.001
0.00101362
0.001
0.001
0.001
0.00121086
0.001
0.001
0.00115311
0.00110575
0.001
1.81856
1.84176
1.85061
1.80579
1.81114
1.79672
1.80472
1.69196
1.71292
1.72979
1.74752
1.74666
1.78216
1.8066
1.65128
1.68264
1.6045
1.63768
1.63293
0.722774
0.722689
0.625295
0.588069
0.685225
0.618771
0.626456
0.496675
0.522165
0.384768
0.36201
0.361374
0.356736
0.333639
0.001
0.001
0.274573
0.384363
0.164407
0.001
0.001
0.118575
0.114872
0.001
0.001
0.001
0.00104283
0.001
0.001
0.001
0.001
0.00124657
0.001
0.001
0.001
0.001
0.001
0.001
0.686153
0.729991
0.707125
0.681359
0.445148
0.446915
0.470355
0.539284
0.659313
0.658683
0.610449
0.658464
0.658491
0.00100999
0.001
0.001
0.001
0.001
0.001
0.00130347
0.00130548
0.001
0.001
0.00104287
0.00100946
0.001
0.001
0.00100978
0.001
0.001
0.00165231
0.001
0.001
0.001
0.001
0.001
0.001
0.001
0.001
0.001
0.001
0.00166787
0.001
0.001
0.001
0.001
0.001
0.001
0.001
0.001
0.001
0.001
0.001
0.001
0.001
0.001
0.001
0.001
0.001
0.00103365
0.001
0.001
0.001
0.001
0.00150796
0.001
0.001
0.001
0.001
0.001
0.001
0.001
0.001
0.001
0.001
0.001
0.254384
0.165024
0.166233
0.110343
0.108866
0.0842853
0.101204
0.0725583
0.108654
0.0366691
0.0369367
0.001
0.001
0.001
0.001
0.001
0.001
0.001
0.001
0.001
0.001
0.001
0.001
0.0495952
0.0917546
0.001
0.001
0.001
0.0933318
0.161434
0.103269
0.001
0.001
0.001
0.00148994
0.00102789
0.001
0.001
0.001
0.001
0.00100999
0.00101552
0.001
1.46561
1.45717
1.46543
1.48328
1.4625
1.49498
1.51916
1.50305
1.51833
1.57264
1.52068
1.60068
1.56831
1.6322
1.35691
1.37962
1.37602
1.40051
1.38242
1.40899
1.43314
1.39931
1.32532
1.33444
1.34129
1.34902
1.34841
1.3468
1.06346
0.979877
0.871441
0.889848
0.791186
0.880512
0.894795
0.954384
1.12768
1.12618
1.13009
1.10365
1.21731
1.2672
1.18443
1.13674
1.26498
1.26948
1.27333
1.29447
1.32244
1.31216
1.3194
1.32347
1.32228
1.32057
1.32505
1.32396
1.32304
1.32251
0.444506
0.351694
0.616527
0.61922
0.531707
0.625187
0.621268
0.722121
0.349407
0.347198
0.325181
0.311724
0.242458
0.34541
1.59031
1.60803
1.62899
1.66286
1.65819
1.6765
1.69066
1.69767
1.70583
1.69261
1.70003
1.72065
1.74266
1.75541
1.75305
1.76409
1.78681
1.80584
1.81671
1.81652
1.82854
1.70351
1.69377
1.84782
1.86715
0.001
0.00108451
0.001
0.001
0.001
0.001
0.001
0.001
0.001
0.00181422
0.001
0.001
0.001
0.001
0.001
0.001
0.0013033
0.001
0.001
0.0548886
0.001
0.14092
0.224401
0.215736
0.130275
0.285509
0.29132
0.378643
0.440573
0.408976
0.487247
0.428223
0.624849
0.545571
0.656771
0.658047
0.67129
0.732569
0.858131
0.866751
0.805394
0.833494
0.866582
0.81208
0.920675
0.847917
0.824174
0.861607
0.99192
1.00306
1.06577
1.12019
1.00266
1.094
1.23871
1.18933
1.25924
1.22748
1.42182
1.38578
1.45184
1.46656
1.5392
1.54882
1.61332
1.57822
1.62726
1.60981
1.62898
1.66134
1.63281
1.66199
1.66967
1.62865
1.61816
1.66179
1.66139
1.63135
0.001
0.001
0.00101657
0.001
0.001
0.001
0.001
0.001
0.001
0.001
0.001
0.001
0.001
0.001
0.001
0.001
0.00100968
0.00121611
0.001
0.001
0.00122588
0.00101759
0.001
0.001
0.00151782
0.001
0.001
0.001
0.001
0.001
0.00112746
0.001
0.001
0.001
0.001
0.001
0.001
0.00100967
0.001
0.001
0.001
0.001
0.001
0.001
0.001
0.001
0.00114373
0.00114443
0.0011459
0.001
0.001
0.001
0.001
0.00101883
0.001
0.001
0.00101875
0.001
0.001
0.001
0.00100552
0.00108996
0.001
0.001
0.00104082
0.001
0.001
0.001
0.00103
0.001
0.001
0.001
0.001
0.001
0.001
0.001
0.001
0.001
0.001
0.001
0.001
0.001
0.001
0.001
0.001
0.001
0.001
0.001
0.001
0.001
0.001
0.001
0.001
0.001
0.001
0.001
0.001
0.001
0.001
0.001
0.001
0.001
0.001
0.001
0.001
0.001
0.001
0.001
0.001
0.001
0.001
0.001
0.001
0.001
0.001
0.001
0.001
0.00121111
0.001
0.001
0.001
0.001
0.001
0.001
1.87406
1.85791
1.87415
1.84443
1.83232
1.86013
1.84744
1.82497
1.84406
1.70238
1.73057
1.73035
1.73122
1.80023
1.84552
1.86335
1.76454
1.638
1.67048
1.63956
1.63959
1.63431
1.67429
1.56511
0.489849
0.584843
0.487251
0.529811
0.529627
0.436842
0.436044
0.4392
0.4394
0.439102
0.414423
0.332497
0.31117
0.224722
0.227565
0.336152
0.447459
0.001
0.001
0.114986
0.114189
0.001
0.00108609
0.0482428
0.001
0.001
0.00100153
0.001
0.00427519
0.001
0.001
0.001
0.00425441
0.001
0.00111013
0.001
0.00132292
0.592789
0.521636
0.498957
0.581373
0.447141
0.469307
0.607715
0.538237
0.585673
0.657713
0.656229
0.00114775
0.001
0.001
0.00118188
0.001
0.001
0.0013047
0.00130412
0.001
0.001
0.00100995
0.001
0.001
0.001
0.001
0.001
0.00176966
0.00180747
0.001
0.001
0.00180298
0.001
0.00150855
0.001
0.001
0.001
0.001
0.00154696
0.001
0.00166749
0.00159065
0.001
0.001
0.001
0.001
0.001
0.001
0.001
0.001
0.001
0.001
0.001
0.001
0.00101
0.001
0.001
0.001
0.001
0.001
0.00122753
0.001
0.001
0.001
0.001
0.00144971
0.001
0.001
0.001
0.001
0.001
0.001
0.001
0.001
0.001
0.001
0.001
0.001
0.001
0.001
0.001
0.001
0.001
0.001
0.106859
0.109431
0.142248
0.110476
0.10705
0.105111