/*--------------------------------*- C++ -*----------------------------------*\
  =========                 |
  \\      /  F ield         | OpenFOAM: The Open Source CFD Toolbox
   \\    /   O peration     | Website:  https://openfoam.org
    \\  /    A nd           | Version:  8
     \\/     M anipulation  |
\*---------------------------------------------------------------------------*/
FoamFile
{
    version     2.0;
    format      ascii;
    class       volScalarField;
    location    "1500";
    object      nut;
}
// * * * * * * * * * * * * * * * * * * * * * * * * * * * * * * * * * * * * * //

dimensions      [0 2 -1 0 0 0 0];

internalField   nonuniform List<scalar> 
526318
(
0.00025104
0.000271772
0.000147074
0.000458333
0.000323717
0.000385273
0.000153958
0.000264756
0.000100819
0.000293869
0.000136933
0.000255769
0.00027641
0.000319938
0.00030307
0.000476274
0.000487562
0.000303636
0.000390924
0.000321124
0.000267232
0.000332636
0.000242927
0.000171193
0.000227421
9.747e-05
0.000136009
3.05023e-05
0.000144783
7.19358e-05
0.00023223
0.000262108
0.000171562
0.000438008
0.000582478
0.000284414
0.00042396
0.000279168
0.000260114
0.000184645
0.000611834
0.000717797
0.000300197
0.000117888
0.000102238
0.000255387
9.94911e-05
0.000287952
0.000266445
0.000157369
0.000403868
0.000390791
0.000640067
0.00066136
0.000293133
6.3907e-05
0.000201762
0.000243661
0.000153464
0.000242086
0.000265778
0.000182007
0.000151533
0.000287645
0.000253409
0.000223687
0.000213123
0.000158554
0.000224503
0.000193704
0.000122225
5.15954e-05
8.61808e-05
0.000243487
4.06927e-05
0.000179801
0.000167223
0.00030153
0.000186524
0.000104476
0.000351232
0.000256521
0.000177249
0.000208609
0.000267756
0.000327164
0.000390504
0.000243503
0.000352632
0.000402226
0.000334537
0.000319322
0.000469097
0.000614673
0.000269967
0.000393355
0.000413559
0.000361504
0.000414261
0.000345621
0.000106952
0
0.000192551
0.000114894
0.000242213
0
7.59687e-05
0.00030243
0.000135347
0.000255965
0.000238292
0.000156631
3.13371e-05
0.000246239
0.000179007
9.22024e-05
0.000205657
0.000119143
0.000263133
0.000409245
0.000346345
0.000381781
0.000467911
0.000371078
0.000358643
0.000392109
0.00041241
0.000374424
0.000365869
0.000434748
0.000413096
0.000416194
0.000396128
0.000378551
0.000449757
0.000370971
0.000415364
0.000404245
0.0004475
0.000377603
0.000403285
0.000458699
0.000430995
0.000439964
0.000424856
0.000390327
0.000431306
0.000398771
0.000419918
0.000397719
0.000394611
0.000415319
0.000379832
0.000394268
0.000374759
0.000363142
0.000382353
0.000375921
0.000387414
0.000373153
0.00041583
0.000348833
0.000427019
9.54109e-05
0.000211424
0.000209399
0.000235376
5.05759e-05
0.000199759
0.000205685
5.952e-05
0.000183487
8.58823e-05
0.000112251
0.000223882
0.000281205
0.000193907
0.000301309
0.000362938
0.00047893
0.000391568
0.000568778
0.000436316
0.000447909
0.000499526
0.000467486
0.000483316
0.00047212
0.0004529
0.000479805
0.000446281
0.000506069
0.000462197
0.00046368
0.00047837
0.000438204
0.000437135
0.000434373
0.00042438
0.000421235
0.000419868
0.000323228
0.000387295
0.000426978
0.000422527
0.000437755
0.000400516
0.000385914
0.000335023
0.0003793
0.000315453
0.000463523
0.000409037
0.00033455
0.000293663
0.000187074
0.00031519
0.000409644
7.56808e-05
0.000261424
2.73129e-05
3.791e-05
0.000238998
0.000269881
0.000205617
0.000561722
0.000540435
0.000170508
0.000278523
0.000115937
0
0.000484468
0.00047604
0
0
0
0
0
0
0.000244272
0.000239427
0.000140314
0.000261946
0.000171046
0.000242979
0.000270258
0.000124433
0.000176894
0.000320728
0.000256447
0.000373438
0.000314745
0.000387795
0.000355984
0.00033943
0.000284054
0.000318409
0.000317826
0.00031152
0.000361896
0.000345447
0
0
0
0
0.000126199
2.06657e-05
4.85983e-05
8.06481e-05
3.57739e-05
0.000213586
7.4943e-05
0.00021802
0.000238718
0.000106675
0.000212123
4.64348e-05
0.000120289
0.000143046
0.000176043
0.000256977
0.000354952
0.000344728
0.000330418
0.000332337
0.000327212
0.000329561
0.000337387
0.000363535
0.000388668
0.000357978
0.000395836
0.000418425
0.000324903
0.000348778
0.00026834
0.000320292
0.000360904
0.000294438
0.000308188
0.00027684
0.00034601
0.000338381
0.00033049
0.000341044
0.000280149
0.00044665
0.000398407
0.000392601
0.000421091
0.000345833
0.000384305
0.000303887
0.000352
0.000283635
0.000323499
0.000243609
0.000300442
0.000298747
0.000291796
0.00020159
0.000171104
0.000148582
0.000115628
0.000223005
0.000109115
0.000117074
0.000233761
0.000115371
0.000260943
0.000292514
0.000129175
0.000237252
0.000327201
0.00026977
0.000395188
0.000381207
0.00053419
0.000420096
0.000503917
0.000561446
0.000562147
0.000519286
0.000514366
0.000506194
0.000483372
0.00047787
0.000511047
0.000499569
0.000469374
0.000483143
0.00044926
0.000473831
0.000448216
0.000435644
0.00047183
0.000479086
0.000499237
0.000361184
0.000377468
0.000431078
0.000474854
0.000382388
0.000354133
0.000343863
0.000387347
0.000383582
0.000352605
0.000280335
0.000266368
0.000340238
0.000380925
0.00033426
0.000254723
0.000258073
0.000241122
0.000318818
0.000163952
0.000278699
0.000146596
7.72317e-05
0.000310298
0.000311409
0.000118334
0.000113714
0.000137413
6.77343e-05
0.000159802
0.000199211
7.97491e-05
0.000274393
0.000128734
0.000133217
0.000505697
0.000455127
0.000281808
0.000266615
0.000198848
2.71149e-05
0
9.89569e-07
0.000302529
0
0.000174365
0.000101627
0
3.69569e-09
0
0
0
0
0
0
0
0
0.000180068
0.000236977
0.000170256
0.000226041
0.000156253
0.000267312
0.00017052
0.000303398
0.000353915
0.000237388
0.000276429
0.000364217
0.000340408
0.000277082
0.000259353
0.000309599
0.000303235
0.00027008
0.000291551
0.000321346
0.000293776
0.000314467
0
5.74515e-08
0
0
0
0
0
0
2.89162e-08
5.62629e-08
0
0
0
0
2.87729e-09
0
0
0
4.7077e-09
0
0
0
5.93762e-05
0.000118867
2.39349e-05
4.37518e-05
0.000160525
3.3885e-05
0.00017632
9.35929e-05
0.000114315
0.000186082
0.000168342
7.19836e-05
0.000174604
9.95672e-05
0.000184659
0.00016277
0.00029892
0.000311052
0.000298939
0.000297319
0.000324372
0.000304015
0.000347737
0.000373363
0.000372345
0.000407629
0.000407441
0.00038752
0.000291602
0.000306173
0.000280218
0.000378478
0.000294784
0.000297747
0.000203423
0.000255669
0.00030095
0.000231723
0.000278349
0.00039631
0.000363419
0.000349821
0.000345104
0.000329935
0.000309152
0.000318621
0.000263434
0.000274339
0.000229674
0.000272865
0.000247851
0.000249823
0.000280342
0.00026677
0.000293477
0.000265532
0.000234463
0.000213006
0.000252582
0.000303921
0.000262944
0.00013333
0.000178026
0.000163535
0.000176236
0.000144188
0.000146923
0.000211127
0.000147763
0.000186022
0.000261773
0.000184548
0.000324208
0.000375067
0.000240711
0.000439814
0.000266558
0.000272942
0.000417418
0.000450851
0.000399581
0.00046808
0.000614838
0.000549146
0.000597149
0.000542925
0.000527788
0.000530748
0.000515608
0.000517348
0.000489903
0.000496858
0.000462964
0.000480298
0.000453154
0.00044328
0.000487223
0.000529388
0.000498076
0.000488902
0.000491631
0.000397788
0.00039086
0.000442592
0.000432782
0.000360522
0.000333261
0.000345594
0.000380936
0.000358949
0.000350339
0.000356292
0.000283692
0.000382257
0.000278039
0.00031024
0.000306716
0.00026728
0.000365474
0.000308703
0.00026688
0.000330607
8.99383e-05
0.000140397
5.27459e-05
0.000137701
0.000105649
5.9323e-05
0.000127436
6.25953e-05
0.000166233
0.000130706
0.000112546
1.89087e-05
7.66851e-05
0.000364744
0.000399559
0.000317321
0.000284322
0.000346735
0.000172688
5.74654e-05
0.000179902
0
0
3.15119e-05
0
0.000105197
0.000139867
0
0
0
0
0
0
0
0
0
0
0
0
0
0
0
4.12625e-09
0
0
0
0
2.4826e-09
0
0
1.49519e-10
1.0585e-09
2.7344e-09
0
0
0
0
0
0
0
0
0
0
0
0
0
0
0.000247141
0.000168062
0.000162332
0.000210965
0.000177149
0.00028678
0.000312362
0.000207971
0.000335536
0.000251838
0.000242447
0.000330818
0.000315709
0.000227847
0.000314657
0.000234288
0.000244072
0.000313442
0.000297531
0.000254977
0.000297265
0.000255008
0
0
0
0
0
0
0
0
0
0
0
0
0
0
0
0
0
0
0
0
0
0
0
0
1.27572e-08
0
0
0
0
0
0.000142701
0
0.000166967
4.73068e-05
6.35376e-05
9.8788e-05
5.84166e-05
0.000108089
0.000111805
0.000107643
0.000115376
0.000119148
5.39565e-05
0.000169475
0.000179767
5.08885e-05
0.000153322
0.000150969
0
0
0
0
0
0
0
0
0
0
0
0
0
0
0
1.13626e-08
0
0.00028821
0.000311531
0.000317767
0.000301687
0.000303169
0.000337099
0.000346235
0.000352215
0.000336444
0.00036184
0.000332247
0.000334668
0.000280844
0.000271679
0.000240316
0.000383052
0.000298679
0.00032442
0.000280321
0.00030029
0.000269655
0.00028116
0.00024703
0.000281798
0.000311965
0.000344255
0.000311805
0.000270284
0.000219642
0.000218297
0.00016522
0.000160467
0.000323514
0.000238868
0.000336015
0.000310092
0.000311636
0.000281768
0.000288831
0.000359296
0.000332987
0.00027212
0.000229283
0.000285922
0.000232683
0.000276576
0.000269424
0.000227427
0.000232058
0.000192216
0.000222528
0.000268356
0.000224674
6.34971e-05
0.000126802
0.000210514
0.000171509
0.000164015
0.000175274
0.000218451
0.000280006
0.000200971
0.000322428
0.000215763
0.000340319
0.000304492
0.000334459
0.000398504
0.000344397
0.000465875
0.000468204
0.000474778
0.000527509
0.000560422
0.000564967
0.000473988
0.000504156
0.00056365
0.000543396
0.000488706
0.000497056
0.0005273
0.000509435
0.000486051
0.000476672
0.000516889
0.000518229
0.00050503
0.000482148
0.000483918
0.000458205
0.000455608
0.000431069
0.000410987
0.000450512
0.000433179
0.000334261
0.000367045
0.000409916
0.000370401
0.000391476
0.000298396
0.000304328
0.00030898
0.000333646
0.00028755
0.000367692
0.000291299
0.000367426
0.00028698
0.000351025
0.000339193
0.000291191
0.00039956
0.000333789
0.000375971
0.000242428
0.000358401
0.000310479
0.000262963
0.000345317
0.000277649
0.000347558
0.000372307
0.000357133
0.000372732
0.000352029
0.0003552
0.000347318
0.000361389
0.000369868
0.000351897
0.00031574
0.000329346
0.00032398
0.000298132
0.000330322
0.000308592
0.000299277
0.000324556
0.000284415
0.000299022
0.000299265
0.00027745
0.000298555
0.000271186
0.000253117
0.000292716
0.000260948
0.000258148
0.000225093
0.000236237
0.000287962
0.000126828
9.30254e-05
1.85183e-05
6.4732e-05
0.000137314
0.000105604
4.75526e-05
3.41658e-05
2.39895e-05
9.76942e-05
1.42271e-05
9.62697e-05
0.00018865
7.43918e-05
0.000286609
0.000439964
0.000462869
0.000348772
0.000332
0.000181079
0.000200869
0.000217042
0.00012367
0
4.02821e-09
1.71857e-05
0
1.37523e-05
0
2.82884e-09
0
0
0
0
4.99684e-09
0
0
0
0
0
0
0
0
4.57434e-09
0
0
0
0
0
0
0
0
0
0
0
0
0
0
0
0
0
0
1.97562e-09
0
0
3.63284e-09
0
9.61787e-10
0
0
1.22244e-09
2.05289e-10
0
2.81677e-09
5.39283e-09
0
0
3.08889e-09
0
0
0
0
0
0
0
0
0
0
0
0
0
0
5.46454e-08
0
0
0.000167371
0.000275049
0.000237338
0.000125424
0.000287465
0.000201979
0.000212874
0.000296843
0.000231934
0.000308197
0.000303942
0.000211477
0.000299914
0.000193663
0.000301813
0.000248893
0.000320123
0.00029474
0.000203345
0.000303176
0.000219274
0.000234315
0
0
3.44558e-09
6.59751e-09
0
0
0
0
0
2.30714e-09
0
0
0
0
0
0
0
0
0
0
0
0
4.40438e-09
2.58625e-09
0
0
9.73283e-05
0.000129598
0.000126546
5.99546e-05
7.68645e-05
9.68144e-05
4.8868e-05
7.57598e-05
5.24026e-05
0.000110893
9.76787e-05
0.000113869
5.91321e-05
0.000147256
0.000132871
0.000118447
6.72825e-05
0.000202659
1.08647e-09
0
3.83116e-09
0
0
3.48616e-10
0
0
1.33185e-10
0
0
0
0
0
0
0
0
0
0
0
0
0
0
0
6.2138e-09
0
0.000328739
0.000299979
0.000284881
0.000310242
0.000274574
0.00029221
0.000302279
0.000296734
0.000297495
0.000318208
0.000261227
0.000294942
0.000200667
0.000191358
0.000189094
0.000259802
0.00025471
0.000275375
0.000235302
0.000249381
0.000138549
0.000178445
0.000145465
0.000172882
0.000186262
0.000204844
0.000109991
0.000123014
8.25451e-05
9.10805e-05
0.000137158
0.000107728
0.000351431
0.000276961
0.000312294
0.000169351
0.000271026
0.000272417
0.000333924
0.000260355
0.000310692
0.000378828
0.000380116
0.00028321
0.000386106
0.000350715
0.000377422
0.000353881
0.000301877
0.000338237
0.000282895
0.0003021
0.00026529
0.000264713
0.000219978
0.000226604
0.000208093
0.000224444
0.000241266
0.000272303
0.000184279
0.000203165
0.000309284
0.00021301
0.000202529
0.00021772
0.000284994
0.000145955
0.000230891
0.000243313
0.000129426
0.000283678
7.42157e-05
0.000154676
9.23778e-05
0.000200437
0.000153853
0.000180502
0.000180772
0.000237387
0.000230721
0.000130599
0.000216377
0.000192203
0.000267354
0.000258987
0.000148036
0.000251487
0.000200259
0.000243776
0.000518286
0.000525739
0.000243191
0.000489796
0.00052204
0.000475733
0.000530003
0.000456073
0.000474057
0.000560667
0.000534371
0.000485278
0.000504385
0.000526407
0.000515878
0.000507353
0.000484965
0.000482414
0.00046094
0.000477187
0.000459701
0.000444197
0.000423712
0.00038551
0.000381905
0.0004312
0.000351114
0.000399094
0.000380723
0.000372718
0.000376557
0.000323903
0.000343343
0.000295599
0.000286989
0.000358946
0.000391361
0.000337378
0.000345489
0.000375386
0.000387003
0.000324971
0.00040477
0.000245232
0.000342954
0.000339748
0.000281307
0.000332574
0.000320863
0.00032453
0.000313191
0.000280399
0.000319281
0.000263623
0.000305862
0.000300538
0.000301033
0.000312504
0.000286709
0.000260304
0.000225466
0.000257098
0.000229954
0.0001965
0.000236081
0.00020264
0.000153917
0.000161264
0.000185835
0.000121246
0.000182886
0.00018975
0.000105087
0.000120405
0.000155319
0.000109694
9.05416e-05
2.69265e-05
8.56915e-05
0.000104239
8.19047e-05
0.000128593
1.73483e-05
5.08946e-05
1.9722e-05
8.4662e-05
5.87551e-05
0.000109844
0.000155296
0.000278266
0
1.83101e-06
0.000169168
8.54819e-05
0.000141265
0.000209927
0.000161552
0.000213312
0.00040484
0.000188529
0
0
0
0
1.22098e-08
2.12778e-08
0
0
0
6.69173e-09
0
0
0
0
0
1.21666e-08
0
4.7272e-09
0
0
0
0
0
0
0
0
0
0
0
0
1.83388e-09
0
9.72334e-09
0
0
0
0
0
0
1.0232e-08
0
0
0
0
0
0
0
1.09947e-11
0
8.58955e-10
0
5.22751e-09
0
0
0
0
0
0
0
0
0.000173046
0.000270185
0.000245991
0.000117148
0.000260137
0.000202549
0.000267156
0.000207894
0.000269367
0.000203079
0.000173496
0.000256941
0.000168659
0.000271861
0.000306654
0.000221606
0.000299987
0.000209429
0.000311406
0.000287516
0.00019066
0.000214135
1.19241e-09
0
3.82536e-10
0
0
0
0
0
4.1146e-09
0
0
0
4.08723e-09
5.49229e-09
0
0
0
0
0
0
0
0
0
7.00162e-09
0
7.26283e-06
0.000198375
1.38882e-05
4.8584e-05
8.31668e-05
5.82466e-05
5.14755e-05
1.07117e-05
6.20344e-05
8.54155e-05
4.40078e-05
8.82295e-05
6.55057e-05
8.19486e-05
0.00010884
7.19836e-05
0.00023985
0.00019177
2.52792e-05
0
0
0
0
0
0
0
0
0
0
0
0
0
0
2.63742e-09
0
0
0
0
3.7718e-10
0
6.79676e-10
0
0
8.76027e-09
0
0
0
0
0
0
0.000271206
0.000263078
0.00025935
0.000255975
0.0002999
0.000282805
0.00030433
0.000269285
0.000254404
0.000194353
0.000240167
0.00018721
0.000221935
0.000108886
9.48607e-05
0.000173322
0.000182445
0.000196427
0.000245872
0.000241405
0.000174215
0.000231936
0.000126377
0.000131127
0.000128656
0.000127852
6.15124e-05
5.65628e-05
5.33031e-05
6.09245e-05
5.84568e-05
4.15589e-05
5.75282e-05
1.43689e-05
2.61104e-05
0.000413448
0.000381081
0.000399576
0.000426217
0.000397119
0.000387608
0.000395614
0.000448326
0.000353027
0.000447087
0.000481888
0.000511647
0.000471193
0.00041836
0.000187474
8.66063e-05
0.000173305
0.000231912
0.000267706
0.000136544
0.0002638
0.000298317
0.000330838
0.000332914
0.000200216
0.000374717
0.0002804
0.000353337
0.000391569
0.000207933
0.000223974
0.000186318
0.00016557
9.55206e-05
0.000138224
0.000381342
0.000270642
0.000307146
0.000169057
0.000250294
0.000265296
0.000331894
0.000248969
0.000308723
0.000410202
0.000285155
0.000386812
0.000336281
0.000343076
0.000396537
0.0003214
0.000331665
0.000316766
0.00029501
0.000317734
0.000252729
0.000285153
0.000211893
0.000203856
0.000199359
0.000188049
0.000179885
0.00013732
0.000237881
0.000218398
0.000194472
0.000196944
0.000180893
0.000215518
0.000168534
7.38568e-05
0.00025873
0.000187431
0.000146356
0.000187991
0.000267002
0.000241552
0.000318107
0.000329181
0.000372363
0.000352685
0.00036024
0.000366852
0.00033544
0.00035757
0.000330827
0.000406332
0.000376655
0.000475733
0.000516033
0.000482648
0.000533765
0.000135213
8.70162e-05
8.2845e-05
0.000177059
4.20543e-05
0.000200872
0.000237181
7.87413e-05
0.000141542
0.000146755
0.000103347
9.4935e-05
0
6.67343e-05
0
0
0.000175871
0
0.000318366
0.000227138
0.000137915
0.000478675
0.000418853
0.000484033
0.000518276
0.000502258
0.000499858
0.000496981
0.000518753
0.00047108
0.000483133
0.00053262
0.000493742
0.000497568
0.000462325
0.000487798
0.000441791
0.000457117
0.00039458
0.000448613
0.000381568
0.000363555
0.000426829
0.000361774
0.000376037
0.000381819
0.000380661
0.000384399
0.000381682
0.000310142
0.000424299
0.000378127
0.000402159
0.000406637
0.000315654
0.000434356
0.000402718
0.000300034
0.000387074
0.000258903
0.000361444
0.000353945
0.000343656
0.00031899
0.000287869
0.000301665
0.000281383
0.00025232
0.000306723
0.00023898
0.000267109
0.00031669
0.000302146
0.00029857
0.000234102
0.000269778
0.000179317
0.000223472
0.000202489
0.000166573
0.000159189
0.000188941
0.000161038
0.000176261
0.000202217
0.000154329
0.000132209
2.86611e-05
3.44497e-05
6.50248e-05
4.49945e-05
5.29256e-05
5.60228e-05
6.28874e-05
9.99457e-05
9.51287e-05
0.000179888
1.0068e-05
0.000108207
0.000117341
0
0
0
1.02637e-06
0.000118838
2.94742e-05
3.5617e-05
7.94237e-05
0
0
0
0
0
2.08267e-08
2.10096e-08
4.69364e-09
0
6.58098e-11
0
0
0
0
0
0
0
0
0
2.03914e-08
0
0
0
0
0
0
0
0
2.70007e-07
0
0
0
0
0
0
0
0
1.47959e-09
0
0
0
1.09914e-10
0
0
0
0
3.27669e-09
0
0
0
0
0
0
0
0
6.11326e-09
0
0
0
0
0
0
0
0
0
0
1.39275e-08
0
0
0
0
2.33016e-08
0.000580667
0.000573196
0.000554193
0.000577784
0.000552233
0.000536807
0.000247119
0.000183666
0.000153323
0.000229636
0.000226778
0.000196026
0.000180747
0.000212359
0.000223255
0.000172155
0.000244087
0.000167999
0.000174187
0.000269149
0.00026983
0.000156785
0.000168436
0.000275385
0.000179969
0
0
0
0
0
0
0
0
0
0
0
2.47152e-09
0
0.000186608
5.26728e-05
3.09218e-05
0
0
0
0
0
0
0
0
0
0
0
8.36956e-05
4.11013e-05
3.61031e-05
5.81876e-05
0.000249389
0.000147089
0.000227605
3.45924e-05
3.25741e-05
2.93702e-05
3.39716e-05
7.91796e-05
1.62238e-05
3.74066e-05
0.000179843
0.000106916
0
6.2273e-10
0
0
0
0
0
0
0
0
0
0
0
9.03104e-09
0
0
0
3.53131e-08
0
2.21603e-08
0
0
0
0
0
0
0
0
0
0
2.32104e-09
0
0
0
0
0
0
0.000237203
0.000222638
0.000142581
0.000266623
0.000250581
0.000269607
0.000247552
0.000211725
0.000206175
0.000118097
0.000125184
0.000204623
0.000222532
5.07811e-05
4.43429e-05
2.56578e-05
2.72955e-05
9.52486e-05
8.3939e-05
0.00018551
7.98921e-05
0.000154887
7.15346e-05
9.52974e-05
0.000151374
0
0
0
9.43817e-06
6.17658e-06
7.75086e-06
0
0
0
0
0
0
0.000412038
0.00044156
0.000485769
0.000456212
0.000471297
0.00051441
0.000539649
0.000542964
0.000140086
0.000102931
0.000139708
0.000194643
0.000270351
0.000190176
0.000364517
0.000313922
0.00019794
0.000193918
0.000155759
0.000185749
0.000132071
0.000137438
0.000370334
0.000272019
0.00019196
0.000311452
0.000255841
0.000237054
0.000227263
0.000305559
0.000282422
0.000363493
0.000320015
0.000300731
0.000357672
0.000303439
0.000411423
0.000374108
0.000316773
0.000374891
0.000323681
0.000334129
0.000353322
0.000299273
0.000355341
0.000293774
0.000250902
0.000200518
0.00019967
0.000127334
0.000160213
0.000152455
0.000130084
0.000203018
0.000178185
0.000220164
0.000236364
0.00020126
0.000178564
0.00015521
0.000235831
0.000127217
9.06535e-05
0.000117389
0.00010013
0.000304915
0.000257775
0.000284971
0.000340255
0.000332321
0.000352408
0.000343408
0.00034
0.0003399
0.000332741
0.000299583
0.000306396
0.000362946
0.000442042
0.000353336
0.000451601
0.000492374
0.000522626
0.000518074
0.000333476
0.000293846
0.000309661
0.000540553
0.00055376
0.000550615
0.000192271
2.7597e-05
0.00021495
9.41627e-05
5.12131e-05
0.000143832
2.64252e-05
3.75315e-05
4.09519e-05
0
1.28776e-05
1.88341e-05
0
9.82726e-08
0
4.84779e-09
0
3.522e-06
0.000128122
6.12207e-05
2.93685e-05
0.000350837
0.000493195
0.000307558
0.000445631
0.000494802
0.000421154
0.000476869
0.000501256
0.00045829
0.000492808
0.000483023
0.000470421
0.000449304
0.000438584
0.000455948
0.000461538
0.000398637
0.000431518
0.000290055
0.000387776
0.000402426
0.000388019
0.000430103
0.000387017
0.000333338
0.000351794
0.000399931
0.000399799
0.000373825
0.000446745
0.000340742
0.000424516
0.000373168
0.000422282
0.000258906
0.00042545
0.000179499
0.000431499
0.000267057
0.000316013
0.000241235
0.00026578
0.000248236
0.000235083
0.00023388
0.000284413
0.000314373
0.000260744
0.0002827
0.000304412
0.000262789
0.000225086
0.000202838
0.000140979
0.000188967
0.000142815
0.000178853
0.000232106
0.000206052
0.00026497
0.000252338
0
0
0
0
6.74548e-05
0.000108113
0.000156052
0.00014038
0.000146914
0
0
0
0
0
0
0
3.1228e-06
0
0
0
0
0
0
0
0
0
0
0
1.4965e-08
2.19634e-08
0
0
0
0
1.06223e-08
0
0
0
0
0
0
0
5.84959e-09
0
0
0
0
0
0
0
0
3.76833e-07
0
0
0
2.55262e-09
7.40226e-10
0
1.1723e-09
2.72206e-09
0
0
0
0
1.94454e-09
3.96283e-09
0
0
3.73241e-09
4.53525e-09
0
0
0
0
1.97682e-09
0
1.58155e-09
0
0
0
0
0
1.98796e-09
2.29581e-09
0
0
0
0
0
0
0
0
0
0
1.29899e-09
0
0
0
0
0
0
0
2.87131e-09
0.000610093
0.000642272
0.000632591
0.000640663
0.000607912
0.000583769
0.000567862
0.000573576
0.000597762
0.000596015
0.000177285
0.000213562
0.000201632
0.000171375
0.000183196
0.000178054
0.000171043
0.000192617
0.00017171
0.000215711
0.000227355
0.00016958
0.000214096
0.000144327
0.000122976
0.00020991
0.00012631
0
0
0
0
0
0
0
2.61987e-05
2.14131e-05
2.249e-05
0
0
0
0
2.67317e-05
0
9.30752e-10
0
0
7.50954e-10
0
0
0
0
0
0.00021265
0.000139233
0.000238148
6.6727e-05
1.6006e-05
7.65911e-05
1.24681e-05
0.000156892
0.000242232
1.33272e-05
5.96764e-05
6.16383e-05
5.7619e-05
0.000159735
0.000100437
0.000159064
0
0
1.53373e-09
3.22522e-09
0
0
3.2948e-09
2.1525e-09
0
0
0
0
0
0
0
1.26944e-08
2.79053e-09
4.52542e-09
0
0
0
3.02528e-08
0
0
0
1.02574e-09
0
0
0
0
0
0
0
0
0
0
0
0
0
0
0
1.43296e-08
0
0
0
0.000214683
9.94914e-05
0.000176953
0.000176173
0.000110455
0.000225961
0.000179977
0.000120565
0.000157369
5.40782e-05
3.59247e-05
3.70508e-05
4.94356e-05
0.000124877
0.000143682
0
0
0
0
1.27082e-05
7.12923e-06
2.6964e-05
5.58885e-05
0.000123881
9.87214e-05
0.000106722
3.59815e-05
0
0
0
2.40189e-06
0
0
0
0
0
0
0
2.87455e-09
0.000492755
0.000456098
0.000539425
0.000552178
0.00057777
0.00056596
0.000615853
0.000618338
0.000641814
0.000662567
0.000679814
0.000670129
0.000710051
0.000715583
0.00015636
0.000130107
0.000178925
0.000177976
0.000223404
0.000261274
0.000345776
0.000409672
0.000157795
0.000157199
0.000174006
0.000147718
0.000157247
0.000168214
0.000347155
0.000284942
0.000186452
0.000285429
0.000212199
0.000236887
0.000221539
0.000280248
0.000309747
0.000329973
0.000345984
0.000299603
0.000402051
0.00032034
0.000331929
0.000349369
0.000350452
0.000371082
0.000374077
0.000343694
0.000303625
0.000359391
0.00025032
0.000292523
0.000207057
0.000203587
0.000121065
8.24398e-05
0.000125092
0.000153571
0.00018525
0.000163228
0.000221158
0.000216813
0.000186239
0.000152256
0.000213736
0.000140235
7.42249e-05
0.000152401
0.000114546
0.00012593
0.000303004
0.000320499
0.000335212
0.000344398
0.000331736
0.000317155
0.000310346
0.000276073
0.000308299
0.000316355
0.000282065
0.000305312
0.000342143
0.000360856
0.00041282
0.000428295
0.000452316
0.000487241
0.000489942
0.000529127
0.000512173
0.000333165
0.000274274
0.000548638
0.000592757
0
4.58985e-05
0
3.28992e-06
0
0
0
0
2.53047e-09
0
0
0
0
0
0
0
1.73987e-05
0
5.48571e-05
6.71491e-05
2.27253e-05
0.000213648
0.000343619
0.000228628
0.000465523
0.000452183
0.000364184
0.000360338
0.000464645
0.000476911
0.000435737
0.000475146
0.000455573
0.000454486
0.000452286
0.000496314
0.00047391
0.000375388
0.000193993
0.00037023
0.0004387
0.000356802
0.000366745
0.000356877
0.000361096
0.000394572
0.000344992
0.000346172
0.000393484
0.000369314
0.000421201
0.000287648
0.000395465
0.000282526
0.000271348
0.00041452
0.000435677
0.000282987
0.000240351
0.00026064
0.000232679
0.000234834
0.000254692
0.000238293
0.000291931
0.000261402
0.000289935
0.000275076
0.000226869
0.000250539
0.000190791
0.000143455
0.000160601
0.000142028
0.000248009
0.000212924
0.000266055
0.000325069
0.00036762
0
0
7.23889e-07
5.26774e-10
0
0
0
4.12518e-06
0
0
0
1.2849e-08
0
3.90119e-08
1.44244e-08
3.67153e-08
9.75907e-09
0
3.24679e-08
3.26237e-06
0
0
0
3.67656e-09
0
4.74593e-10
3.81415e-09
0
0
0
0
0
0
0
7.26934e-09
0
0
0
0
0
0
0
7.58e-09
0
0
0
0
0
0
0
0
0
0
0
0
0
0
0
0
0
0
0
0
0
0
0
0
0
0
0
0
0
0
0
0
0
0
0
0
0
0
0
8.5345e-09
0
0
0
0
0
0
0
0
0
0
0
0
0
0
0
0
0
0
0
0
0
0
0
0
0
0
0
0
0
1.21996e-09
0
0
0
0
0.000632919
0.000607708
0.000653174
0.000603203
0.000632505
0.00065692
0.000715343
0.000684928
0.000635471
0.000674611
0.000620819
0.000618907
0.000653877
0.000782672
0.000788188
0.000149176
0.00019243
0.000235391
0.000200248
0.000149361
0.000186309
0.000156329
0.000163545
0.000138178
0.000157305
0.000123227
0.000110465
0.000159853
0.000102284
0
0
0
3.15865e-09
7.2589e-06
5.18778e-05
4.20363e-05
0
0
4.63673e-05
7.60621e-05
0
0
0
2.71082e-09
0
0
0
1.90257e-09
0
1.85895e-09
0
0
0
0.000212418
0.000172113
0.000127456
0.0001102
0.00022582
9.59959e-05
2.00879e-05
8.18867e-05
4.61726e-05
0.000189166
0.000166929
8.30561e-05
5.81656e-05
0.000112394
0.000104894
0.000167376
0
1.06918e-09
0
0
0
0
0
1.63929e-10
0
0
1.18784e-09
0
0
0
0
0
0
0
0
1.44182e-10
0
0
0
0
0
0
0
0
0
0
0
0
0
0
0
0
0
0
1.03056e-09
5.21184e-09
0
0
0
1.2711e-08
1.42444e-08
0
0
0
0
0
0
0
0
0
0
0
0
0.000162036
0.000129711
7.57307e-05
5.42236e-05
0.000141232
4.60277e-05
7.97431e-05
9.02475e-05
5.56808e-05
5.98644e-05
6.20662e-05
6.28802e-07
0
0
0
7.51336e-05
6.07384e-05
0
0
0
0
7.75079e-05
0.0001026
6.21494e-05
3.5548e-06
0
7.27269e-05
0
2.83984e-05
0
0
0
0
1.19086e-09
3.05311e-09
0
0
0
0
0
0
0.000542967
0.000492057
0.000610632
0.000590585
0.000633057
0.000632143
0.000660976
0.000650303
0.000671464
0.000645235
0.000778693
0.000754257
0.000668825
0.000200292
0.000189876
0.000246401
0.000217605
0.000315483
0.000277908
0.000457943
0.000394893
0.000101804
0.000116907
0.000171734
0.000101841
0.00013973
0.000230924
0.000310065
0.000277206
0.000190161
0.000248793
0.000222571
0.000210431
0.000259358
0.000216066
0.000303196
0.000342779
0.000280683
0.000310555
0.000355702
0.000349108
0.000338693
0.000365107
0.000353459
0.000368749
0.000365079
0.000339543
0.000305549
0.000331407
0.000268074
0.000269175
0.000215745
0.000190696
5.43438e-05
0.000108711
0.000156782
0.000123643
0.000115536
0.000188775
0.000148016
0.000156281
6.55579e-05
0.000133864
0.00015419
0.000175021
0.000138467
3.21246e-05
0.000151432
0.000116171
3.59294e-05
2.00146e-05
5.71177e-05
0.000313621
0.000343629
0.000320203
0.000338109
0.000310042
0.000314291
0.00030184
0.000294952
0.000348457
0.000312325
0.000306165
0.000368245
0.000407728
0.000375977
0.000438025
0.000431013
0.00046654
0.000446624
0.000480502
0.000493505
0.000508369
0.000560128
0.000334547
0.000399549
0.000622245
0.000556617
0
0
0
0
0
2.59651e-09
5.75233e-09
0
0
0
0
1.02876e-09
1.56345e-10
0
0
0
0
0
0.000106044
5.69953e-05
0
0.000163588
0.000221058
0.000237101
0.000281826
0.000320208
0.000418634
0.000344529
0.000410187
0.000378033
0.000421979
0.000433922
0.000462934
0.00045069
0.00047657
0.000409304
0.000408475
0.000436944
0.000360314
0.000288173
0.000421431
0.000260838
0.000329615
0.000319307
0.000335582
0.000344205
0.000288952
0.000303361
0.000345276
0.00027326
0.00025901
0.000358074
0.00024027
0.00033653
0.000260271
0.000366629
0.00029944
0.000231928
0.000259436
0.000239507
0.000250865
0.000241256
0.000259254
0.000260878
0.000263582
0.000261189
0.000219796
0.000230372
0.00018424
0.000154566
0.000156619
0.000135425
0.000233115
0.000237724
0.000331948
0.000333909
0.000355273
0.000361813
0
0
4.03693e-09
0
0
0
0
1.44863e-08
0
1.18455e-09
0
0
0
3.62305e-09
1.44307e-08
1.56879e-08
3.7104e-08
3.54911e-08
2.21756e-08
0
0
0
0
4.91916e-09
0
0
0
0
0
0
0
3.35479e-09
0
0
0
1.05722e-08
0
0
0
4.68219e-08
0
0
0
0
0
0
0
0
0
0
2.53029e-09
0
0
0
0
0
0
0
2.92684e-08
0
0
0
0
0
9.09464e-10
1.23476e-10
1.11694e-09
0
0
0
0
0
1.07022e-08
4.77744e-09
0
0
0
0
0
0
0
0
0
0
0
0
0
0
0
0
0
0
0
0
0
0
0
0
0
0
0
0
0
0
0
0
1.28745e-09
0
0
0
5.62924e-10
0
0
3.28305e-10
2.0613e-08
0
0.000656389
0.000648288
0.000596569
0.000680903
0.000684722
0.00067393
0.000693289
0.00075251
0.000754291
0.000663567
0.000670293
0.000660397
0.000646031
0.000705019
0.000840897
0.000822851
0.000754329
0.000832967
0.000826667
8.70067e-05
0.000188
0.000146049
5.34759e-05
0.000166105
0.000166231
9.60153e-05
0.000123766
9.48189e-05
9.53036e-05
0.000114372
0.00012429
0.000119954
8.47043e-05
0
0
0.000113585
6.23339e-05
2.9972e-05
0
0
1.01603e-05
3.76792e-05
0
0
0
1.65169e-07
0
0
0
0
6.08593e-09
0
0
0
0
0
0
3.86488e-05
0.000201923
6.29906e-05
0.000209924
6.45196e-05
0.000100864
6.57061e-05
7.89656e-05
0.000151659
0.000160921
8.02955e-05
9.50938e-05
0.000152396
0
0
0
0
0
0
1.88443e-09
1.63048e-09
0
0
2.40899e-09
0
0
0
0
0
0
5.29583e-07
0
0
0
0
0
0
0
0
0
0
2.58403e-08
0
0
0
0
0
0
0
0
0
0
0
0
0
0
0
0
0
4.138e-09
0
0
0
0
7.8289e-09
0
0
0
0
0
0
0
0
0
0
0
0.000125814
4.20368e-05
0.000113911
8.88995e-05
3.08543e-05
5.27723e-05
8.03513e-05
6.86437e-05
5.56306e-05
1.78481e-05
3.25007e-05
0
0
0
0
0
0
0
0
0
0
0
0
3.31881e-05
1.24092e-05
0
0
0
8.09391e-05
8.80747e-05
2.01621e-05
0
0
0
2.28574e-09
4.25988e-09
0
0
0
0
0
1.65865e-09
0
0.000584599
0.000566472
0.000673935
0.000686561
0.000692825
0.000719577
0.000679902
0.000692245
0.000673025
0.000722743
0.000685248
0.000780429
0.000722368
0.000809124
0.00023286
0.000290966
0.000300144
0.000328319
0.000350287
0.000402444
0.000523838
0.000449169
6.76193e-05
6.70271e-05
6.10655e-05
0.000156361
0.000169671
0.000258465
0.000255468
0.000266847
0.000166985
0.000261156
0.000183055
0.000248655
0.000199368
0.000247271
0.000334049
0.000307974
0.000264606
0.000299689
0.000359396
0.00039374
0.000411833
0.000354217
0.000355322
0.000390085
0.00033928
0.000354216
0.00029698
0.000320863
0.000238209
0.000267372
0.000199167
0.000166654
5.59496e-05
0.000109515
0.000111251
0.000132306
0.00013011
7.75548e-05
0.000110508
8.72352e-05
5.12618e-05
0.000119441
0.000128009
0.000113234
4.38678e-05
9.56165e-05
3.83762e-05
1.51429e-05
5.14444e-05
5.32731e-05
0.00034359
0.000319749
0.000355873
0.00034611