/*--------------------------------*- C++ -*----------------------------------*\
  =========                 |
  \\      /  F ield         | OpenFOAM: The Open Source CFD Toolbox
   \\    /   O peration     | Website:  https://openfoam.org
    \\  /    A nd           | Version:  8
     \\/     M anipulation  |
\*---------------------------------------------------------------------------*/
FoamFile
{
    version     2.0;
    format      ascii;
    class       surfaceScalarField;
    location    "1500";
    object      phi;
}
// * * * * * * * * * * * * * * * * * * * * * * * * * * * * * * * * * * * * * //

dimensions      [0 3 -1 0 0 0 0];

internalField   nonuniform List<scalar> 
788991
(
0.0444906
-0.0574992
0.0542311
0.0101348
-0.0754848
0.135301
0.0180213
0.0184613
0.0300305
-0.0211359
0.0572681
-0.0535777
-0.0369636
0.0542061
0.0338722
0.0677019
-0.0978343
-0.0859583
0.0373382
-0.12362
-0.0772811
-0.0103511
0.0922425
-0.0646904
0.0135502
-0.0357244
0.0557209
-0.0437837
-0.0346221
-0.0199006
-0.00593141
0.00852927
0.00281613
-0.0176219
-0.000936557
0.0455111
0.0135983
-0.0125291
0.0883226
0.0618338
0.0420301
0.000313269
-0.0805219
0.0586557
-0.164652
0.0279446
0.0823547
-0.0467503
0.00123357
0.0794565
0.0779867
-0.0547604
0.0382334
-0.100923
-0.160893
0.0194901
-0.0579067
0.0224576
-0.0305382
-0.0710132
0.0118919
0.0798555
0.0486338
-0.0272817
0.0541492
-0.0528794
-0.0811308
0.0282236
-0.0960354
-0.1372
0.0248006
-0.171723
0.0418163
-0.0593147
-0.0021876
0.0798355
-0.109617
0.0783028
-0.000213539
-0.0360637
-0.0453516
0.0541064
-0.0528402
0.0651744
0.026471
0.0316314
-0.0346789
0.0350177
0.0539125
0.0105091
-0.0276441
0.0048855
0.0345033
0.0428355
-0.015334
0.000301983
0.0163094
-0.0308298
0.0386795
0.0381261
0.0109813
0.0304942
0.0326259
0.0443926
0.0577796
0.0226976
0.0404941
-0.039131
0.0518885
-0.0777967
0.0461348
0.0606556
0.048813
0.0584046
0.108209
0.0625243
0.0957702
0.0655532
0.0647437
-0.118911
-0.113154
0.141027
-0.1186
0.0208226
0.0732539
0.152818
-0.0764754
0.0917797
0.0622579
-0.149346
-0.15333
-0.0669092
-0.178418
0
0.0612053
0.0173277
-0.0224286
-0.214818
-0.0934434
-0.00162141
-0.0394952
-0.0377791
-0.0184233
-0.0580541
-0.0443109
0.0160452
-0.0223219
-0.0419779
0.00255037
0.0211957
-0.0189543
-0.0278688
0.0396922
0.00993071
0.0336833
0.0362013
0.0170634
0.0901125
0.171234
-0.0968903
0.0746694
-0.167722
0.0914497
0.191513
-0.108138
0.0787595
-0.168344
0.102627
0.221545
-0.123689
0.0879573
-0.187988
0.11106
0.230226
0.125007
0.105658
0.21713
0.0972399
0.234877
0.124933
0.111476
-0.211738
0.104796
0.232765
-0.133251
0.118115
-0.229152
0.118231
0.2482
0.133905
0.1336
0.256311
0.115156
0.249059
-0.132838
0.137934
-0.264479
0.131721
0.248537
-0.138606
0.1464
0.28067
0.149933
0.275469
0.155763
0.149845
-0.306538
-0.123994
0.301807
-0.103394
0.162068
0.276553
0.00997425
-0.036958
-0.0423258
0.0092863
-0.0544054
-0.0386803
-0.0151076
0.0172549
-0.0364045
0.0059792
0.0299215
0.0297295
0.00758266
0.0322551
0.0329734
0.0129626
0.0405793
-0.0427912
0.0396568
0.0576761
0.0689737
0.0395345
0.124774
-0.110659
0.143501
0.144456
0.13582
-0.0190982
0.0742149
0.1239
0.100093
0.200375
-0.138628
0.119285
0.269477
0.157532
0.110332
0.28106
-0.142885
0.114871
0.255015
-0.138626
0.103967
0.261236
-0.145618
0.100048
0.245212
0.144884
0.105281
0.233006
-0.137711
0.110744
0.24506
0.137497
0.127239
0.259084
-0.14911
0.174744
0.0605577
0.223234
0.158456
0.294215
0.0145399
0.18956
0.162342
0.195115
0.200228
0.0128365
0.151196
0.0413089
0.0563131
-0.103164
0.056023
0.0269057
0.0898783
0.0497847
-0.0504196
0.0780374
0.0743532
0.0322842
-0.0495141
0.0683083
0.0338836
0.0532013
-0.0360089
-0.00560877
0.0728347
0.0427085
-0.0761323
0.0385173
-0.0673931
-0.166708
-0.00644495
0.147786
-0.0424925
-0.00678769
-0.0138908
-0.0605963
0
-0.0856164
0.0177297
-0.0522914
-0.0469421
0
0
-0.1269
0
0
0
0
0
0.0586985
0.0468873
0.00588572
0.0523217
0.0565142
-0.00447274
0.0307398
0.0505049
0.0121979
0.00444963
0.0411809
-0.034984
-0.0153629
0.0421718
0.0579766
-0.0285128
0.0489204
0.0807746
-0.0513906
0.0552225
0.10512
-0.055757
0.0588372
-0.109109
-0.0668947
0.0588508
-0.111969
-0.0830256
0.0611579
-0.133987
-0.0885199
0.0693221
-0.154704
0
0
0
0
0
0.00318409
0.0401372
-0.0476555
-0.101879
0.0579373
0.00920559
-0.0385528
-0.0375671
-0.00625771
-0.0533044
-0.0382912
-0.0143037
-0.0467388
-0.041477
0.00584699
-0.00630592
-0.0326797
-0.0135852
0.0334377
-0.00741877
0.030143
0.0604086
0.0203982
-0.0252583
-0.0871902
0.0713778
-0.157153
-0.0855551
0.0696484
0.154477
-0.102525
0.0766006
-0.180812
-0.0943096
0.0950944
-0.19626
-0.0967524
0.108774
0.210702
-0.117044
0.121058
-0.251051
-0.0225373
0.157919
0.190299
-0.00263331
-0.1204
0.15497
0.0202576
0.130467
0.140312
-0.00397859
0.16096
0.177535
-0.194019
0.158891
-0.131294
-0.124034
0.175007
-0.125219
0.140378
0.272781
-0.151767
0.144669
-0.31493
-0.163706
0.156249
-0.330699
-0.107651
0.159999
-0.32379
0.00455725
-0.189182
0.212172
0.149596
0.0465934
0.155521
-0.0197809
-0.121554
0.0200161
0.0296493
0.0524241
-0.0343914
-0.024495
0.0483222
0.00327034
0.0350032
0.0417055
0.00738688
0.0411435
-0.0432676
0.00018265
0.0507892
-0.0516427
-0.00913136
0.0530612
0.0767418
0.0336989
0.0862086
-0.119099
0.00881165
0.157927
-0.135851
0.149522
0.134812
-0.181438
-0.00216332
0.0830312
0.163901
0.147713
0.282889
0.188592
0.136037
0.344953
-0.171139
0.121802
0.310748
-0.157481
0.124005
0.285385
0.155249
0.0963872
0.27851
-0.150832
0.0917965
0.241705
-0.142328
0.109416
0.232851
-0.138179
0.119493
0.24123
0.141981
0.114417
0.276664
0.156871
0.20055
0.0419127
0.141907
0.274878
0.0547776
-0.141369
0.160859
0.0126226
-0.138541
0.187717
0.0235905
0.139661
0.00540281
0.152965
0.132825
0.115111
0.0197037
0.101126
-0.116162
0.135433
-0.018977
0.127889
0.0155944
0.110845
0.119483
0.102923
-0.100869
0.0550166
0.0191
0.00796636
0.00739875
0.0467565
0.0444858
0.0160563
0.00468082
0.0599068
-0.0450316
-0.0371809
-0.0190196
0.0486988
-0.0258419
0.0103015
-0.0158529
0.0200385
-0.00969385
-0.00242734
0.00261199
-0.0545977
0.0283935
0.052731
-0.190102
0.000378227
-0.163404
-0.0283865
-0.0301769
0.0182267
-0.00355367
-0.0460952
0.0389146
-0.228068
0
0.0122278
-0.0178824
-0.00872942
-0.208489
0.0160208
0.0549355
-0.0795517
0
-0.000115399
-9.18564e-05
0
0
0
0
0
0
0
0
0
0
0
0.0524055
0.0406917
0.00566563
0.0397118
0.0495175
-0.0041736
0.00719869
0.0451561
0.0311753
-0.0119689
0.0398269
0.0497962
-0.0325101
0.0441926
-0.0760681
-0.0526863
0.0467339
0.0963764
-0.053159
0.0474295
-0.0981608
-0.0543222
0.0507315
0.102773
-0.0612118
0.0554949
-0.10682
-0.0798157
0.0589484
0.12426
-0.0868097
0.0590852
0.138966
0.00194583
0
-0.00183448
0
0
0
-0.00037077
-0.00100357
-0.000290346
0
0
-7.8395e-05
0
0
0
0
7.26687e-05
2.35753e-05
0
-5.59418e-06
0
0
0.00010981
0.000158895
-0.0401221
0
0
0.0555839
0.0363226
-0.0104976
-0.0520438
0.0623331
-0.00721589
-0.0438615
-0.0273837
0.0164039
-0.0494723
-0.0355437
0.00825274
-0.028646
-0.034451
0.00509279
0.0109792
-0.0239979
-0.0227841
0.0392011
0.00125436
-0.0254253
0.044206
0.0235742
-0.0101883
-0.0818679
0.0629086
0.146217
-0.0855481
0.062954
-0.149358
-0.0870814
0.0749262
0.165632
-0.0947739
0.0972958
-0.201586
-0.120816
0.109192
-0.23169
-0.145606
0.121342
0.276327
0.00398382
0.188683
0.161021
0.0268558
-0.0929145
-0.191531
0.187258
-0.199753
0.0492222
0.0719147
-0.156025
0.0938119
0.0217599
0.0328259
-0.17645
0.163667
-0.178259
0.140367
0.331759
-0.18867
0.152531
0.369257
-0.149688
0.169467
0.32901
-0.185264
0.178183
-0.313964
-0.0349017
0.0943089
0.118737
0.104161
0.12523
0.140967
-0.0908624
-0.00550753
0.0943841
0.0930813
-0.0209769
0.129096
0.118032
-0.0358039
0.0930299
0.121597
0.15948
-0.0255513
-0.174324
0.0316106
0.0181587
0.031649
0.00244285
0.0344458
0.0460978
-0.00643794
-0.000771121
0.0490535
0.00220307
0.04664
0.0534658
0.00521168
0.0524947
-0.0696259
-0.0208684
0.0687183
-0.0955964
-0.0164345
0.0864153
0.14085
0.0246464
0.13905
0.147979
-0.0266835
0.179978
-0.179366
0.190659
0.188245
0.284373
0.00938599
0.133728
0.242512
0.173206
0.369129
0.206206
0.155588
0.364775
-0.173166
0.136365
0.337766
-0.165772
0.127047
0.304451
-0.15977
0.0965947
0.284156
-0.148675
0.0937962
0.24457
-0.13781
0.109999
0.23379
0.133856
0.129355
0.266027
-0.148612
0.114071
0.271586
-0.141807
0.202579
0.0580314
0.131316
0.240448
0.0634489
0.130945
0.159902
0.0120005
0.120726
0.195068
0.0269633
-0.124903
0.00170375
0.134935
-0.131406
0.0989982
-0.0123518
0.103717
0.130219
-0.0112158
0.108572
0.0221418
0.0870446
0.109928
0.0310796
0.136996
-0.102288
-0.0226652
0.0920586
0.117189
-0.0940501
0.0222687
-0.00832388
0.0282168
0.0311551
0.0318144
-0.0142688
-0.0199143
0.0241078
0.0117288
0.00440829
0.00268013
0.0257058
0.0300835
-0.058703
0.028323
-0.0428492
-0.0491359
0.0611128
0.0236751
-0.191248
-0.00946695
0.144628
-0.0218626
-0.071495
-0.0332551
0.0063495
-0.0745835
0.0863162
0.00961292
-0.125827
0.0601228
0
0
0
-0.0912945
0
-0.0598176
0.0247923
-0.00746746
0.0457965
0
0
0
0
0
0
0
0
0
0
0
0
0
0
0
0
0
0
0
0
0
-0.000140828
1.74258e-05
0
-0.00188003
0
-0.00091169
0
-1.98934e-05
-4.31319e-06
-1.49216e-05
0
1.47128e-05
-6.032e-05
5.0869e-06
0
2.22553e-05
0
0
0
0
0
0
0
0
0
0
0
0
0
0
0
0
0
0.0464171
0.0148327
-0.0248041
0.0374977
0.0230815
0.0157408
-0.00695198
0.0411296
0.0415581
-0.0290811
0.0390671
-0.0642464
-0.0509739
0.0430185
-0.0899227
-0.0526888
0.041046
0.0925427
-0.0523771
0.0438083
-0.0981217
-0.0522214
0.0504038
-0.0993339
-0.063462
0.052998
0.108161
-0.0751987
0.0543996
-0.118472
-0.0789268
-0.131513
0.0511135
0
0
0
0
0
0
0
0
0
0
0
0
0
0
0
0
0
0
0
0
0
0
0
0
0
0
0
0
0
0
0
0
0
0
0
0
0.000304497
0.000411091
-4.90345e-05
0
0
0
0
0
-0.0512034
0
-0.08021
0.0330782
-0.0235142
0.0210805
-0.0316139
0.0162893
-0.0153371
-0.0378352
-0.0193366
-0.00879688
-0.034841
-0.0285101
-0.000315958
-0.00910691
-0.024054
-0.0102524
0.0207593
-0.0112333
0.0201104
0.0307042
0.00727117
-0.0104698
0.021013
0.0226281
-0.00860046
0
0
0
-6.40551e-05
0
0
0
0
0
0
0
0
0
0
0
0
0
0
0
0
0.00018612
0.000201097
-0.0787027
0.0599346
0.144312
-0.075484
0.0668399
0.141673
-0.0962394
0.0813135
-0.173555
-0.126278
0.0925371
-0.231599
-0.150293
0.111517
-0.270439
-0.188347
0.123884
0.336372
-0.0152751
0.196424
-0.176566
-0.111715
0.198328
0.30517
0.0499081
0.167787
0.183932
0.0100917
0.204804
-0.196945
-0.013007
0.135998
-0.248415
0.019632
0.204349
0.246435
-0.190701
0.160167
-0.361539
-0.174579
0.171024
0.342313
-0.155734
0.157481
-0.318768
-0.0954298
0.144775
0.263554
0.0880992
-0.0295243
0.0709599
0.0958508
0.0482592
0.0821308
0.0433207
-0.0737996
0.0649225
0.0816555
-0.0213006
0.0894361
0.0598818
-0.000649484
0.0963182
0.109038
0.0195503
0.0962589
0.0592053
-0.0129569
0.129348
-0.132648
0.00927786
0.104478
-0.0886413
0.180895
-0.013587
0.176956
0.0444834
0.0239887
-0.0733856
0.0168033
0.0465776
0.0613656
0.0129095
-0.0100619
0.0583949
-0.00906527
0.0561912
-0.0688464
-0.0231313
0.0623799
0.0995969
-0.048644
0.0800756
0.152452
-0.000479402
0.115416
0.201255
0.0179249
0.154248
-0.227155
-0.0553944
0.227224
-0.310851
0.332554
0.290521
0.292028
0.102757
0.161478
0.247729
0.190533
0.399511
-0.208124
0.173707
0.394289
0.186895
0.143762
0.341233
-0.17041
0.13523
0.31551
0.159475
0.107851
0.294533
-0.142903
0.111975
0.251094
0.135327
0.128864
0.257884
-0.133166
0.120275
0.255822
0.130125
0.104489
0.246876
0.129849
0.193947
0.0563824
0.12608
0.227551
0.0620181
-0.123989
0.143533
0.0201398
0.116524
0.178517
0.0352684
0.111268
0.00198475
0.150666
0.113312
0.0748879
-0.0132186
0.105248
0.0968284
-0.0200553
0.102348
0.0192034
0.0996553
0.104893
0.0218153
0.11728
0.0938431
-0.00427151
0.114841
0.0938745
-0.024442
0.10007
-0.085005
-0.0269944
0.0534147
0.0581208
0.0704402
-0.0763261
0.0751282
-0.033374
-0.0454419
0.0434371
-0.0298717
0.044385
-0.0306752
0.0384388
0.0772139
-0.0245705
0.0787377
-0.0513404
0.0398848
0.0732356
-0.0326579
0.0788062
0.0430101
0.0439138
0.0686557
-0.0364052
0.0722836
0.0223789
0.0334191
-0.0612349
0.00907452
0.0628496
0.0400093
0.0279435
0.0568897
0.0168442
0.054787
0.0596738
0.0508763
0.0474018
0.0274512
0.0451875
-0.0627689
0.0647905
0.0377102
0.0379194
0.029192
-0.0571058
0.0652891
-0.0289501
-0.00202037
-0.0254687
0.0280128
-0.0265228
0.0099128
-0.0227804
0.0196561
0.00607472
-0.00893795
-0.00917421
0.0154305
0.00429256
-0.00715642
-0.00359236
0.0119991
-0.0386724
-0.0667302
0.014601
0.0505949
-0.242164
0.00721133
0.0500988
-0.0566789
-0.219687
-0.0901843
0.0203628
-0.201228
0.119658
0.00271341
-0.17939
0.13054
-0.000433206
-0.175082
-0.0448743
0
-0.000115445
2.00682e-06
-0.123179
0
-0.0378891
-0.0978802
-0.0313619
-0.0389598
0
1.87534e-05
0.000111886
0
0
0
0
5.15235e-05
0.000123103
0
0
0
-0.000113718
0
0
0
0
0
0
0
0
-0.000123061
-7.95039e-05
-0.000164308
-9.33972e-05
0
0
0
0
0
0
0
0
0
0
0
-8.10288e-05
0
0
0
0
0
-3.03961e-05
0
0
0
0
-4.47262e-05
0
0
0
-7.57005e-05
0
-0.000129148
-6.52402e-05
-1.22291e-05
0
-3.92794e-05
-3.08002e-05
-2.696e-05
-5.45078e-05
-5.57133e-06
-1.98908e-06
-0.000109381
-0.000212171
-0.000106801
0
-0.000105308
4.59397e-05
0
-3.42655e-06
0
0
0
0
0
0
0
0
0
0
0
0
0
0
0
0
-0.00160758
0
0.00115333
0
-0.000456158
0
0.0404087
-0.000204673
0.0364115
0.0310019
0.00399986
-0.0290472
-0.0205112
0.0383236
-0.0530213
-0.0453007
0.037521
0.076998
-0.0493547
0.0403231
0.0875571
-0.0522751
0.0399638
-0.0914969
-0.0511727
0.0413076
-0.093878
-0.0686773
-0.0820987
0.132041
0.0489403
-0.0549553
0.047821
-0.101133
-0.0633618
0.0518584
-0.111808
-0.111996
0.0500505
0
0
0
0.000172055
8.52552e-05
0.000113211
0
0
0
0
0
0
0.000180081
-4.10591e-05
8.39858e-05
0
0
0
0
0
0
0
0
0
0
0
0
-0.000106997
0
0
0
0
0
4.96401e-05
0.000124885
5.79559e-05
0
-4.6153e-05
0
-0.0296896
0.177209
0.0290027
-0.000577628
0.0231162
0.0156796
-0.0164513
-0.00461164
0.000352678
-0.0258465
-0.016851
0.00276292
-0.0136097
-0.0181457
-0.00473938
0.00711466
-0.0141155
0.0115305
0.0177745
-0.00317713
0.00768736
0.013696
0.00881492
0.00572634
0.00194588
0.0223615
0.0159848
3.28798e-05
0.00010342
3.2536e-05
-2.57681e-06
0
3.56297e-05
0
-9.06776e-06
0.000374205
4.87822e-06
0
-1.1055e-05
-1.96861e-07
0
0
0
0
0
0
3.93143e-06
0
0
0
0
0
0
0
0
0
0
0
0
0
0
0
9.24445e-05
0
-0.000111795
-0.078551
0.0610694
-0.144665
-0.0896617
0.0714252
-0.159694
-0.125933
0.0719485
-0.20819
-0.145976
0.100817
0.271326
-0.171049
0.129351
-0.308198
-0.198717
0.145013
-0.321665
-0.0482879
0.194283
-0.24547
0.0106068
0.202037
0.221587
0.00803985
0.246219
-0.168053
-0.0132285
0.189458
0.168577
-0.00167304
0.160116
0.277772
-0.034179
0.236687
-0.229431
-0.190834
0.133283
-0.301388
-0.154846
0.12917
-0.288829
-0.0722633
0.120979
0.209054
-0.0377754
0.134617
-0.232364
0.0767282
0.0343111
-0.0534141
0.0753168
0.0177418
-0.0516245
0.0819038
0.0270089
-0.070484
0.0234891
0.077216
-0.0561057
0.0797161
0.0254197
0.0510326
0.0812516
0.0316482
-0.0512556
0.0322038
0.0821768
-0.0482374
0.0451393
0.0837974
0.0291829
0.0239817
0.0708628
-0.0362408
-0.000671112
0.0618585
-0.0533991
-0.0108834
0.0543905
0.0552125
-0.0131834
0.0465937
0.0464878
0.0306038
0.0562973
-0.0206535
-0.0263452
0.0494304
0.0386867
-0.0152332
-0.0388766
0.0213721
0.0998852
-0.0879232
0.015315
0.0955228
0.0418473
0.018778
0.120137
-0.0994929
0.0173169
-0.0863335
0.10988
0.138543
0.0046102
0.130046
0.0422848
0.034462
0.0774672
-0.0611687
0.0562324
0.0793304
-0.0212384
-0.015364
0.0712253
-0.0371198
0.0573418
-0.0886599
-0.0727816
0.0580771
0.117897
-0.0402351
0.0980008
-0.18708
-0.0640802
0.13978
0.244975
-0.0696684
0.148382
-0.264265
0.0377005
0.176053
0.409221
0.428054
0.254848
-0.204526
0.193298
0.197725
0.196798
0.205035
0.437567
-0.203525
0.173701
0.416833
-0.202656
0.153754
0.378726
0.192428
0.142334
0.323918
-0.15498
0.119229
0.290275
0.138841
0.118724
0.262615
-0.134436
0.115933
0.242861
0.121037
0.111855
0.235504
-0.121033
0.0976607
0.234237
0.120266
0.17713
0.0511913
0.110808
0.210204
0.0478551
-0.109479
0.147431
0.00649634
-0.117828
0.152419
0.013091
0.114769
-0.00576721
0.114907
0.103964
0.0825593
-0.0141191
0.110839
0.0994391
-0.0295641
-0.102274
0.0267649
0.0973848
0.10552
0.0370953
0.120439
-0.0954027
0.00184181
0.132697
0.0890046
-0.0241744
0.0875409
0.0723989
-0.0724759
0.0388272
-0.0292003
-0.0334304
0.0341703
-0.0756913
-0.0309067
0.0372717
0.0673748
-0.027507
0.0331052
0.0625254
-0.0253797
0.0387732
0.0578918
-0.0210117
0.0368277
0.0554748
0.0043468
0.0382243
0.0490417
0.0235944
0.0506116
0.0377225
0.0307872
0.0552145
-0.0279849
0.0304357
0.050509
0.0185883
0.0254223
0.0432175
0.0397179
0.0103147
0.0225446
0.0119975
0.0313604
0.0285841
-0.00241534
-0.0234397
0.00359956
0.019392
-0.00331362
0.0233755
0.000434965
0.0203829
0.0192352
-0.0284636
0.00457687
-0.0349265
0.012386
-0.00142138
-0.00236692
0.00249178
-0.0128117
0.0192366
-0.00700586
0.00407712
0.00255929
0.0424727
-0.0591343
0.050034
0.0206506
0.0618765
-0.043747
0.150592
-0.202176
-0.0291235
0.0378293
-0.14291
0.126139
-0.0254991
0.00619087
-0.0813398
-0.0528375
-0.118932
-0.0500906
0.0928856
0.16512
-0.193355
-0.0269645
0
0
0
0
0
0
-0.000264977
9.40206e-05
-0.00100252
0
0
0
-5.0965e-05
0
0.000152065
0
-7.34789e-05
0
0
0
0
0
0.000131568
-0.000422217
0
1.86522e-05
0.00017515
0
0
0
0
0.000108662
0
0
0
0
0
0
0
0
0
0
0
0
0
0
-6.99567e-05
-2.77809e-05
-0.000375769
0
-0.000190689
-6.20324e-05
-5.15849e-06
0
-0.00018437
0
0
-0.000350353
0
0.000189476
-0.000174284
-0.000169705
0
0
0
0
0
0
0
-3.20263e-07
0
1.68306e-07
-3.18012e-05
0
2.19895e-06
-0.000173118
-2.95519e-05
-2.53879e-05
0
0
0
0
0
0
0
0
0
0
0
0
0.0342693
-0.0145931
0.0477091
0.0234335
-0.0157579
-0.0416338
-0.0325509
0.0348575
-0.0620455
-0.0436992
0.0356263
-0.0741994
-0.049673
0.0373379
-0.0867357
-0.0483195
0.0364236
0.0855672
-0.05046
0.0398897
0.0956142
-0.074254
-0.0880267
0.133738
0.0467949
-0.0607733
-0.112587
-0.0442321
-0.0549444
0.0492717
-0.102189
-0.105403
0.050488
-5.50413e-05
0.000135696
-1.68877e-05
0
-2.17012e-05
-1.11938e-05
0
0
0
4.13223e-05
0
0
0
8.4727e-05
-6.68963e-05
0
0
0
-4.30192e-05
0.000111284
0.000418548
0
0
0
0
0
0
0
0
0
-2.88278e-05
0
0
0
0.0001607
-0.000292067
0.0795324
0
0.0476554
-0.00360636
0.0350968
0.152994
-0.00313085
0.0364637
0.00440473
-0.00854886
-0.000665293
0.002609
-0.00825306
-0.00529274
0.00160513
0.000560508
-0.00760569
0.00335259
0.0110856
-0.00571891
-0.00396469
0.008131
-0.00160173
0.00683499
-0.00327336
-0.0208231
0.0371015
-0.0106502
0.00329841
-0.0203115
0
0
0
0
0
0
0
0
0
0
3.77498e-06
0
0
0
0
0
0
0
0
0.000204099
6.53154e-05
3.45223e-05
0
-1.75152e-07
0
0
0
8.23373e-07
0
1.42826e-05
0
-4.24013e-05
-2.29202e-05
0.000237693
0
8.91973e-05
0
0
0
0.000327018
0
0
0
0
0
-0.100731
0.0612432
-0.161944
-0.121887
0.0605961
0.186421
-0.141221
0.0742535
-0.248588
-0.179982
0.126514
0.291806
-0.0736557
0.0498867
-0.100412
0.140374
-0.204554
0.103123
-0.28301
-0.171221
0.0905962
0.237765
0.0151492
0.18471
-0.208655
0.0541815
0.224409
0.250561
0.0459477
0.215454
-0.124826
0.01907
0.169691
-0.125229
-0.0488473
0.233607
-0.2657
-0.0214673
0.161814
0.164361
-0.137049
0.0404954
-0.225177
-0.0327612
0.0932096
0.183724
-0.0836248
0.12692
-0.129753
-0.121212
0.0348902
0.13758
0.0742701
0.0694839
0.0534395
0.0196373
-0.00689694
-0.0580956
0.0726942
0.0492693
-0.0217395
-0.020038
-0.0497767
0.0519397
0.0225886
-0.0832064
-0.0230949
0.055589
-0.0353163
-0.00407051
0.0247644
0.00707679
0.0169053
-0.0490382
0.0372827
0.0082614
-0.010294
0.0264247
-0.0599051
0.0470639
0.0109891
-0.0134299
-0.0328881
0.0500687
0.0128669
-0.0640037
-0.0194374
0.0358227
-0.0247043
0.0218221
0.0445848
-0.0192188
0.0134786
-0.0322855
-0.0197576
0.00433402
0.0161832
0.0763461
0.0257557
-0.0628562
0.0694109
0.0193274
-0.0498604
0.0767606
0.0247357
0.0614541
0.0181621
0.0755674
-0.0571954
0.0809735
0.0382003
0.0507037
0.081088
0.0295598
0.0581368
0.0477608
0.0913682
0.0298912
0.0268846
0.076857
0.0460756
0.00660976
0.0660793
0.0608169
-0.00131258
0.0626442
0.0634887
0.000568843
0.0578715
0.0491063
0.0014962
0.0488479
0.0312685
0.0289722
-0.0220823
0.0421939
0.0368472
-0.00814655
0.0290576
0.0940184
0.0148213
-0.0755163
0.0420902
0.0915811
0.00774175
0.0634348
0.0196567
0.0683621
-0.0393708
0.112975
-0.0344287
0.0876568
0.174565
0.0148144
-0.142774
0.0410729
0.0318868
0.0356373
-0.00367767
0.0538707
0.0430649
0.00508611
0.0599644
0.0513421
-0.00707417
0.0600039
0.047313
-0.0109988
0.0676105
0.0409734
-0.0168302
0.0698357
0.0451992
-0.0187231
0.0747633
0.0529927
-0.0194253
0.0615618
0.0836158
0.0587599
-0.0219997
0.02089
0.0514973
-0.0875672
-0.0579517
0.0396001
0.0820592
-0.049779
-0.0314398
0.0854627
-0.0678788
0.0421641
0.100275
-0.020607
0.0659665
-0.121548
-0.130454
0.110147
-0.0999469
-0.108889
-0.0360831
0.0326631
-0.133864
0
0
0.0274018
0
-0.358528
0.348751
0.159554
-0.130594
0.105212
0.207376
0.209086
0.214412
0.404525
0.211531
0.199278
0.479934
-0.213877
0.158913
-0.121295
0.409594
0.148702
0.276204
-0.147998
0.129509
0.294018
0.134419
0.116137
0.257481
0.115229
0.115744
0.228741
-0.107705
0.109007
0.220086
-0.109678
0.0854742
0.212405
-0.103671
0.149907
0.0374589
0.105895
0.180784
0.0414092
0.0976341
0.121644
-0.000940853
-0.110371
0.145907
0.00601415
0.107126
-0.0126888
0.107178
0.100599
0.0910274
-0.00482009
0.110643
0.0997359
-0.0140135
-0.110557
0.023891
0.101704
-0.0951616
0.036426
0.11659
0.0950066
-0.00390059
0.119763
0.0789663
-0.0757131
0.0583982
-0.0317995
-0.0197242
0.047771
-0.0771516
-0.0275458
0.0388125
0.0611989
-0.0309522
0.0325905
0.0554909
-0.0187216
0.0334458
0.0542233
-0.0114706
0.0411649
-0.0526894
-0.0098298
0.0428134
0.0502869
0.00525217
0.0352972
-0.0381733
0.0181959
0.0360528
-0.0263662
0.0240287
0.039888
0.0179912
0.0245421
0.0372974
-0.0103204
0.0260582
0.0304898
-0.00392736
0.000818423
0.0294821
0.0538378
-0.0596357
0.0706525
-0.0987265
0.00218646
-0.0215835
0.0523656
0.0208789
-0.0509198
0.0303242
-0.0041813
0.0150705
0.0122105
-0.0477427
0.0454124
0.0665123
6.64274e-05
-0.0867101
-0.188458
-0.0405571
0.0118468
0.0655777
-0.0416584
-0.00568674
0
0.00579349
0.000105147
0.0453055
-0.0601275
0.0870788
0.0236255
0.104344
-0.0118012
-0.0425163
-0.191893
-0.02735
0
0
0
0
0
0.000196261
0.00106887
-0.00096212
-0.00039666
0
7.29322e-05
1.54735e-06
6.98445e-05
2.61944e-06
0
0
0
0
0
0
0
0
0
-0.00027529
0
0
-0.00103681
0
-0.000655653
0
0
0
0
0
0
0
0
0
0
0.00329822
0.00212038
0
0
0
-0.000198276
0
0
-4.22512e-05
0
0
0
0
0
-5.05426e-05
0
-1.05308e-05
0
0
0
-3.95066e-05
-1.69088e-06
1.93151e-06
0
0
0
0
-0.000114214
3.29962e-05
0
0
0
0
0
0
0
0
0
0
0
-0.00020503
0
-0.000114481
0
0
0
-7.34646e-05
0
0
0
0
0
0
0
0
0
-0.000184496
0
0.000180305
0
0
0
-0.000924665
0
0.000366526
-0.0239489
-0.0262587
-0.0687308
-0.0959075
0.0607102
0.023836
0.0691596
0.0886343
0.0280429
-0.0289921
-0.0564789
0.0172279
-0.0344652
0.0495924
-0.0345054
0.0297826
-0.0599178
-0.0446015
0.0298658
0.0725221
-0.0442911
0.0321477
-0.0833728
-0.0446165
0.0367556
-0.0900265
-0.0488248
0.0439841
0.0947796
-0.0647516
-0.110041
0.0405375
-0.0553803
-0.103849
-0.0411125
0.0462453
-0.0956518
9.37421e-06
0
0
0
0
0
0
0.000186758
0
0.000151956
0
0
0
0
-8.3038e-05
0
0
7.51683e-05
0
3.02912e-06
-0.0130373
0.0283627
-0.0117396
-0.013314
0
0
0
0
0
0
0
0
0
-0.000131316
0
0
0
0
0
-0.0932601
0
0.00111612
0.035657
-0.00559086
0.00241027
0.00608109
-0.00133067
-0.0259143
-0.0390847
0.049793
0.0120387
0.00308068
0.00183055
0.00227707
0.00732159
-0.00128783
0.00126283
0.00395926
-0.00167547
-0.0108418
-0.008285
-0.00059608
0.0250946
-0.041073
0.00463795
0
0
-7.75139e-06
1.46377e-05
0
0
0
0
0
0
0
0
0
0
0
0
0
0
0
9.94585e-05
0.000176682
-0.000128677
0
0
0
0.00067007
0
0
-0.00147627
-0.000359509
0
0
0
0
-4.84862e-05
0
-6.12391e-06
0
0
0
0
0
0
7.66004e-05
-6.17063e-05
0
0
0
0
0
0
0
0
0
-0.0759475
-0.0529403
0.0408893
-0.110662
-0.115702
0.0568977
-0.17919
-0.144657
0.0624266
-0.193046
-0.212763
0.0630936
-0.237071
-0.219976
0.0595492
0.226674
0.0530783
-0.120985
0.144934
-0.158479
0.00365186
-0.198611
-0.125051
0.0476751
0.0919495
-0.0287803
0.118862
-0.195045
0.031896
0.152452
-0.306558
0.0798679
0.170809
-0.0778509
0.00492076
0.134424
0.0841639
-0.063047
0.00644295
0
-0.0483227
0
0.0116619
-0.132659
-0.0122657
0.0798234
-0.0338371
-0.00816726
0
-0.0490048
0
0
0
0
0
-0.0699162
-0.0229983
0.0530143
-0.0754684
-0.018535
0.057558
-0.0803151
-0.0221942
-0.0561624
-0.0939962
-0.026479
-0.0626013
-0.0266604
-0.00708361
-0.00961544
-0.035706
-0.0144586
0.0121003
-0.0481884
-0.017328
-0.0221861
-0.0742859
-0.0185023
-0.0479342
-0.0220242
0.0203486
-0.0403081
-0.0184847
0.0112113
0.029507
-0.0184661
-0.000584889
-0.0156849
0.0787841
0.0130494
-0.0734546
0.0693925
0.0169158
0.0546056
0.0765318
0.0184026
-0.0601563
0.00712845
0.0713309
0.0630292
0.0827081
0.0645083
0.00724837
0.0763237
0.0811955
0.00195068
0.0773376
0.0727284
0.025266
-0.0486265
0.0707482
0.0254292
0.0525199
0.00269527
0.0701607
0.0693771
-0.00456292
0.0671085
0.0765983
0.000891979
0.0666861
0.0657791
0.00901362
0.0596646
-0.0417253
0.00441533
0.0474519
-0.0292405
0.0252463
-0.0152225
-0.0297972
0.0342857
-0.000138942
0.0187192
0.0295116
0.0840554
0.0641109
0.0657645
0.0146732
0.0731103
0.102174
0.00588273
0.0521522
0.0153788
0.0591772
0.0525347
0.0865381
0.0181453
-0.0277385
0.107815
0.024633
0.0777955
0.0471838
0.0378293
0.046225
-0.000114913
0.0542648
0.0498791
0.0029594
0.0581448
-0.00473832
0.0506173
0.0541885
0.0473107
-0.0083396
0.0532334
0.0371184
0.0131921
0.0632757
0.0352338
-0.0168895
0.0727946
0.0488978
0.0166515
0.0784307
0.0615442
-0.0190291
0.0819403
0.0600427
0.023374
0.0535203
0.0430441
0.0524002
-0.00632205
0.0868859
0.0615597
0.0575634
-0.02554
0.0267736
0.0530286
0.0422176
-0.0487171
-0.017989
0.100148
0.0662976
-0.0800835
0.0576604
0.00566859
0.0184144
0.0505099
-0.0372552
-0.0398972
-0.0115918
-0.0812306
-0.0595397
0.0349838
-0.00169465
-0.0434144
0.00281614
0
0.00116607
-0.000142167
-0.146152
0
0.0033964
0.206496
0.0426837
0.0446497
0.0852044
0.192301
0.212079
0.250198
0.410064
-0.24735
0.249177
0.135532
0.164867
0.440668
0.0979794
0.200235
0.16126
0.307544
-0.143654
0.1286
0.303742
-0.119755
0.110347
0.234158
0.103819
0.109515
0.210949
-0.106576
0.093942
0.211542
0.0945561
0.072199
0.178243
0.0839443
0.14046
0.0332835
-0.104221
0.152674
0.0299663
-0.0794537
0.115274
-0.00436364
0.0999001
0.133741
0.00475886
-0.0970217
0.00564511
0.104502
0.103408
0.0960858
-0.00582596
0.0953009
0.110811
-0.0108864
0.0985333
0.0126928
0.0871951
0.085508
0.0215563
0.0970488
0.0780453
-0.0680477
0.0927291
-0.0228645
0.0199936
0.0562697
-0.0244011
0.0347137
0.0512759
-0.0274872
0.0285639
0.0481128
-0.0236926
0.0303032
-0.0509278
-0.00886127
0.0332719
0.051185
-0.00534008
0.0408881
-0.0489428
-0.00961902
0.037298
0.0393525
0.00238244
0.0229088
0.0248325
0.0172127
0.0279051
0.0166279
0.0260441
0.0384335
-0.0124978
0.0300421
0.042322
-0.00767333
-0.00432021
0.0415212
-0.0267026
0
0
0
-0.01101
0
0.0415136
-0.0140357
-0.0952837
-0.0178945
0.0588972
0.0755965
0.00660925
-0.0551787
-0.0709139
0
-0.0787665
0
0
-0.0928159
0
0
-0.0690864
0
0.0271103
0
0
0
0.0198015
-1.07057e-06
0
-0.0352327
0
0
0
0
0
0
0
0
0
0
-0.00113639
0.000333695
0.000973694
0
-0.000180039
0
0
0
0
-0.000408783
0
-9.89684e-05
0
0
0
0
0
0
0
0
0
0
-0.000136673
7.86493e-05
-0.00019684
0
0
0
0
0
0
0
0
-0.000531509
0
-0.00245046
0
-0.00840915
0
0
4.28709e-05
-8.94884e-05
-1.29939e-05
0
-2.5523e-05
-4.03271e-05
-8.94157e-05
-3.37885e-05
0
5.10863e-06
0
0
-7.76288e-05
0
-5.15587e-06
0.000124908
-5.93604e-05
0
5.8598e-05
0
-7.92358e-05
2.14277e-05
-0.000172877
0
0.00011058
0
0
0
0
1.48301e-05
0
-4.42522e-05
0
2.10543e-05
-5.11043e-06
0
0
0
-8.38912e-05
1.36684e-05
0
0
0.000161348
0
-1.78683e-06
0
0
0
0
0
-6.42803e-05
0
0
0
0
0
-2.54191e-05
0
-7.81288e-07
0
0
0
-0.00019357
0
0
0
0
0
0
-0.000124655
3.69777e-05
-0.0276266
-0.031331
0.0585945
0.103609
-0.0228039
0.0746908
0.0980797
-0.0229316
0.0626044
-0.0230935
0.0870576
-0.0618191
0.068828
-0.0865656
0.0180209
-0.0345834
0.0577728
0.0143719
-0.0461191
-0.0495874
-0.0372316
0.0252992
-0.0646209
-0.0406096
0.028113
0.073277
-0.042999
0.0326642
0.0837609
-0.0455551
0.0411006
-0.0888248
-0.0489573
0.0401486
-0.0852905
-0.0537276
-0.0953725
-0.0401064
0.0384009
-0.0918243
0
0
0
0
0
0
0
7.44066e-05
0
0
0
0.0168846
0.0187686
0.00074838
-0.00528993
0
0
0
0
0
0
0
0.000961342
-0.0368683
3.88876e-05
0
2.3833e-05
-1.50626e-05
1.51238e-05
2.95856e-05
0
1.44894e-05
0
0
0
0
0
0
-0.0447513
-0.0423773
-0.0574869
-0.0188423
0.00478637
0.0195069
0.0023032
0.00505019
0.0125037
0.00857001
-0.0336733
-0.0570904
-0.0105093
0.00557591
0.00732524
-0.00966829
-0.000146416
0.00325266
0.0160692
-0.0150923
0.00207217
-0.0344198
-0.051069
0.00407077
-7.67456e-05
0
0
1.88397e-05
7.98704e-05
-3.57478e-05
0.000104606
9.65394e-05
-2.48008e-05
2.80585e-05
2.96199e-05
0.000124402
-3.63224e-05
0
6.60086e-05
0
0
0.000304068
0
0
0
0
0.000182419
4.00105e-06
3.88988e-05
0
0.000234438
-8.39054e-06
0.002132
0
0
-0.000593413
0
0.000457455
0
0
3.2391e-05
-3.58172e-05
0
0
0
0
0
0
0
0
0
0
0
1.50197e-05
0
0
0
0
0
0
0
0
0
0
0
0.000532134
0.000526393
0
0
0
-0.0680008
-0.0395291
-0.0342791
-0.0902962
-0.114335
0.0249797
-0.108852
-0.146275
0.0367331
-0.181951
-0.197607
0.0409575
0.148669
-0.179726
-0.0459452
-0.150861
-0.128059
0.0364947
-0.093914
0.0230647
-0.161932
0.145095
-0.0259394
-0.0637051
0
-0.0349749
0
0
-0.0568435
-0.0305777
-0.0952295
0.0274621
0.0932049
0.0651141
0.0856528
0.102355
-0.00921015
-0.00534639
-0.0160276
0.0701841
0
0
0
-0.0653493
0
0.0228056
0
0
0
0
0
0
0
0
0
-8.63689e-05
0
5.80187e-05
-0.0838319
-0.02081
-0.0639662
-0.0875573
-0.0218972
-0.0663641
-0.0946602
-0.0276807
0.0648852
-0.0906983
-0.0356834
0.0501282
-0.0767305
-0.0451529
-0.0432979
0.0415723
0.0311396
-0.0547612
-0.0341901
0.0757797
-0.0208098
-0.0106082
0.00734613
-0.0313243
-0.016391
0.0101305
-0.0583342
-0.0198991
0.0276014
-0.0828628
-0.0223094
0.0532124
-0.0193369
0.0160972
-0.0303981
-0.0247451
0.00600768
-0.027662
-0.0244185
-0.00409367
0.0185703
0.0768782
-0.00684841
-0.0885508
0.0640386
0.00783955
0.060212
0.0681094
0.00544368
0.0611057
-0.005999
0.0647598
0.0717587
0.072995
0.0179629
0.0573021
0.0744702
0.00919926
-0.0694004
0.0789442
0.00507951
0.0689268
0.0772517
0.01476
-0.0594253
-0.00247322
0.0723939
-0.0760552
0.00272456
0.0729647
-0.0705335