/*--------------------------------*- C++ -*----------------------------------*\
  =========                 |
  \\      /  F ield         | OpenFOAM: The Open Source CFD Toolbox
   \\    /   O peration     | Website:  https://openfoam.org
    \\  /    A nd           | Version:  8
     \\/     M anipulation  |
\*---------------------------------------------------------------------------*/
FoamFile
{
    version     2.0;
    format      ascii;
    class       volScalarField;
    location    "10920";
    object      alpha;
}
// * * * * * * * * * * * * * * * * * * * * * * * * * * * * * * * * * * * * * //

dimensions      [0 0 -1 0 0 0 0];

internalField   nonuniform List<scalar> 
526318
(
0.000372341
0.000552328
0.000551393
2.87568e-05
0.000527626
0.000314549
0.000963191
0.000809543
0.00076998
0.000875122
0.000446465
0.000590436
0.000514132
9.0503e-05
0.000352091
0.000360715
0.00056868
0.000540424
0.000313601
0.000273536
0.000298356
0.000455046
0.00216897
0.000783095
0.00045851
0.00148688
0.000143721
0.000817357
0.000653508
0.000516062
0.000320018
0.000278807
0.000417292
0.000481649
0.000651027
0.000344571
0.000244311
6.37171e-05
0.000321748
0.000446781
8.14195e-05
0.000582876
0.00225593
0.000973851
0.00712006
0.00300377
0.00267738
9.29176e-05
0.000458525
0.00140198
0.000207935
0.000397874
0.000237766
0.000818193
0
0.00380019
0.00410741
2.44253
0.000208526
0.000387901
0.000478593
0.000413445
0.000638641
0.0002965
0.000311142
0.000384155
0.000511268
0.000449524
0.000433488
0.00087126
0.000459804
0.000149217
0.000904797
0.00138281
0.000268106
0.000528074
0.00112458
0.00159754
0.00168423
0.0017616
0.000982715
0.00139416
0.00152645
0.00178648
0.00136015
0.000302849
0.000116516
0.00062581
0.001079
0.000458565
0.000519916
0.00055513
0.000914112
0.00142254
0.000717401
0.000828763
0.000749188
0.00109354
0.00130703
0.000199874
0
0
0
0
0
0
0.000690906
0.0310575
0.00202674
0.00236959
0.00169829
0.00125574
0.000626345
0.00088474
0.00021979
0.000639604
0.000263212
0.000539762
0.000349019
0.0004419
0.00029466
0.00014573
0.00101296
0.000693686
0.00100448
0.00121179
0.000501222
0.000466317
0.00271554
0.000895265
0.00208513
0.00110734
0.00304217
0.00339605
0.00308208
0.00980479
0.00533905
0.0103167
0.00682882
0.0201471
0.0109279
0.00422471
0.00247663
0.0092225
0.00804723
0.0202289
0.00572269
0.00904603
0.00105738
0.0277334
0.00731803
0.045035
0.0126248
0.0255321
0.0100614
0.0521963
0.0037379
0.0133369
0.0522296
0
0.0161252
0.098158
0.0067235
0.000612723
0.000634933
0.000669669
0.000178063
0.0012155
0.000509967
0.00104166
0.000990835
0.000690173
0.00218722
0.00195494
0.00188871
0.00223297
0.00090336
0.00116686
0.00167569
0.00059892
0.000642157
0.00118791
0.00103255
0.00185793
0.00178964
0.00325491
0.00294544
0.00308159
0.00522514
0.000962713
0.00145911
0.00559364
0.00486027
0.01077
0.00509954
0.0045949
0.00623118
0.007318
0.010965
0.0136841
0.0107572
0.00670771
0.0138402
0.00398733
0.0087783
0.00517825
0.0169839
0.00895733
0.0131103
0.00793179
0.00117871
0.00120707
0.000969062
0.000817132
0.000779903
0.000137695
0.000730588
0.000851201
0.000414362
0.00734896
0.0119799
0.00546512
0.00162436
0.00042439
0.00127162
0.000202856
0.000749542
0.000897928
0.000845229
0
0
0
0.0166262
0
0
0
0
0
0
0.000423809
0.000489482
0.000503231
0.000354216
0.000427152
0.000314721
0.000548217
0.00068608
0.00110648
0.00154357
0.000797342
0.000894917
0.000367511
0.000379951
0.000433286
0.000128728
0.000589614
0.000527174
0.000668137
0.000980715
0.000457901
0.00110119
0
0
0
0
0
0
0
0
0.00447853
0.0112377
0.00186724
0.000859601
0.000479993
0.000820489
0.000338677
0.000490854
0.000456022
0.000342838
0.000380183
0.000125694
0.00136754
0.000665672
0.000939347
0.00120895
0.00288901
0.00272877
0.00890301
0.0093612
0.0101778
0.00392022
0.0201792
0.00738801
0
0.0958284
0.0129749
0.00874801
0.00739078
0.010896
0.0132065
0.0129432
0
0
0.0313409
0.00478363
0.141708
0.0179819
0.0320877
0.359618
0.136556
0
0
0
0
0
0
0.0106482
0.0189675
0.00800568
0.0110368
0.00095066
0.00107075
0.00134847
0.00104816
0.00187847
0.00155632
0.00141184
0.00153959
0.0017081
0.0011275
0.00447118
0.00446963
0.000685637
0.00201505
0.000694627
0.00171204
0.00551457
0.000884516
0.000841475
0.00168532
0.00497641
0.00186583
0.00228064
0.00458403
0.00177135
0.00197439
0.0061932
0.00205928
0.00218663
0.004698
0.00787635
0.00250981
0.00869013
0.0059439
0.0122521
0.00508286
0.0118891
0.00370859
0.00960812
0.00997846
0.010218
0.00575142
0.00361105
0.00652347
0.0110721
0.00491044
0.00421911
0.00660326
0.00263092
0.00424095
0.00420841
0.0022503
0.00141372
0.00388784
0.00491598
0.00509194
0.00411195
0.000596985
0.00029031
0.00143747
0.00110257
0.00144614
8.30992e-05
0.000594208
0.00117073
0.000834136
0.000587589
0.00108673
0.00695158
0.0430696
0.090174
0.0256426
0.0044491
0.00155254
0.0012496
0.00152989
0.00106062
0.00104957
0.00203371
0
0
0
0
0
0
0
0
0
0
0
0
0
0
0
0
0.00037278
0.000209176
0.000331585
0.000181721
0.000440805
0.0002299
0.000556132
0.000879939
0.000836365
0.000740115
0.000353901
0.000551033
5.85655e-05
0.000585794
0.000728512
0.000304874
0.000450296
0.000679211
0.000839619
0.000597596
0.00161316
0.00103597
0
0.00949859
0.0111829
0
0
0
0
0
0.00618435
0.00832533
0
0
0
0
0
0
0
0
0
0
0
0
0
0
0.172665
0
0.00361224
0.00245709
0.000788616
0.00124545
0.000503683
0.000352719
0.000200416
0.000397796
0.000467957
0.000279157
0.0003807
7.01865e-05
0.00275194
0.000416737
0.00134343
0.00217811
0.0015865
0.0070596
0.000657608
0.0151975
0.0053988
0.00407199
0.0940573
0.0353341
0
0
0.0413345
0.277382
0
0.0178278
0.0454367
0.00680577
0
0
0
0
0
0
0
0
0
0
0
0.0057036
0.0031429
0.00604499
0.00695697
0.00442858
0.00203868
0.00164311
0.00359297
0.00732337
0.00869236
0.00564164
0.00300912
0.0244718
0.152574
0.00244801
0.000816341
0.00100324
0.00399406
0.00490199
0.00308568
0.00485626
0.00333909
0.00322467
0.00343895
0.00338559
0.00652775
0.0143958
0.00438992
0.00356056
0.00405692
0.0304306
0.0116914
0.0691256
0
0
0.00188791
0.00462747
0.00157659
0.00051386
0.00331483
0.00559626
0.00766983
0.00536462
0.00606521
0.00296803
0.00453609
0.00407775
0.00636745
0.00727919
0.00652781
0.000879423
0.00413426
0.00234667
0.00490238
0.00276816
0.0100817
0.0060327
0.00468917
0.00464413
0.00332559
0.00185303
0.00712619
0.00296194
0.00190329
0.00423893
0.00180612
0.00403043
0.00117969
0.00392082
0.00269199
0.0018
0.00174314
0.00129911
0.000642133
0.00178348
0.000928823
0.000303006
0.00052434
0.000484889
0.00139294
0.000511769
0.00119774
0.00924951
0.0115244
0.00147293
0.00171608
0
0
0.00484542
0.00774433
0.00333484
0.00309333
0.00788837
0.00942878
0.0197692
0.0646431
0
0
0
0
0
0
0
0
0
0
0
0
0
0
0
0
0
0
0
0
0
0
0
0
0
0
0.00848942
0
0.00024235
0
0.00367416
0.00920383
0
0
0
0
0
0
0
0
0
0
0
0
0
0
9.6483e-05
0.000185584
0.000355687
0.000198982
0.00023294
0.000333711
0.000569315
0.000194088
2.11052e-05
0.000188872
0.000700093
0.000295088
0.000100059
0.000519149
0.000239277
0.000600798
0.00053897
0.000433389
0.000289913
0.00102665
0.000704055
0.00140614
0
0
0
0
0
0
0
0
0
0
0
0
0
0
0
0
0
0
0
0
0
0
0
0
0
0
0
0
0
0
0
0
0
0
0.0046605
0.0219112
0.00121386
0.00283128
0.00136381
0.000677797
0.000621202
0.000441451
0.000306521
0.000274415
0.000539094
0.000184177
0.000369107
0.000468772
0.00302609
0
0
0
0
0
0
0
0
0
0
0
0
0
0
0
0
0.00357857
0.00176465
0.00293964
0.00537951
0.0160219
0.00608571
0.0782702
0.0625816
0
0
0
0
0
0
0
0
0
0
0
0
0
0
0
0
0
0
0
0
0
0
0
0
0.00197789
0.00175369
0.00100923
0.00101562
0.00076007
0.00251676
0.00122445
0.00115136
0.000647481
0.000744624
0.00449125
0.00133006
0.00451779
0.000213779
0.00192229
0.020863
0.00186223
0.00469239
0
0.12085
0.0206679
0
0.00270586
0.00860002
0.0054716
0.00786581
0.0087738
0.00662817
0.00617759
0.00972063
0.131242
0.0304412
0
0.00936091
0.0213404
0.0715704
0
0
0
0
0
0.0413593
0.0140523
0.326093
0.0127056
0.0021364
0.0036659
0.00464724
0.00700528
0.00702008
0.00395473
0.00790182
0.00584531
0.00070684
0.00217914
0.00308754
0.00368666
0.00322916
0.00423782
0.00346593
0.00281013
0.00106351
0.000561864
0.0024432
0.00145278
0.00706571
0.0028035
0.00359638
0.00164746
0.00202333
0.00410098
0.00123909
0.00390307
0.000790111
0.000983906
0.00120317
0.000972444
0.000677946
0.00084735
0.000578642
0.000275837
0.00093951
0.000856187
0.000733202
0.000524699
0.000685434
0.000464686
0.000678396
0.000738486
0.000659137
0.000594466
0.000462841
0.00042499
0.00032218
0.000365565
0.000331649
0.000367706
0.00039618
0.000308852
0.000294149
0.000380696
0.000452406
0.000310791
0.000397493
0.000274221
0.000464158
0.000359887
0.0004077
0.000373924
0.000409092
0.00032405
0.000367258
0.000367149
0.00036217
0.00040413
0.000296738
0.000383444
0.000440307
0.000389065
0.000364094
0.000371563
0.00715973
0.00928265
0.00109828
0.00015402
0.00150866
0.0011219
0.0023115
0.329503
0.00758669
0
0
0
0
0
0
0
0.0155148
0
0
0
0
0
0
0
0
0
0
0
0
0
0
0
0
0
0.00727826
0
0
0
0
0
0
0
0
0.00906243
0
0
0
0
0
0
0
0
0
0
0
0
0
0
0.00268926
0.00025598
0
0
0.00061996
0
0
0
0
0
0.0023334
0.00532404
0
0.00354989
0
0
0
0
0
0
0
0
0
0
0
0
0
0
0
0
0
0
0
0
0.011452
0
0
0.000177831
0.000303257
0.000338007
0.000506873
0.000223245
0.000154427
0.000534166
0.000821206
0.000594864
0.000289589
0.000208426
0.000523541
0.000341597
0.000812503
0.000720077
0.00194909
0.00242442
0.000757306
0.000731382
0.000425533
0.001057
0.000921396
0
0
0.00475412
0.00346349
0
0
0
0
0.00813188
0
0
0
0
0
0
0
0
0
0
0
0
0
0.0102679
0.0084224
0
0
0
0
0.0602062
0
0.00411729
0.0019887
0.00185419
0.00148495
0.00140527
0.000675016
0.000668793
0.000857822
0.000554394
0.000695191
0.000869706
0.000542137
0.000579585
0.00060411
0.00336172
0
0
0
0
0.000124887
0
0
5.53259e-05
0
0
0
0
0
0
0
0
0
0
0
0
0
0
0
0.47909
0
0.00312796
0.00397965
0.009082
0.00674754
0
0
0
0
0
0.004641
0
0
0
0
0
0
0
0
0.00731635
0.195704
0
0
0
0
0
0
0
0
0
0
0.00131675
0
0.000782172
0.000689033
0.000815422
0.00201986
0.00157807
0.00145876
0.00060408
0.00117057
0.000374631
0.000440086
0.000580112
0.000658896
0.000430635
0.000401515
0.000437272
0.000343767
0.000393164
0.000498409
0.000449877
0.000532188
0.000495049
0.00042498
0.000435794
0.000453869
0.000323679
0.000374179
0.000426877
0.000348377
0.000487277
0.000436295
0.00157553
0.0120617
0.00233412
0.000567138
0.0127874
0.0265937
0.00661314
0.01145
0
0.271508
0
0.131633
0
0.0026197
0.0197061
0.00815764
0.011016
0.00873022
0.138132
0
0
0
0
0
0
0
0
0
0
0
0
0
0.0687862
0
0.0137882
0.057767
0.00458972
0.00772013
0.00296485
0.00882056
0.00382605
0.00447796
0.00417445
0.00602631
0.00492803
0.00111373
0.00282114
0.00423718
0.004659
0.00310905
0.00309667
0.00125615
0.00201321
0.00297705
0.00363889
0.00175574
0.00367613
0.00190513
0.00183347
0.00171344
0.00199146
0.00130813
0.00174508
0.00202358
0.000269431
0.000683202
0.000304489
0.0010507
0.00106738
0.000584789
0.000800349
0.000413713
0.00078426
0.000661638
0.000887687
0.000801652
0.000448494
0.000463411
0.000397857
0.000428998
0.000348752
0.000407658
0.000325997
0.000381502
0.000358953
0.000362034
0.000246063
0.000361209
0.000293298
0.000308902
0.000215203
0.000284408
0.000323466
0.000303604
0.000228679
0.000305654
0.000265291
0.000224623
0.000224227
0.000206464
0.000284145
0.000192761
0.000230513
0
0
0.671853
0.00716708
0
0.0771781
0.00472132
0.0113837
0.00979672
0
0
0
0
0.355375
0
0
0
0
0
0.0159919
0.0121995
0
0
0
0
0
0
0
0
0.00732734
0.023154
0
0
0
0.00884141
0
0
0
0
0
0
0
0.00996239
0
0
0
0
0
0
0
0
0.000128499
0
0
0
0
0
0
0
0
0
0
0
0
0
0
0.0048406
0
0
0
0
0
0
0
0
0
0
0
0
0
0
0
0
0
0
0.000300427
0.000391037
0.000476162
0.000494645
0.000631116
8.85576e-05
0.000472044
0.000331319
0.000225197
0.000641073
0.0008025
0.000146015
0.00140166
0.00122556
0.00290327
0.00916841
0.0112746
0.00246498
0.0011531
0.000773136
0.000831439
0.000975365
0.00270027
0
0.000130522
0
0
0
0
0
0
0
0
0
0
0
0
0
0
0
0
0
0
0
0
0
0
0
0
0
0.0134547
0
0.00318247
0.00175235
0.000656758
0.000875864
0.000682617
0.00118552
0.000975771
0.000875746
0.00091154
0.000664153
0.000348327
0.000506923
0.000463591
0.000945587
0
0
0
0
0
0
0
0
0
0
0
0
0
0
0
0
0
0
0
0
0
0
0.438068
0
0
0
0
0
0
0
0
0.0239614
0.0265044
0
0
0
0
0
0
0.0283719
0.205955
0
0
0
0
0
0.00128498
0.00205871
0
0
0
0
0
0
0
0
0
0
0
0
0
0
0
0
0
0
5.75521e-05
8.53113e-05
0.000184633
5.97471e-05
0.000106014
0.000123026
0.000143647
0.000118831
8.53671e-05
0.000110328
3.96095e-05
0.000116039
4.83677e-05
0.000111712
0.000186726
0.0002313
0.000240398
0.00019865
0.000147202
0.00023114
0.000277674
0.000236998
0.000122468
0.000216789
0.000194942
0.000135546
0.000207993
5.41582e-05
9.09408e-05
0.000343758
0.00036159
0.0003199
0.000374804
0.000343487
0.000265332
0.000634191
0.000610067
0.000729263
0.00185044
0.00169152
0.00173437
0.000729212
0.000845488
0.000466879
0.000397529
0.000617874
0.000426796
0.000519427
0.000415745
0.000418568
0.000370871
0.000541664
0.000438129
0.000594316
0.000526753
0.000575987
0.000499542
0.000556113
0.000542156
0.000420444
0.000503926
0.000552682
0.000593847
0.00057444
0.009105
0.00369749
0.00624685
0.0030524
0.00114636
0.000855513
0.0500103
0.0167622
0
0
0.000153591
0.000175571
0.000150193
0.000161654
0.000147764
0.00010402
0.00012476
8.77213e-05
7.61754e-05
0.000101335
2.35076e-05
0.000135927
9.44676e-05
8.31175e-05
2.38267e-05
0.000152692
8.48883e-05
8.55342e-05
0
0
0.00281687
0.0186103
3.13312
0.0123655
0.162068
1.99667
0.00237808
0
0.00650884
0.0100177
0
0
0
0
0
0
0
0
0
0
0.0486193
0
0.0894637
0
0.00921025
0.0104433
0.00412224
0.0128845
0.00205951
0.00415647
0.00333742
0.00200849
0.00142329
0.00448353
0.00321084
0.0038455
0.00241511
0.00209372
0.00315527
0.00202979
0.00188738
0.00242398
0.00218662
0.0018128
0.00314813
0.00190598
0.00092491
0.00194501
0.000809524
0.00126781
0.00111454
0.00132985
0.00136939
0.0005988
0.00119926
0.00142356
0.00125062
0.000816038
0.00100038
0.000955531
0.00109372
0.000973645
0.00057423
0.000588878
0.000450646
0.000488461
0.0004168
0.000450618
0.000399292
0.000341095
0.00037238
0.000377438
0.000289392
0.000256258
0.000207166
0.000218908
0.000113659
0.000221629
0.000126738
0.000290658
0.000154475
0.00012648
0.000238624
0
0
1.2296
0
0
0
0
0
0
0
0
0
0
0
0.00830668
0
0
0
0
0.0254562
0
0
0
0
0
0
0
0
0.00357971
0.0040136
0.0375729
0
0.00115047
0
0
0
0
0
0
0
0
0
0.0131292
0
0
0
0
0
0
0
0
0.209524
0
0
0
0
0
0
0
0
0
0
0
0
0.00407068
0
0
0
0
0.0122563
0
0
0
0
0
0
0
0
0
0
0
0
0
0
0
0
0
0
0
0.0026593
0
0
0
0
0.00305218
2.98365e-06
0.000256635
0.000151075
0.000106589
3.14111e-05
7.73052e-05
0.000337316
0.00025908
0.000305563
0.000269706
0.000333418
0.000241863
0.000293807
0.000186374
0.000384655
0.000636381
0.000461944
0.00102658
0.00157491
0.00107413
0.00229413
0.0125791
0.0027165
0.00121423
0.000924381
0
0
0
0
0
0
0
0
0
0
0
0
0
0
0
0
0
0
0
0
0
0
0
0
0
0
0
0.0426978
0.00195995
0.000338346
0.00102043
0.000387934
0.000374109
0.000301668
0.00138224
0.00072641
0.00065894
0.000494353
0.000492083
0.00075702
0.000582236
0.000243795
0.000633777
0
0.00106253
0
0
0
0
0
0
0
0
0
0
0
0
0
0
0
0
0
0
0
0
0
0
0
0
0
0
0
0
0
0
0
0
0
0
0
0.0715835
0.012957
0.0278125
0
0
0
0
0
0
0
0
0
0
0
0
0
0
0
0
0
0
0
0
0
0
0
0
0
0
0
0
0
0
0
0
0
0
0.000102421
9.76029e-05
0.000113448
0.000175796
0.000266543
0.000184814
0.000174108
0.000259766
0.000272234
0.000304691
0.000289606
0.000299099
0.000212775
0.000257817
0.000100136
0.000145638
0.000489806
0.000455123
0.000487615
0.000388896
0.000316382
0.000413597
0.000579107
0.000667769
0.000647544
0.000778307
0.00120483
0.00065835
0.000697949
0.000814896
0.00061323
0.000523629
0.000626297
0.000560294
0.000428546
0.000381515
0.000395838
0.000524963
0.000507082
0.000488729
0.000450683
0.00057698
0.000543615
0.000653237
0.000556991
0.000620561
0.000627301
0.000663591
0.000588979
0.000600314
0.000532702
0.0006668
0.000661747
0.00321785
0.00314914
0.00562734
0.000681629
0.00974056
0.00189888
0.000359579
0.00057059
0.0157181
0.158973
0
0.285257
0.000131944
0.00012394
0.000143871
0.000147872
0.000151147
0.000121741
0.000124322
9.62324e-05
0.000135553
0.000145965
0.000108194
8.60282e-05
9.1707e-05
5.08293e-05
7.80867e-05
7.38333e-05
5.59633e-05
0.000124471
1.21076e-05
0.000126005
0.000171573
0.000129492
5.23371e-05
3.88601e-05
9.22466e-05
0.00440444
0.0107079
0.00585003
0
0
0
0
0
0
0
0
0
0
0.0104762
0
0.00491008
0
0
0
0
0.00403977
0
0
0
0.0153254
0.00824764
1.92105
0.0679046
0.0015044
0.00717058
0.00318569
0.00477364
0.00118879
0.00233136
0.00239653
0.00167949
0.00147792
0.00181284
0.00206323
0.00160573
0.00209641
0.00248914
0.00199334
0.00266848
0.00143854
0.00211196
0.00146233
0.00235097
0.00138008
0.00160078
0.000964137
0.00106933
0.00131634
0.00133124
0.00133941
0.00136073
0.00149031
0.000995246
0.00105761
0.00109693
0.00107976
0.000690779
0.000660359
0.000466289
0.000501309
0.000451339
0.000455008
0.000352451
0.00042781
0.000404025
0.000343089
0.000279458
0.000292777
0.000124965
0.000121762
8.47724e-05
0.000128751
5.83978e-06
0.000156893
0.000172962
0.00010344
0.000272756
0
0
0
0
0
0
0
0
0
0
0
0
0
0
0
0
0
0
0
0
0
0
0
0
0
0
0.0065112
0
0.00899174
0.00231797
0
0
0
0
0
0
0
0
0
0
0
0
0.267042
0
0
0
0
0
0.0102465
0
0
0.153948
0
0
0
0.00428606
0.00407889
0
0
0
0
0
0
0
0.0088759
0.00873826
0
0
0.0103111
0.0142969
0
0
0
0
0.00744926
0
0.0102951
0
0
0
0
0
0
0
0
0
0
0
0
0
0
0
0
0
0.00461768
0
0
0
0
0
0
0
0
0.000139056
0.000362423
4.59437e-05
0.000323306
0.00012369
0.000112659
0.000151938
0.000118723
8.58596e-05
4.63662e-05
0.00057458
0.000282731
0.000421092
0.000283673
0.000545481
0.00029394
0.00038674
0.000616363
0.000665434
0.000696247
0.00080898
0.000922095
0.00280344
0.00350596
0.0161813
0.00545422
0.00144748
0
0
0
0
0
0
0
0.00389953
0.0383713
0
0
0
0
0
0
0
0
0
0
0.00011187
0
0
0
0
0
0.00101194
0.000207055
0.000570036
0.00223591
0.00058691
0.0015346
0.0012596
0.000541403
0.000336113
0.000328272
0.00114942
0.000890927
0.000307727
0.000346097
0.000499145
0.000437785
0
0
0.00100031
0
0
0
0
0.000193601
0
0
0
0.0297797
0
0
0
0.00809843
0
0.00649277
0.0131997
0
0
0
0
0
0
0
0
0
0
0
0.00502208
0
0
0
0
0
0
0
0
0
0
0
0
0
0
0.0305546
0.0352568
0.0093905
0
0
0
0
0
0
0.000825225
0
0
0.00214836
0
0
0
0
0
0
0
0.00321187
0
0
0
0
0
0
0
0.00297635
0
0.00482857
0
0
0
0
0
0
0
0.00396844
0.000211039
0.000139746
0.000155017
0.000407782
7.70707e-05
0.00024268
0.000125457
0.000338737
0.000455829
0.000272247
0.000303978
0.000182981
0.00015434
0.000132017
0.000320629
0.000312765
0.000289289
0.000286957
0.000247323
0.000211748
0.000227956
0.000112016
0.000576708
0.000566752
0.000473456
0.00050218
0.000447668
0.00037433
0.000613233
0.000749702
0.000237038
0.000938914
0.00071687
0.000825475
0.000514044
0.000797711
0.000457676
0.000507404
0.000408605
0.000569986
0.000495042
0.000417498
0.000531546
0.000587219
0.000475202
0.000567127
0.000584614
0.000642936
0.000629975
0.000590738
0.000658725
0.000608087
0.000630233
0.000694552
0.000604141
0.000648141
0.000704023
0.000584796
0.00782739
0.0101135
0.0027686
0.00133893
0.00141627
0.0052362
0.000751633
0.00101211
0.0249706
0.0175867
0.0218881
0
0.000160694
0.00015343
0.000150598
0.00013811
0.000164284
0.000173218
0.000179988
0.000199167
0.000130705
0.000170386
0.000122826
0.000109279
0.000118926
0.000123199
8.49026e-05
9.54293e-05
2.3888e-05
5.52527e-05
0.000120426
8.37428e-05
6.70644e-05
0.000119623
0.000156421
7.94255e-05
0.000141448
0
0
0
0
0
0
0
0
0
0
0
0
0
0
0
0
0.00407718
0
0
0
0
0
0
0
0.00915973
0.0227214
0.0486697
0
0.0163607
0.00450766
0.00586988
0.00752309
0.00383811
0.00291622
0.00159104
0.00189272
0.00168421
0.00167196
0.00250182
0.00205786
0.00272139
0.00225669
0.00135736
0.00183475
0.00230027
0.00145296
0.0018861
0.00163714
0.00155881
0.0014802
0.00135086
0.00155024
0.00108159
0.0013473
0.00127177
0.00171927
0.00103312
0.0010516
0.000986256
0.000775677
0.00064286
0.000545009
0.000515686
0.000492567
0.000417013
0.000451422
0.000337922
0.000414894
0.000325914
0.000294443
0.000114391
0.000143586
6.58212e-05
5.60003e-05
0.000113852
7.2917e-05
0.000191269
0.000202109
8.09677e-05
0
0
0.137154
0.000207954
0
0
0
0
0
0
0
0.0118681
0.00429877
0.0182424
0.0137497
0.0160148
0.00883762
0
0.0152272
0.019584
0
0
0
0.00706831
0
0.0064733
0.00731602
0
0
0
0
0
0
0
0
0.00023501
0
0
0
0
0
0
0.507058
0
0
0
0
0
0
0
0
0
0
0
0
0
0
0
0
0
0
0
0
0
0
0
0
0
0
0
0
0
0
0
0
0
0
0
0
0
0
0
0
0
0
0
0
0
0
0
0
0
0
0
0
0
0
0
0
0
0
0
0
0
0
0
0
0
0
0
0
0
0.000163728
0
0
0
0
8.03453e-05
0.000123018
0.000111777
4.45952e-05
0.000211158
0.000160236
0.000254008
0.000132968
0.000289277
0.000223721
1.97358e-05
0.000126141
0.000312277
0.000430854
0.000334077
0.00138656
0.000521117
0.000664248
0.000812634
0.000612546
0.00128911
0.000565206
0.00260346
0.000985517
0.00440036
0.00307466
0.0158627
0.00899062
0.00519929
0
0
0
0
0
0.0352411
0
0
0
0
0
0
0
0
0
0
0
0.0321823
0.0238065
0
0.00549326
0
0
0
0.000449498
0.000793474
0.000299814
0.000367993
0.00101557
0.00499594
0.00243169
0.00131215
0.00131708
0.00114871
0.000485605
0.000576284
0.000450199
0.000414872
0.000960795
0.000552801
0
0.0035448
0
0
0
0
0
0.000183485
0
0
0.00019792
0
0
0
0
0
0
0
0
0
0
0
0
0
0
0
0
0
0
0
0
0
0
0
0
0
0.00733226
0
0.0082315
0
0
0
0
0
0
0
0
0
0
0
0
0
0
0
0
0
0
0.0538166
0
0
0
0
0
0
0
0
0
0
0
0
0
0
0
0
0
0
0
0
0
0
0
0
0
0
0
0
0
0
0
0
0.014543
0.0103778
0
0
0
0
0
0
0.000219941
0.000239244
0.000212566
0.000645946
3.32806e-05
0.000836512
0.000390929
0.000833143
0.000501871
0.000242864
0.000226131
0.00019563
0.000262853
0.000346351
0.00036389
0.000300068
0.000328935
0.000247101
0.000301707
0.0004151
0.0003745
0.000548721
0.000577292
0.000492124
0.000545286
0.000485772
0.000467038
0.000455007
0.000776888
0.000162075
0.000750292
5.26791e-05
0.000497449
0.000464938
0.00014673
0.000496893
0.000587548
0.00064357
0.000587014
0.000591507
0.000487423
0.000688782
0.000583757
0.000615429
0.000517799
0.000549665
0.000664003
0.000535978
0.000602969
0.000504964
0.000656448
0.000749617
0.000607081
0.000661228
0.00059409
0.000670849
0.000644366
0.00225941
0.00254994
0.000596341
0.000298561
0.00103084
0.000835908
0.0015555
0.000323959
0.00326848
0.0161878
0.0111296
0
0
0
0
0.000218359
0.000295249
0.00019621
0.000153092
0.000200574
0.000168649
0.000228145
0.000194148
0.000140024
0.000222642
0.00013918
0.000138749
0.000156243
0.000128573
9.15297e-05
0.000100468
7.96443e-05
0.000101434
0.000112776
9.72151e-05
9.99574e-05
0.000123203
0.000151154
0.000143306
9.13931e-05
9.7796e-05
0
0
0
0
0
0.00628794
0.0114517
0
0
0
0
0.00422016
0.00578416
0
0
0
0
0
0
0
0
0
0
0
0
0.216724
0.0046116
0
0.00492046
0.00900304
0.00338023
0.00164597
0.00155045
0.00295157
0.00254115
0.00228053
0.00274395
0.00286723
0.00195533
0.00258373
0.00286738
0.00239046
0.0015213
0.00126887
0.00180599
0.00189081
0.00237086
0.00158168
0.00116247
0.00124978
0.00129077
0.0018085
0.00132949
0.00138594
0.00113548
0.00108464
0.000994154
0.000953772
0.000840038
0.000645861
0.000568017
0.000574804
0.000513014
0.00049349
0.000423282
0.000372746
0.00035354
0.000286949
0.00011705
0.000171721
0.000108962
4.96992e-05
0.000167116
0.000109568
0.000216951
0.00023344
0.000117864
0.000275569
0
0
0
0
0
0
0
0
0
0.0189373
0
0
0
0.0330702
0.0138738
0.0171751
0.010976
0.0126829
0.00665295
0
0
0
0
0
0
0
0
0
0
0
0
0
0
0
0
4.08913e-06
0
0
0
0.249128
0
0
0
0
0
0
0
0
0
0
0
0
0
0
0
0
0
0
0.263708
0
0
0
0
0
0.00269126
0.00184222
0.00470234
0
0
0
0
0
0
0
0
0
0
0
0
0
0
0
0
0
0
0
0
0
0
0
0
0
0
0
0
0
0
0
0
0
0
0
0
0
0
0
0
0
0.00741799
0
0.00281147
0
0
0.000871783
0
0
0.00016093
0.000102607
0.000132011
0.000187245
8.09274e-05
0.000157734
0.000242738
0.000463126
0.000263015
0.000211501
0.000244638
0.000205449
0.000104164
0.000141314
0.000307287
0.000286893
0.000218305
0.000107116
0.000240399
0.000322458
0.000781039
0.00126413
0.00128733
0.000328338
0.00138349
0.00122994
0.00347524
0.00124485
0.00152814
0.00839135
0.0129834
0.00711158
0.0270228
0
0
0
0.0142625
0
0
0
0.00928174
0
0
0
0
0
0
0
0
0
0
0
0
0.105679
0
0
0
0.000432912
0.0006601
0.000531719
0.000800874
0.0039194
0.00651729
0.00443904
0.00159011
0.000827763
0.00111572
0.0017287
0.000989415
0.00139858
0
0
0
0
0
0
0.0127518
0.00524529
0
0
0
0
0
0
0
0
0
0.189855
0
0
0
0
0
0
0
0.0056047
0
0
0.026948
0
0
0
0
0
0
0
0
0
0
0
0
0
0
0
0
0
0
0
0
0
0
0.00269872
0
0
0
0
0
0
0
0
0
0
0
0
0
0
0
0.000215923
0
0
0
0.00724204
0
0
0
0
0
0
0
0
0
0
0
0
0
0
0
0
0
0
0
0
0
0
0
0
0
0.00416814
0
0
0
0
0
0
0
0
0.000508366
0.000659135
0.00120431
0.00054766
0.000132651
8.04544e-05
0.000629605
0.000284534
0.00011696
0.000195675
8.22775e-05
0.000158388
0.000111044
0.000156254
0.000483314
0.000394536
0.000417635
0.000328751
0.00041226
0.000248089
0.000161718
0.000299163
0.000523905
0.000603404
0.000673212
0.00049547
0.000531972
0.00049294
0.000505747
0.000641265
0.000308844
0.000525628
0.000267032
0.000521792
0.000412539
0.000659851
0.000730787
0.000702988
0.000723698
0.000799195
0.000623997
0.000449112
0.000535336
0.000677456
0.000536652
0.000431596
0.000444463
0.000526758
0.000268716
0.000527671
0.000522246
0.0006309
0.000465343
0.000757362
0.000661786
0.000590548
0.000691985
0.000520884
0.00332712
0.00762477
0.000932957
0.000902602
0.000676526
0.0010999
0.00247062
0.00116582
0.00848138
0.00901236
0.0626934
0.0663134
0
0.0111024
0.000221311
0.000190941
0.000208586
0.000222528
0.000211925
0.000177345
0.00019882
0.000146393
0.000194704
0.000103353
0.000133371
0.000133788
0.000115724
8.21414e-05
0.000107879
0.000125985
0.000108536
0.000118879
0.000164041
0.000146312
3.49518e-05
0.00017177
0.000139153
9.73956e-05
8.60732e-05
0
0
0
0
0
0
0
0
0
0.00466452
0
0
0
0
0
0.000160747
0.000201863
0
0
0
0
0
0
0
0
0.294533
0.133045
0.00897767
0.00712165
0.000894494
0.0038032
0.00321632
0.00275308
0.00473176
0.003557
0.00321392
0.00395789
0.00261293
0.00203068
0.00180631
0.00263891
0.00232229
0.00162513
0.00157504
0.00126672
0.00166447
0.00235319
0.00147624
0.00134517
0.00135998
0.00109113
0.000963157
0.00141723
0.00109062
0.000788141
0.00100488
0.000748227
0.000949799
0.000592919
0.00065691
0.000528898
0.000553691
0.000422568
0.000416693
0.000305172
0.000313905
0.000152728
0.000148516
7.72543e-05
0.0001323
0.000120708
0.000149243
0.000224838
0.000183507
0.00019257
0.000237066
0.000216868
0.000180052
0
0
0
0
0
0
0
0
0
0.00114796
0
0
0
0
0
0
0
0.0181396
0
0
0.0179993
0
0
0
0.00653921
0
0
0
0
0
0.00165716
0
0
0
0
0
0
0
0
0
0
0
0
0
0
0
0.00573193
0.00934772
0.00923741
0
0
0
0
0.00371644
0
0
0.00443817
0
0
0
0
0.00717777
0
0.00095041
0
0
0
0
0
0
0
0
0
0
0
0
0
0
0
0
0
0
0
0
0
0
0
0
0
0
0
0
0
0
0
0
0
0
0
0
0
0
0
0
0
0
0
0
0
0
0
0
0
0
0
0
0
0.00306646
0
0
0
0.000223864
0
0
7.80369e-05
0.000121254
8.50087e-05
0.000114783
9.52164e-05
0.000136113
0.000126378
0.000135366
7.65222e-05
0.000355705
0.000141312
0.000174108
0.000445636
0.000195518
0.000130144
6.23307e-05
0.000166198
0.000346077
3.73095e-05
8.39178e-05
0.000176107
0.000211626
0.000160763
0.000139816
0.00331341
0.000153834
0.00279815
0.00141761
0.000765467
0.0020199
0.00804271
0.00379984
0.00514057
0.00504114
0.00516465
0.0558867
0.0657476
0
0
0.0798013
0.00105306
0
0
0.00503447
0
0
0
0
0.000310916
0
0
0
0.000156532
0
0
0
0.00164665
0
0
0
0
0.00111831
0.00129092
0.00257669
0.00254027
0.00377402
0.00269623
0.0010747
0.0014685
0.00207107
0.00174413
0.00122973
0.00383667
0
0
0.00195144
0
0
0.00230889
0.00146475
0
0
0
0
0
0
0
0
0.0271477
0.0998657
0
0
0.0661752
0
0.0025286
0
0
0
0
0.0518486
0
0.00735176
0.018578
0
0
0
0
0
0
0
0
0
0
0
0
0
0
0
0
0
0
0.021392
0
0
0
0.0153281
0
0
0
0
0
0
0
0
0
0
0
0
0
0
0
0
0
0
0
0
0
0
0.00199677
0.00472561
0
0
0
0
0
0
0
0
0.001838
0
0
0
0
0
0
0.00124345
0
0
0
0
0
0
0
0
0
0
0
0
0
0
0.00686225
0
0
0
0
0
0
0
0
0
0.00042317
0.000591514
0.00021201
0.000246116
0.000146947
8.41561e-05
0.000122638
0.000201759
4.29028e-05
0.000122587
8.59052e-05
9.13591e-05
0.000144921
0.000137022
7.36128e-05
0.000500177
0.000494226
0.000401487
0.000435808
0.000379312
0.000431748
0.000394616
0.000241139
0.000347213
0.000616832
0.000595496
0.000580084
0.000534734
0.000508302
0.000643057
0.000769793
0.000516502
0.000609343
0.000781207
0.000842263
0.000829159
0.000619531
0.000718996
0.000637982
0.000741718
0.000736378
0.000294165
0.000440736
0.000429305
0.000287024
0.000204165
0.000329671
0.000211843
0.000243577
0.000404716
0.000797343
0.000359235
0.000677479
0.000481728
0.000549412
0.000505091
0.000479403
0.000437094
0.00517122
0.00269452
0.0022948
0.00159189
0.00140156
0.000837588
0.00147138
0.00301932
0.0140962
0.00541238
0.0223259
0.00820345
0.00285894
0.00937079
0.000219355
0.000180773
0.000165808
0.000159268
0.00017033
0.000189647
0.000159455
0.000164005
0.000137569
0.00014197
0.000131108
0.000138799
0.000151122
0.000128554
0.000112718
0.000181377
0.000130776
9.78366e-05
0.000141028
0.000109894
0.000161114
0.000142367
1.05306e-05
9.08549e-05
0.00796587
0.0115063
0.0156667
0
0
0
0
0
0
0
0
0
0
0
0
0
0
0
0
0.00423964
0.00516485
0
0
0
0
0.0204462
0.0112169
0.0137998
0.00784747
0.00376497
0.0125448
0.00286378
0.00381772
0.0023244
0.00327949
0.00414069
0.00327677
0.00240189
0.00227564
0.002304
0.00192533
0.0023074
0.00178
0.00185858
0.00168078
0.00131543
0.00204811
0.00131477
0.00159806
0.00147306
0.000923264
0.00096885
0.00118713
0.00113023
0.000948353
0.000976991
0.000858545
0.000690928
0.000585164
0.000647659
0.00056771
0.000470127
0.000425985
0.000308111
0.000265256
0.000123119
0.000179729
0.000116547
0.000184398
0.000148718
0.000184431
0.000187878
0.000214875
0.000201461
0.000175356
0.000224626
0.000190002
0.000167784
0.00383012
0.00719101
0
0
0
0
0
0
0
0
0
0.00134968
0
0.00340852
0
0.00168699
0.00100879
0
0
0
0
0
0
0
0
0
0
0
0
0.00223703
0
0
0
0
0
0
0
0
0.0086078
0.00593252
0
0
0.00427449
0
0
0
0.00531274
0
0
0
0
0
0
0
0.00538382
0
0
0
0
0
0
0
0
0
0
0.000943256
0
0
0
0
0
0
0
0
0
0.000127071
0
0
0
0
0.00064654
0
0
0
0
0
0
0
0
0
0
0
0
0
0
0
0
0
0
0
0
0
0
0
0
0
0
0
0
0
0
0
0
0
0
0
0
0
0
0
0
0
0
0
0
0
8.777e-05
9.86362e-05
0.000129719
8.31016e-05
8.9022e-05
0.000201365
0.000204974
0.000133666
0.000153223
0.000131139
0.000160934
0.000141477
0.000160997
8.02272e-05
0.000127623
0.000161217
0.000172757
0.000140278
0.000144211
0.000156314
0.000284809
3.58697e-05
8.66489e-06
0.000168767
0.000164581
0.000210197
0.000119718
0.0011152
0.00416344
0.00471341
0.00770024
0.00767264
0.00360615
0.000141108
0.00352194
0.00687547
0.0359644
0
0
0
0.0035113
0.0561394
2.06549
0
0
0.00352211
0
0
0
0
0
7.4883e-05
0
0.00134667
0
0
0.0044015
0
0
0
0
0
0
0.0098765
0.00915151
0.00636745