/*--------------------------------*- C++ -*----------------------------------*\
  =========                 |
  \\      /  F ield         | OpenFOAM: The Open Source CFD Toolbox
   \\    /   O peration     | Website:  https://openfoam.org
    \\  /    A nd           | Version:  8
     \\/     M anipulation  |
\*---------------------------------------------------------------------------*/
FoamFile
{
    version     2.0;
    format      ascii;
    class       volScalarField;
    location    "11220";
    object      alpha;
}
// * * * * * * * * * * * * * * * * * * * * * * * * * * * * * * * * * * * * * //

dimensions      [0 0 -1 0 0 0 0];

internalField   nonuniform List<scalar> 
526318
(
0.000175199
0.000265501
0.000362204
0.000266484
0.000378985
0.000439973
0.00124431
0.00106057
0.00021503
0.000925565
6.3836e-05
0.000508916
0.000903886
0.000236278
0.000424831
0.000128183
0.000157665
0.000270564
0.00025004
8.50513e-05
0.000321309
0.000337191
0.00260491
0.000960361
0.000247651
0.00101802
0.00023111
0.000802406
0.000505006
0.000308647
0.000328018
0.000415777
0.0003624
0.000435961
0.000348914
0.000559563
0.000155768
0.000273497
8.62043e-05
0.000576764
0.000734094
0.000486555
0.00122252
0.00271797
0.00771032
0.00493815
0.00279089
0.000621503
0.000418034
0.0014177
0.000357048
0.000504633
0.000874106
0.000575844
0
0.00333213
0.00475248
0
0.00036736
0.000676589
0.000561539
0.00048984
0.00122104
0.000212032
0.000405679
0.000296655
0.000675993
0.000467245
0.000843649
0.000474258
0.000314187
0.00080727
0.000791714
0.0015465
0.000673718
0.000757118
0.00179063
0.0016795
0.00247358
0.00226204
0.00114721
0.00153528
0.00170833
0.00239711
0.00158104
0.000427682
0.00059088
0.000268815
0.000591215
0.000957851
0.00079136
0.00159874
0.00167089
0.000868978
0.00222715
0.00187234
0.000503665
0.000346173
0.000467785
0.000410212
0
0
0
0
0
0
0.00324429
0.140254
0.00351772
0.00253829
0.00191941
0.00189506
0.000729914
0.000570333
5.21706e-05
0.000524647
0.000338669
7.03454e-05
0.000523419
0.000778049
0.000446493
0.000562014
0.000203788
0.00143611
0.0005192
0.00115073
0.000908603
0.00175018
0.0013384
0.00169764
0.00366013
0.00244426
0.00417186
0.00146736
0.00232924
0.00490303
0.00316251
0.00255576
0.0035175
0.00952051
0.00682197
0.0133319
0.00734382
0.00739984
0.01569
0.0288237
0.00617426
0.0232329
0.0156591
0.00614126
0.00545565
0.0443076
0.0194684
0.0196597
0.00128338
0.059873
0.0127345
0.00517837
0.0567369
0
0.00933381
0.0941461
0.0153657
0.000820341
0.00024308
0.000626306
0.000555117
0.00127606
0.000592748
0.000494489
0.00152417
0.00279696
0.0024676
0.00177587
0.00374215
0.00399246
0.00147687
0.0024201
0.00106743
0.00168565
0.000692484
3.94952e-05
0.00133496
0.00343571
0.000875367
0.00323524
0.00280345
0.00258221
0.00323538
0.0011076
0.00232682
0.0049698
0.00254812
0.00281555
0.00339768
0.00614338
0.00334111
0.00518681
0.00990083
0.000974763
0.0070745
0.0146198
0.0159114
0.0105717
0.00270455
0.0154542
0.0269317
0.00713679
0.0164035
0.00826736
0.000362457
0.000904268
0.000519847
0.000772161
0.000270074
0.000696768
0.000565958
0.000894553
0.000415348
0.00380195
0.00516808
0.00533528
0.00272254
0.000872878
0.00106576
0.000813337
0.000508275
0.000710482
0.00106266
0
0
0
0.016183
0
0
0
0
0
0
0.000353318
0.000661189
0.000371423
0.000538007
0.0003176
0.000774794
0.000784302
0.000374568
0.00134032
0.00153455
0.00111112
0.00104031
0.00073683
0.000599884
0.000343081
0.00020799
0.000708199
0.00101473
0.0011744
0.000779793
0.00115285
0.000588564
0
0
0
0
0
0
0
0
0.00448066
0.024549
0.00245953
0.0019903
0.000825235
0.00107399
0.00035037
0.000443525
0.000375523
0.000595827
0.00032867
0.000215259
0.00084697
0.000738966
0.000628371
0.0029544
0.00389946
0.00135252
0.00799781
0.00525682
0.00877338
0.00747407
0.00898979
0.0181146
0
0.114488
0.0146998
0.0166287
0.00711572
0.0148008
0.014597
0.0177059
0
0
0.0486823
0.00171084
0.0495004
0.00670206
0.0429151
0.278938
0.131679
0
0
0
0
0
0
0.0106894
0.0048855
0.0104163
0.0132823
0.000696576
0.000726031
0.00241364
0.00196701
0.00134783
0.00294043
0.00243062
0.00313035
0.00133842
0.0041502
0.00782753
0.00340715
0.00496565
0.00464303
0.00369808
0.00568634
0.00515966
0.00080948
0.00526382
0.000787863
0.00211649
0.00490954
0.00279899
0.00349138
0.00130188
0.00177801
0.00283287
0.00148256
0.00282516
0.000764625
0.00460429
0.00164859
0.00558416
0.00117635
0.00687676
0.00547139
0.00648205
0.00287914
0.016029
0.00675972
0.00579891
0.00676951
0.00764924
0.00548077
0.0130898
0.00641491
0.00320427
0.00707979
0.00645048
0.00736325
0.00491256
0.00518246
0.00190474
0.00347454
0.00196221
0.001355
0.00281701
0.000942493
0.000290365
0.000689958
0.000507625
0.000398131
0.000694978
0.000525464
0.00223343
0.00145987
0.000750816
0.000290434
0.00953244
0.0241326
0.0317822
0.0597584
0.0033761
0.000840247
0.000561971
0.00180548
0.000696045
0.00152949
0.00208797
0
0
0
0
0
0
0
0
0
0
0
0
0
0
0
0
0.000353675
0.000538114
0.000304925
0.000369344
0.000287968
0.000585958
0.000582717
0.000860462
0.00123355
0.000800481
0.000559904
0.00048694
0.000406236
0.00061753
0.000588072
0.000437256
0.000594127
0.000177575
3.95212e-05
0.000919496
0.000552868
0.0011198
0
0.00938264
0.0098945
0
0
0
0
0.00703427
0.00323674
0.0123307
0
0
0
0
0
0
0
0
0
0
0
0
0
0
0.230806
0
0.00783611
0.00207186
0.00215245
0.00101776
0.000454687
0.000899613
0.000514219
0.000353612
0.000589771
0.000232827
0.000387096
0.000124641
0.00158072
0.00317545
0.000880172
0.00299167
0.00506281
0.00329591
0.00693372
0.00678688
0.00361257
0.013005
0.0819637
0.0567905
0
0
0.0168506
0.0518177
0
0.026092
0.0579364
0.0100748
0
0
0
0
0
0
0
0
0
0
0
0.00224395
0.00445613
0.00147154
0.00132698
0.00127515
0.000508086
0.000659954
0.00266762
0.00746133
0.00275664
0.00658127
0.00253213
0.00540959
0.110282
0.00162011
0.00254361
0.00774711
7.90901e-05
0.0110224
0.00723634
0.00585605
0.005972
0.00451991
0.00820193
0.00455295
0.0102726
0.0134075
0.0110004
0.00747531
0.00381982
0.00735256
0.0177477
0.00712353
0
0
0.00610326
0.00570709
0.000482828
0.00455841
0.00141142
0.00521515
0.000774897
0.00391675
0.00551941
0.00539348
0.00215915
0.00722647
0.00377507
0.00557534
0.00478981
0.00181452
0.0055218
0.0021624
0.00454273
0.0110947
0.00845933
0.0039002
0.00120807
0.00271447
0.00602712
0.00720591
0.00833519
0.00174754
0.00446861
0.00273274
0.00361753
0.00489819
0.00274287
0.00121463
0.00327869
0.00169144
0.00211584
0.000815253
0.0013378
0.00140053
0.000157041
0.000440894
0.00133621
0.00088346
0.000117913
0.000141922
0.000974981
0.00809429
0.00527664
0.00180836
0.000682068
0
0
0.0216745
0.00417109
0.00157611
0.00286039
0.0070303
0.0132903
0.0348963
0.137505
0
0
0
0
0
0
0
0
0
0
0
0
0
0
0
0
0
0
0
0
0
0
0
0
0
0
0.00675453
0
0.0145526
0
0.00672434
0.00853815
0
0
0
0
0
0
0
0
0
0
0
0
0
0
0.000200435
0.00032703
0.000445806
0.000110971
0.000202892
0.000438296
0.000839003
0.00027789
0.000200205
0.000161316
0.000531991
0.000292128
0.000112216
0.00056255
0.000320368
0.000507155
0.000479625
0.000797528
0.00120504
0.000797084
0.00395442
0.00142234
0
0
0
0
0
0
0
0
0.0239029
0
0
0
0
0
0
0
0
0
0
0
0
0
0
0
0
0
0
0
0
0
0
0
0
0
0.00360239
0.0637079
0.000708503
0.00399434
0.00200648
0.000218481
0.00093755
0.000285737
0.000418208
0.000481104
0.000595992
0.000221347
0.00027077
0.000491002
0.00302837
0
0
0
0
0
0
0
0
0
0
0
0
0
0
0
0
0.00318474
0.00168102
0.00193455
0.00341284
0.012025
0.00578369
0.0841466
0.0661065
0
0
0
0
0
0
0
0
0
0
0
0
0
0
0
0
0
0
0
0
0
0
0
0
0.000795902
0.000714598
0.000855258
0.00134
0.000846192
0.000672106
0.000664208
0.000597572
0.00059437
0.000906974
0.00505641
0.00230477
0.00140526
0.00138004
0.00422693
0.010839
0.00194309
0.00558247
0
0.0201112
0.0650499
0
0.00508086
0.0128552
0.00235037
0.0176153
0.0145538
0.00786695
0.0142969
0.011794
0.128454
0.0572303
0
0.0378994
0.0371783
0.0547514
0
0
0
0
0
0.0339289
0.00447944
0.205983
0.0106387
0.00202695
0.00732381
0.00511
0.00180867
0.00369294
0.00503689
0.00316594
0.00231835
0.0023186
0.00198702
0.00543669
0.00287076
0.00238104
0.00105264
0.00357098
0.00223992
0.00279251
0.000637499
0.00304268
0.00433162
0.00396038
0.00300255
0.00348814
0.00417173
0.00211856
0.00056566
0.0030889
0.00202045
0.00279304
0.00224119
0.0013153
0.00155729
0.00133022
0.00102746
0.00122674
0.000912275
0.000717171
0.000643027
0.000687084
0.000896574
0.000587153
0.00084645
0.00114289
0.000707314
0.000681508
0.000519838
0.000434954
0.000483521
0.000403093
0.000407285
0.000526121
0.000421249
0.000485494
0.000390853
0.000413557
0.000369129
0.000377153
0.00032356
0.000326053
0.000318197
0.000386127
0.000289841
0.000394814
0.00032158
0.000448618
0.000270821
0.00027505
0.000407681
0.000323544
0.00042672
0.000254543
0.000441839
0.000377781
0.0004956
0.000446531
0.000296778
0.0105893
0.00399547
0.000562268
0.0013009
0.000838777
0.00216297
0.00364789
0.166746
0.00913902
0
0
0
0
0
0
0
0.0306219
0
0
0
0
0
0
0
0
0
0
0
0
0
0
0
0
0
0.00714487
0
0
0
0
0
0
0
0
0.00889852
0
0
0
0
0
0
0
0
0
0
0
0
0
0
0
0.00718254
0
0
0
0
0
0
0
0
0.0102607
0.00510422
0
0
0
0
0
0
0
0
0
0
0
0
0
0
0
0
0
0
0
0
0
0
0
0
0
0.00040882
0.00014422
0.000132872
0.000594755
0.000113296
0.000163313
0.000596315
0.000829657
0.000391155
0.000160567
0.000169642
0.000372558
0.000283332
0.000615764
0.000749975
0.00189667
0.0013278
0.000513912
0.000786367
0.000756815
0.00097268
0.00108948
0
0
0.00475039
0.00346562
0
0
0
0
0.0081353
0
0
0
0
0
0
0
0
0
0
0
0
0
0.0100966
0.00830713
0
0
0
0
0.0358263
0
0.000483157
0.00217221
0.00215706
0.000810054
0.00154723
0.000752809
0.000715783
0.000928264
0.000876455
0.000787004
0.000818026
0.000554594
0.00057586
0.00050488
0.00361436
0
0
0
0
0.000123937
0
0
5.18045e-05
0
0
0
0
0
0
0
0
0
0
0
0
0
0
0
0.489384
0
0.00407387
0.00748961
0.0155423
0.0037535
0
0
0
0
0
0.00464609
0
0
0
0
0
0
0
0
0.0119875
0.0224252
0
0
0
0
0
0
0
0
0
0
0.00131531
0
0.000552643
0.000849812
0.000999455
0.000304486
0.00141863
0.000554167
0.000341166
0.000825092
0.000862881
0.000429776
0.000514306
0.000882887
0.000502248
0.000568096
0.00048743
0.000397303
0.000420682
0.000410625
0.000425563
0.000468547
0.000472245
0.000385592
0.000520663
0.000408127
0.000436951
0.000515593
0.000439843
0.000372833
0.000469652
0.0005677
0.00173083
0.00797372
0.00113724
0.000981035
0.00337104
0.00898176
0.00201994
0.00471588
0
0.0474995
0
0.255061
0
0.00395015
0.0311164
0.0225697
0.0299579
0.0110138
0.142768
0
0
0
0
0
0
0
0
0
0
0
0
0
0.0930001
0
0.0140057
0.0696126
0.0120698
0.00568478
0.00136122
0.00585237
0.000132862
0.00316271
0.00463701
0.00416071
0.00132215
0.00181393
0.00242314
0.0018639
0.00313013
0.00275625
0.00285912
0.00280162
0.00243358
0.00358972
0.00197159
0.00181113
0.00182962
0.00215093
0.00244037
0.00168121
0.00240596
0.00136534
0.00175627
0.00252138
0.00153307
0.000907851
0.00102163
0.00102395
0.00131794
0.000729217
0.000975454
0.000660808
0.000830321
0.000453839
0.000551034
0.000681096
0.000439478
0.000402205
0.000456629
0.00041748
0.000391812
0.000350993
0.000324003
0.000370548
0.000279327
0.000397276
0.000241694
0.000361133
0.000360836
0.000269413
0.000328306
0.000352133
0.000446776
0.00036548
0.000331772
0.000394393
0.000476013
0.000337853
0.000415555
0.000419203
0.000372589
0.000327843
0.000447079
0
0
0.287583
0.0055057
0
0.0660544
0.00595081
0.0116383
0.010944
0
0
0
0
0.361345
0
0
0
0
0
0.0157508
0.0119752
0
0
0
0
0
0
0
0
0.0276211
0.0510764
0
0
0
0.00865748
0
0
0
0
0
0
0
0.00976166
0
0
0
0
0
0
0
0
0.000125198
0
0
0
0
0
0
0
0
0
0
0
0
0
0
0.0145792
0
0
0
0
0
0
0
0
0
0
0
0
0
0
0
0
0
0
0.000506591
0.000272946
0.000275183
0.000670929
0.000514175
0.00035835
0.000111767
0.000362934
0.000144943
0.000412779
0.000493135
0.000142978
0.00111463
0.000310626
0.00135046
0.00554917
0.00957685
0.00176282
0.000357723
0.000600897
0.000991733
0.000978599
0.00269648
0
0.0001269
0
0
0
0
0
0
0
0
0
0
0
0
0
0
0
0
0
0
0
0
0
0
0
0
0
0.00495881
0
0.0019385
0.000634208
0.00112454
0.00109873
0.000877369
0.000818618
0.00116833
0.00092936
0.000929666
0.000911152
0.000484399
0.000419862
0.000482008
0.000787881
0
0
0
0
0
0
0
0
0
0
0
0
0
0
0
0
0
0
0
0
0
0
0.447689
0
0
0
0
0
0
0
0
0.0275658
0.0505262
0
0
0
0
0
0
0.0118679
0.112671
0
0
0
0
0
0.00128542
0.00205945
0
0
0
0
0
0
0
0
0
0
0
0
0
0
0
0
0
0
0.000151724
7.64372e-05
0.000123146
5.80448e-05
9.97719e-05
0.000153273
0.000123302
6.68e-05
0.000153102
0.000144942
0.000135834
5.19564e-05
9.14903e-05
0.000110608
0.00026039
0.000345183
0.000353481
0.000346156
0.000194355
0.000265916
0.000278991
0.000263248
0.000106676
0.000234099
0.000224647
0.000221906
0.000235345
0.000204106
0.000163322
0.000487585
0.000443359
0.000469893
0.000423057
0.000378684
0.000415194
0.000686039
0.000907872
0.000363495
0.00121867
0.00155708
0.00062706
0.000615318
0.000588538
0.00063729
0.000620029
0.000781407
0.000394885
0.000416328
0.000431933
0.000508861
0.00043193
0.000451824
0.000538073
0.000566265
0.000534988
0.000608354
0.000533395
0.000629034
0.000570539
0.000564064
0.00046671
0.000612022
0.00054679
0.00148404
0.00311929
0.00802609
0.00534366
0.00156344
0.00131804
0.00127303
0.0401428
0.0136541
0
0
0.000260495
0.000294739
0.000228207
0.000164118
0.000249146
0.000200667
9.44415e-05
0.000130471
9.37076e-05
0.000122481
0.000147995
0.000165421
0.00017128
0.000158142
0.000155226
0.000143601
0.000107014
7.29085e-05
0
0
0.00275828
0.0507706
4.17234
0.0247373
0.0852588
0
0.00235041
0
0.00638586
0.00977085
0
0
0
0
0
0
0
0
0
0
0.00775943
0
0.0156733
0
0.00173812
0.012101
0.00407139
0.00945877
0.00566533
0.00192256
0.00173759
0.00162606
0.00208833
0.00135063
0.00168134
0.00323269
0.00184883
0.00307184
0.00257129
0.00319803
0.00243906
0.0020554
0.00122234
0.00159433
0.00106422
0.00215163
0.00245104
0.00113597
0.0013319
0.000831841
0.000965351
0.00196818
0.00120501
0.000999634
0.00189629
0.00118685
0.00126233
0.000683464
0.000931328
0.000495649
0.000550321
0.000815444
0.000547239
0.000415654
0.000417366
0.000437778
0.000413788
0.000384115
0.000357835
0.000347483
0.0003397
0.00038231
0.000339618
0.000235402
0.000267138
0.000214097
0.000308204
0.000274603
0.000229003
0.00030542
0.000260694
0.000350545
0.000336013
0
0
0.365486
0
0
0
0
0
0
0
0
0
0
0
0.00807478
0
0
0
0
0.0248983
0
0
0
0
0
0
0
0
0.0034794
0.00391158
0.0333599
0
0.00188127
0
0
0
0
0
0
0
0
0
0.012799
0
0
0
0
0
0
0
0
0.195332
0
0
0
0
0
0
0
0
0
0
0
0
0.00928836
0
0
0
0
0.0260427
0
0
0
0
0
0
0
0
0
0
0
0
0
0
0
0
0
0
0
0.00262985
0
0
0
0
0.00301232
0.000168866
0.000247145
0.000302246
0.000198155
0.000134517
5.19464e-05
0.00033871
0.000453687
0.000533286
0.000188845
0.00016612
0.000125073
0.000512546
0.000257444
0.000283692
0.000492738
0.000770484
0.000773258
0.000683151
0.00140375
0.00072748
0.00648042
0.0013459
0.00106275
0.00103647
0
0
0
0
0
0
0
0
0
0
0
0
0
0
0
0
0
0
0
0
0
0
0
0
0
0
0
0.00566825
0.0035592
0.000851069
0.000613675
0.000285244
0.000455851
0.000297319
0.00090899
0.000917279
0.000302202
0.000833482
0.00052847
0.000648769
0.000593341
0.000126582
0.000456019
0
0.00105929
0
0
0
0
0
0
0
0
0
0
0
0
0
0
0
0
0
0
0
0
0
0
0
0
0
0
0
0
0
0
0
0
0
0
0
0.0870821
0.00242336
0.00892635
0
0
0
0
0
0
0
0
1.51607
0
0
0
0
0
0
0
0
0
0
0
0
0
0
0
0
0
0
0
0
0
0
0
0
0
0.000131197
0.000111064
0.00012283
0.000133223
1.54566e-05
7.77922e-05
0.000180003
0.000111509
0.000361763
0.000313606
0.00030042
0.000303465
0.000290806
0.000294867
0.000202533
0.000290778
0.00043892
0.000522663
0.000487853
0.000489481
0.00043919
0.000403819
0.000885356
0.00114764
0.000829098
0.000330729
0.000705435
0.000617101
0.000670269
0.00073294
0.000629834
0.000546985
0.000431979
0.00087795
0.000432599
0.000471569
0.000623027
0.00037685
0.000658633
0.000499543
0.00057011
0.000534054
0.000654437
0.000634094
0.00062043
0.000577434
0.000709656
0.000629338
0.000728792
0.00050219
0.000590808
0.000605107
0.000584706
0.00257828
0.00817668
0.00154772
0.000759694
0.00484625
0.00475133
0.001001
0.00100006
0.012776
0.0528249
0
0.149574
0.000173539
0.000216247
0.000252875
0.000126251
0.000207031
0.000173118
7.99003e-05
0.000120784
8.21586e-05
8.30104e-05
0.000127499
0.000187433
0.0001257
0.000136428
0.000150552
0.000140437
4.11856e-05
1.67735e-05
8.00146e-05
8.43221e-05
0.000125131
7.14064e-05
9.62343e-05
5.29522e-05
0.000167923
0.00426974
0.0103748
0.00571144
0
0
0
0
0
0
0
0
0
0
0.0105169
0
0.0049337
0
0
0
0
0.00400371
0
0
0
0.0115273
0.00711676
1.803
0.0649001
0.00651601
0.00742608
0.00169058
0.00152575
0.00277698
0.00197211
0.00147494
0.00529469
0.00413848
0.00156493
0.00341575
0.00152762
0.00224126
0.00243126
0.00221172
0.00257689
0.00192351
0.00126253
0.00195753
0.00154681
0.00233886
0.00135798
0.00103322
0.00116821
0.00170001
0.0012538
0.00155038
0.00139581
0.0012233
0.000722308
0.000783891
0.000719132
0.000565584
0.000621858
0.000445127
0.000407506
0.000438246
0.000397488
0.000396153
0.000353488
0.00034832
0.000359906
0.000328575
0.000227576
0.000304158
0.000122649
0.000218277
0.00020747
0.000199104
0.000176218
0.000225345
0.000198532
0.000258399
0.000237091
0
0
0
0
0
0
0
0
0
0
0
0
0
0
0
0
0
0
0
0
0
0
0
0
0
0
0.0192898
0
0.00883885
0.00228993
0
0
0
0
0
0
0
0
0
0
0
0
0.267009
0
0
0
0
0
0.0101935
0
0
1.10827
0
0
0
0.00425983
0.00403863
0
0
0
0
0
0
0
0.0182369
0.0232841
0
0
0.0213721
0.0269375
0
0
0
0
0.00734092
0
0.010112
0
0
0
0
0
0
0
0
0
0
0
0
0
0
0
0
0
0.00456399
0
0
0
0
0
0
0
0
0.000215472
0.000223056
1.30997e-05
0.00022375
7.00006e-05
0.000223676
3.70818e-05
3.94495e-05
9.36884e-05
0.000134328
0.000384998
0.00018502
0.000443109
0.000471339
0.000291666
0.000506195
0.000164644
0.000319478
0.000391858
0.000635407
0.00158919
0.00126655
0.0028768
0.000506798
0.00307533
0.00170556
0.00303553
0
0
0
0
0
0
0
0.00238582
0.0153058
0
0
0
0
0
0
0
0
0
0
0.000108289
0
0
0
0
0
0.000407037
0.000274136
0.000353287
0.00305607
0.000120358
0.00133332
0.00113592
0.000119278
0.00037791
0.000165932
0.000734213
0.000861023
0.000343779
0.000323389
0.000346846
0.000721038
0
0
0.000997453
0
0
0
0
0.000182993
0
0
0
0
0
0
0
0.00272333
0
0.0103374
0.00679992
0
0
0
0
0
0
0
0
0
0
0
0.0137726
0
0
0
0
0
0
0
0
0
0
0
0
0
0.0138633
0.0217849
0.00747739
0.0165244
0
0
0
0
0
0
0.00187492
0
0
0.000569802
0
0
0
0
0
0
0
0.00326627
0
0
0
0
0
0
0
0.00295858
0
0.00477182
0
0
0
0
0
0
0
0.00393814
7.99549e-05
0.00010703
0.000213635
2.37078e-05
5.36245e-05
0.000266166
0.000299101
0.000224765
0.000531379
0.000108125
0.000201085
0.000175797
0.000144971
7.48684e-05
0.000382773
0.000394064
0.000339615
0.000345621
0.000341657
0.000309614
0.000260407
0.000290304
0.000500747
0.000563988
0.000542686
0.000562454
0.000474704
0.000488858
0.000826837
0.000763275
0.00101274
0.000132378
0.000435665
0.000648116
0.000584448
0.000611132
0.000695674
0.000458055
0.000479883
0.000879022
0.000499853
0.00060483
0.000682689
0.000746126
0.000715448
0.000463419
0.000624514
0.000572967
0.000679774
0.000536609
0.000599221
0.00061984
0.000657538
0.000631593
0.00057505
0.000539782
0.000591756
0.00067557
0.0043948
0.00409269
0.00229713
0.000996377
0.00194527
0.00566158
0.000518446
0.00105882
0.0241277
0.0022937
0.0166462
0
0.000182103
0.000172785
0.000156014
0.000116706
0.000152112
0.000139902
0.00016496
0.000147196
0.000143978
0.000101875
0.000135518
0.000174215
0.000181064
0.000180568
0.00013141
0.000144712
5.02391e-05
9.8893e-05
0.000121118
6.96971e-05
8.94603e-05
0.000160869
0.000162506
0.000124331
7.90081e-05
0
0
0
0
0
0
0
0
0
0
0
0
0
0
0
0
0.00403568
0
0
0
0
0
0
0
0.0185506
0.0272302
0.0203475
0
0.0104841
0.0077023
0.00396069
0.00326443
0.0024202
0.00219893
0.00196222
0.00306934
0.00257529
0.00202696
0.00315763
0.00194667
0.00326697
0.00231587
0.0017577
0.00200786
0.00162647
0.00204612
0.00166445
0.00157823
0.00218789
0.00135673
0.00144876
0.00129871
0.0016638
0.00134025
0.000823062
0.00110778
0.000818114
0.000763463
0.000787231
0.000616769
0.000549773
0.000516734
0.00046335
0.000491197
0.000443938
0.000391895
0.0003738
0.000343907
0.000292136
0.000252176
8.71473e-05
0.000162789
0.000110518
0.000129901
0.000147904
0.000140728
0.000183297
0.000203675
5.44407e-05
0
0
0.184292
0.00020555
0
0
0
0
0
0
0
0.00216694
0.00476187
0.000920789
0.0164825
0.00300392
0.00237109
0
0.00209733
0.275367
0
0
0
0.0060346
0
0.0048464
0.00884935
0
0
0
0
0
0
0
0
0.000209342
0
0
0
0
0
0
0.507068
0
0
0
0
0
0
0
0
0
0
0
0
0
0
0
0
0
0
0
0
0
0
0
0
0
0
0
0
0
0
0
0
0
0
0
0
0
0
0
0
0
0
0
0
0
0
0
0
0
0
0
0
0
0
0
0
0
0
0
0
0
0
0
0
0
0
0
0
0
0.000156105
0
0
0
0
0.000118326
3.35819e-05
6.84347e-05
0.00015856
5.44163e-05
2.43541e-05
0.000520673
0.000141023
3.67642e-05
0.000315078
0.000124662
0.000122508
0.000310359
0.000179034
0.000348381
0.000894082
0.000387825
0.000325669
0.000287384
0.000208036
0.000516705
0.000450753
0.00210791
0.00117213
0.0081145
0.00337941
0.00665251
0.0184322
0.0197866
0
0
0
0
0
0.0211505
0
0
0
0
0
0
0
0
0
0
0
0.00338291
0.0149381
0
0.0141996
0
0
0
0.000602225
0.000631022
0.00019296
0.00031141
0.000727602
0.00668453
0.000809043
0.00392572
0.000763387
0.00105775
0.00049105
0.00136546
0.000510089
0.000622557
0.00129612
0.000511327
0
0.00353362
0
0
0
0
0
0.000173885
0
0
0.000190137
0
0
0
0.00614491
0
0
0
0
0
0
0
0
0
0
0
0
0
0
0
0
0
0
0
0
0
0.00636589
0
0.0130672
0
0
0
0
0
0
0
0
0
0
0
0
0
0
0
0
0
0
0.00739751
0
0
0
0
0
0
0
0
0
0
0
0
0
0
0
0
0
0
0
0
0
0
0
0
0
0
0
0
0
0
0
0
0.00494068
0.0264729
0
0
0
0
0
0
0.000397427
0.000306249
0.000282147
0.000496068
0.000599676
0.00042605
0.000191802
0.000574228
0.000471305
0.000133179
0.000191297
9.68528e-05
0.000161227
0.000395114
0.000415094
0.000333702
0.000366574
0.000333139
0.000350086
0.000212286
0.000301253
0.000581871
0.000561499
0.000536363
0.000506036
0.000537403
0.000475214
0.000692866
0.000540174
0.000435858
0.000111846
0.000394345
0.000393358
0.000327867
0.000387756
0.000956881
0.000591744
0.000733715
0.00067506
0.000637818
0.000676343
0.0010293
0.000710954
0.000483522
0.000690717
0.000580776
0.000475801
0.000587482
0.000440806
0.000729923
0.000391025
0.000666909
0.000676272
0.000532879
0.000562646
0.000556371
0.000670629
0.0183852
0.00448347
0.000896612
0.00247515
0.00184475
0.00165713
0.000310345
0.000192275
0.0101118
0.0128218
0.0304751
0
0
0
0
0.00025135
0.000161891
0.000144858
0.000127658
0.000130809
0.000229331
0.000229646
0.000194112
0.000197287
0.000201964
0.00013267
0.000145589
0.000131579
0.000136954
9.88241e-05
0.000151835
0.000140992
4.90464e-05
0.00013416
7.80477e-05
5.82017e-05
6.71422e-05
0.000172759
0.000165405
3.64803e-05
0.000153007
0
0
0
0
0
0.00209003
0.00981804
0
0
0
0
0.00417869
0.00576447
0
0
0
0
0
0
0
0
0
0
0
0
0.243888
0.0088388
0
0.00280994
0.0109781
0.000407282
0.00583033
0.00382615
0.00204038
0.00208203
0.00212537
0.00257811
0.00240992
0.00174743
0.00231255
0.00246025
0.00206002
0.00174703
0.00165549
0.00169457
0.0021486
0.00206004
0.00183459
0.00192641
0.00124278
0.00127183
0.00127354
0.00138333
0.00125842
0.000956194
0.000880901
0.000850381
0.000963987
0.00074797
0.000704519
0.000551386
0.000618795
0.000571537
0.000513169
0.000400867
0.000461711
0.000303468
0.000305384
8.11912e-05
0.000143853
9.63276e-05
9.12828e-05
0.00010866
3.9293e-05
0.000128945
0.000187069
0.00013159
0.000225034
0
0
0
0
0
0
0
0
0
0.00591743
0
0
0
0.0302468
0.00454663
0.0130199
0.00161458
0.00423176
0.0067536
0
0
0
0
0
0
0
0
0
0
0
0
0
0
0
0
1.75963e-05
0
0
0
0.0151389
0
0
0
0
0
0
0
0
0
0
0
0
0
0
0
0
0
0
0.00627106
0
0
0
0
0
0.00266071
0.0018754
0.00468485
0
0
0
0
0
0
0
0
0
0
0
0
0
0
0
0
0
0
0
0
0
0
0
0
0
0
0
0
0
0
0
0
0
0
0
0
0
0
0
0
0
0.00732835
0
0.00278962
0
0
0.00250053
0
0
0.000102515
7.36e-05
9.12108e-05
2.9128e-05
9.95405e-05
5.01144e-05
4.42727e-05
0.00051673
0.000138526
0.00022772
0.000242568
0.000220628
5.13713e-05
6.59962e-05
0.000531856
0.00022921
0.000128195
0.000134353
0.000231962
0.000687694
0.000567104
0.000673481
0.00176293
0.000741813
0.000518976
0.00103777
0.00152752
0.00276043
0.000822457
0.00334093
0.0186992
0.0100858
0.0232966
0
0
0
0.0120361
0
0
0
0.045402
0
0
0
0
0
0
0
0
0
0
0
0
0.0204318
0
0
0
0.000305071
0.000619418
7.86132e-05
0.000625132
0.00522409
0.0077589
0.00476147
0.0014926
0.000593303
0.00197318
0.00140227
0.00127039
0.000649229
0
0
0
0
0
0
0.0152575
0.00516636
0
0
0
0
0
0
0
0
0
0.273018
0
0
0
0
0
0
0
0.00337219
0
0
0.0272229
0
0
0
0
0
0
0
0
0
0
0
0
0
0
0
0
0
0
0
0
0
0
0.00257438
0
0
0
0
0
0
0
0
0
0
0
0
0
0
0
0.0002424
0
0
0
0.00724655
0
0
0
0
0
0
0
0
0
0
0
0
0
0
0
0
0
0
0
0
0
0
0
0
0
0.00415226
0
0
0
0
0
0
0
0
0.000558032
0.000339618
0.00066411
0.000633915
0.000863491
0.000383333
0.000182765
0.000266722
0.000172025
0.000222648
0.000118406
8.14157e-05
0.000182057
0.000144939
0.000459548
0.000396867
0.000437369
0.000342025
0.000379098
0.000332971
0.000388799
0.000499636
0.000590205
0.000528379
0.000448584
0.000560577
0.000564726
0.000562158
0.000695658
0.000522206
0.000415731
0.000319441
0.000429113
0.000323636
0.000583386
0.000668164
0.00074446
0.000842047
0.000815376
0.000644845
0.000694972
0.000577921
0.000584549
0.000823156
0.000397221
0.000490331
0.000363754
0.000271524
0.000583843
0.000331642
0.000550949
0.000688058
0.000609764
0.000334669
0.000534263
0.000539976
0.000443965
0.00053016
0.00422264
0.0148195
0.000883676
0.00148031
0.00146672
0.00128438
0.000907535
0.000848687
0.00338796
0.00584103
0.0170342
0.0685616
0
0.020418
0.000239633
0.000124706
0.000173767
0.000281298
0.000261768
0.000236225
0.000222384
0.000222998
0.000219116
0.000143896
0.000162066
9.6255e-05
0.0001146
8.86271e-05
0.000137426
0.000112822
7.75088e-05
0.000148991
7.42948e-05
7.94824e-05
0.000133992
0.000170511
0.000167203
6.00403e-05
6.24853e-05
0
0
0
0
0
0
0
0
0
0.00461402
0
0
0
0
0
0.00018588
0.000157806
0
0
0
0
0
0
0
0
0.289481
0.13545
0.00974492
0.00991767
0.0119229
0.00371544
0.0038958
0.00297974
0.00458902
0.00231997
0.00280267
0.00273736
0.00192007
0.00178556
0.00144246
0.00216217
0.00194016
0.00145528
0.00193731
0.00127544
0.00206411
0.0023084
0.00174384
0.00137347
0.00128976
0.000973451
0.00101594
0.00129805
0.0011591
0.000693425
0.00107061
0.000899921
0.000883362
0.000671514
0.000661378
0.000586909
0.000610768
0.000531158
0.000463858
0.000368914
0.000323022
0.000139938
0.00013403
9.06993e-05
0.000122592
8.39406e-05
0.000145064
0.000181804
0.000156911
0.000179322
0.000204219
0.000233196
0.000187506
0
0
0
0
0
0
0
0
0
0.000839555
0
0
0
0
0
0
0
0.00221789
0
0
0.00319962
0.00610215
0
0
0.000918685
0
0
0
0
0
0.00157827
0
0
0
0
0
0
0
0
0
0
0
0
0
0
0
0.00559861
0.00915147
0.00916145
0
0
0
0
0.00368309
0
0
0.00439074
0
0
0
0
0.00708613
0
0.00883876
0
0
0
0
0
0
0
0
0
0
0
0
0
0
0
0
0
0
0
0
0
0
0
0
0
0
0
0
0
0
0
0
0
0
0
0
0
0
0
0
0
0
0
0
0
0
0
0
0
0
0
0
0
0.00307221
0
0
0
0.0171446
0
0
9.33577e-05
9.62229e-05
7.51586e-06
3.852e-05
0.000122959
0.000142711
0.000115243
9.90152e-05
0.000152251
0.000367903
0.000258743
7.72735e-05
0.000141687
0.000143266
0.000103063
6.82342e-05
4.15454e-05
0.000271341
0.000109519
0.000281216
9.53055e-05
6.20991e-05
0.000166835
0.000139092
0.00496103
0.00116544
0.00221996
0.000844408
0.00114719
0.00917863
0.0127647
0.00758479
0.00448788
0.00382806
0.00862076
0.00905451
0.0907063
0
0
0.0213621
0.00282055
0
0
0.0072466
0
0
0
0
0.000285134
0
0
0
0.000156166
0
0
0
0.00164778
0
0
0
0
0.0013755
0.00175262
0.0021288
0.00255375
0.00369826
0.00318128
0.00114649
0.00207037
0.00114402
0.00205404
0.000929991
0.00253538
0
0
0.00117829
0
0
0.00432932
0.00262837
0
0
0
0
0
0
0
0
0.101833
0.172562
0
0
0.0063981
0
0.00246617
0
0
0
0
0.406442
0
0.00867191
0.0286661
0
0
0
0
0
0
0
0
0
0
0
0
0
0
0
0
0
0
0.0207315
0
0
0
0.0151797
0
0
0
0
0
0
0
0
0
0
0
0
0
0
0
0
0
0
0
0
0
0
0.00201933
0.00473889
0
0
0
0
0
0
0
0
0.00182329
0
0
0
0
0
0
0.0012352
0
0
0
0
0
0
0
0
0
0
0
0
0
0
0.00683317
0
0
0
0
0
0
0
0
0
4.75354e-05
0.000533507
0.000293969
0.000151269
0.000362376
0.000334082
0.00023203
0.000136853
0.000136813
0.000120837
0.000177205
0.00015707
0.00012044
0.000169252
0.000150633
0.00045434
0.000551261
0.000460864
0.000480806
0.00041714
0.000416049
0.000381636
0.000337355
0.000424979
0.000515281
0.000487404
0.000512573
0.000558245
0.000513398
0.00071844
0.00075499
0.000502716
0.000628195
0.00118661
0.00043519
0.000885597
0.000750035
0.00061051
0.000657385
0.000671441
0.000704138
0.000291366
0.000483898
0.000468786
0.00036256
0.000238082
0.000197275
0.000275343
0.000233221
0.000495702
0.000336864
0.000667283
0.000735421
0.0001888
0.000164697
0.00056534
0.000497974
0.000277865
0.0027739
0.00485051
0.000924386
0.00192274
0.00219576
0.00134387
0.00107904
0.00211446
0.00971139
0.00313376
0.0181749
0.0177422
0.0131137
0.00761271
0.000266335
0.000195731
0.000220655
0.000234292
0.000210367
0.000213414
0.000226626
0.000171073
0.000148397
0.000126108
0.000129554
0.000130721
0.000121461
0.000112436
0.000109231
8.66718e-05
0.000125016
7.39095e-05
6.99266e-05
7.33229e-05
0.000184498
0.000156574
7.34981e-05
7.59293e-05
0.0148866
0.00618329
0.0191383
0
0
0
0
0
0
0
0
0
0
0
0
0
0
0
0
0.00423153
0.00514513
0
0
0
0
0.0122693
0.00398382
0.00868554
0.00902489
0.00296337
0.00329168
0.0103124
0.00297908
0.00303472
0.00314704
0.00372084
0.00315681
0.00194693
0.00220277
0.00218947
0.00194818
0.00223701
0.00181576
0.00194522
0.00161792
0.00122318
0.00180875
0.00129141
0.00146068
0.001404
0.000853054
0.00100845
0.00110421
0.00109362
0.000883475
0.00109181
0.000861762
0.000803745
0.000678859
0.000699526
0.000652626
0.00053545
0.000452296
0.000363753
0.000206414
0.000157019
0.000134016
0.000103336
0.000185186
0.000140834
0.000165239
0.00020921
0.000231264
0.000193448
0.000208457
0.000218285
0.000245645
0.000195129
0.00771013
0.00383044
0
0
0
0
0
0
0
0
0
0.00180701
0
0.00296758
0
0.00169113
0.0036598
0
0
0
0
0
0
0
0
0
0
0
0
0.00200752
0
0
0
0
0
0
0
0
0.00854356
0.0055822
0
0
0.00383127
0
0
0
0.0052564
0
0
0
0
0
0
0
0.0113402
0
0
0
0
0
0
0
0
0
0
0.0377077
0
0
0
0
0
0
0
0
0
0.000126332
0
0
0
0
0.000639022
0
0
0
0
0
0
0
0
0
0
0
0
0
0
0
0
0
0
0
0
0
0
0
0
0
0
0
0
0
0
0
0
0
0
0
0
0
0
0
0
0
0
0
0
0
8.81008e-05
7.26499e-05
0.000155669
0.000120114
0.00011215
4.18598e-05
1.17004e-05
0.000105015
7.8752e-05
0.000120634
7.67278e-05
0.000260045
0.000149219
3.13491e-05
9.69756e-05
7.84627e-05
4.2327e-05
6.42891e-05
0.000267694
9.27932e-05
0.000155723
0.000204562
0.000149078
7.13478e-05
7.63394e-05
5.97855e-05
0.000193969
0.00827142
0.0116011
0.00737428
0.00722846
0.0126608
0.00180124
0.00385969
0.00437481
0.0347451
0.0200418
0
0
0
0.00208933
0.0257257
0
0
0
0.00172411
0
0
0
0
0
6.62897e-05
0
0.00133884
0
0
0.00439501
0
0
0
0
0
0
0.0117391