/*--------------------------------*- C++ -*----------------------------------*\
  =========                 |
  \\      /  F ield         | OpenFOAM: The Open Source CFD Toolbox
   \\    /   O peration     | Website:  https://openfoam.org
    \\  /    A nd           | Version:  8
     \\/     M anipulation  |
\*---------------------------------------------------------------------------*/
FoamFile
{
    version     2.0;
    format      ascii;
    class       volScalarField;
    location    "11220";
    object      Hclip;
}
// * * * * * * * * * * * * * * * * * * * * * * * * * * * * * * * * * * * * * //

dimensions      [0 1 0 0 0 0 0];

internalField   nonuniform List<scalar> 
526318
(
0.677035
0.631519
0.700831
0.616742
0.686988
0.645938
0.651916
0.57418
0.636202
0.517677
0.494329
0.612827
0.558353
0.599847
0.559825
0.58822
0.55941
0.761813
0.660918
0.713458
0.702764
0.662834
0.42054
0.663718
0.546617
0.410118
0.685685
0.683546
0.684949
0.697753
0.730182
0.772698
0.756388
0.634215
0.642372
0.609171
0.621633
0.706991
0.62649
0.587801
0.625456
0.613671
0.276487
0.33049
0.229731
0.275061
0.258263
0.378938
0.56249
0.456722
0.540856
0.548995
0.500751
0.460576
0.001
0.206319
0.199685
0.001
0.71733
0.726531
0.751984
0.697369
0.647892
0.778717
0.76496
0.732093
0.717231
0.715607
0.619522
0.609132
0.724205
0.50518
0.560044
0.450815
0.410062
0.393127
0.498545
0.491095
0.4026
0.448916
0.523214
0.527996
0.485252
0.434713
0.462985
0.532841
0.53404
0.508807
0.456014
0.530093
0.434629
0.382449
0.381801
0.310845
0.30341
0.311168
0.311458
0.309131
0.301548
0.307037
0.001
0.001
0.001
0.001
0.001
0.001
0.209443
0.0330576
0.340739
0.307984
0.344281
0.464186
0.685506
0.574152
0.686702
0.706882
0.761564
0.736913
0.782991
0.298722
0.303143
0.303895
0.307628
0.259884
0.30322
0.213169
0.256771
0.164416
0.216377
0.162365
0.166307
0.156382
0.130451
0.118505
0.145817
0.0913681
0.142478
0.09395
0.114006
0.0584743
0.0650383
0.0831381
0.111287
0.0990348
0.0577642
0.0564282
0.0701606
0.0595805
0.0556832
0.0621837
0.0758153
0.0625693
0.0663874
0.0671218
0.0672888
0.0340101
0.0673772
0.0660919
0.0337534
0.001
0.0666143
0.0170116
0.0749255
0.576408
0.663818
0.610503
0.598449
0.400617
0.467727
0.39259
0.402463
0.390326
0.402774
0.421973
0.391405
0.329044
0.303849
0.268801
0.209885
0.270181
0.312328
0.311916
0.31019
0.197022
0.250911
0.137404
0.142853
0.151913
0.14575
0.147302
0.150032
0.140641
0.142927
0.141206
0.1298
0.112173
0.130973
0.117749
0.0986224
0.0776063
0.0995316
0.0909091
0.0808528
0.106921
0.0866728
0.091352
0.05086
0.076419
0.095921
0.0962015
0.558646
0.574289
0.605929
0.563271
0.552385
0.566182
0.550649
0.426985
0.477563
0.221765
0.191697
0.196633
0.319181
0.453599
0.32641
0.365579
0.366985
0.315409
0.291314
0.001
0.001
0.001
0.145491
0.001
0.001
0.001
0.001
0.001
0.001
0.771578
0.745802
0.793598
0.783313
0.758889
0.751913
0.660202
0.744631
0.588073
0.530005
0.529947
0.532423
0.533324
0.531465
0.518202
0.51873
0.435746
0.498541
0.313495
0.37438
0.301002
0.317422
0.00100536
0.001
0.001
0.00100202
0.001
0.001
0.001
0.001
0.313411
0.12752
0.364229
0.362525
0.470794
0.578835
0.695251
0.70244
0.738028
0.712619
0.779294
0.811745
0.282629
0.281256
0.241434
0.210769
0.108378
0.150798
0.0761562
0.0823636
0.0763253
0.065736
0.059227
0.0650506
0.001
0.0121148
0.0465329
0.0785328
0.147534
0.117245
0.0642895
0.0630032
0.001
0.001
0.0405409
0.0884285
0.0203688
0.0563699
0.0566307
0.0259788
0.0238791
0.001
0.001
0.001
0.001
0.001
0.001
0.0667158
0.103059
0.0659834
0.105819
0.470285
0.429595
0.323942
0.41714
0.327207
0.393768
0.40626
0.374976
0.404555
0.385698
0.303435
0.225951
0.151712
0.132503
0.209717
0.150256
0.139654
0.249461
0.137585
0.188049
0.129753
0.124969
0.136148
0.125183
0.143344
0.132748
0.133921
0.13786
0.132209
0.13793
0.139699
0.142166
0.149542
0.153001
0.157874
0.131892
0.148636
0.132517
0.102956
0.102737
0.129119
0.15502
0.159511
0.126329
0.115891
0.140702
0.179124
0.17214
0.179998
0.148545
0.183726
0.203995
0.238208
0.180958
0.194529
0.215428
0.258744
0.369324
0.442203
0.375299
0.417464
0.476461
0.540118
0.46439
0.321117
0.437414
0.325445
0.354808
0.0872602
0.0361738
0.0644023
0.0458849
0.169618
0.286996
0.218992
0.288359
0.289218
0.311626
0.282187
0.001
0.001
0.001
0.001
0.001
0.001
0.001
0.00100998
0.001
0.00100962
0.001
0.00100889
0.001
0.001
0.001
0.001
0.792816
0.781871
0.818924
0.801972
0.786817
0.756731
0.687021
0.598352
0.532516
0.53917
0.522989
0.520966
0.498908
0.499942
0.481744
0.478336
0.430646
0.474096
0.397434
0.340434
0.281924
0.247461
0.001
0.00107571
0.00107633
0.001
0.001
0.001
0.001
0.00107598
0.00107535
0.00107545
0.00100999
0.00100984
0.001
0.00100942
0.001
0.001
0.001
0.001
0.001
0.001
0.001
0.001
0.001
0.001
0.0200408
0.001
0.223746
0.385849
0.396716
0.494664
0.714351
0.602547
0.720571
0.725177
0.735992
0.768544
0.802859
0.814367
0.198537
0.198911
0.153594
0.17989
0.119379
0.0837955
0.0737565
0.0738297
0.0688736
0.072356
0.0255003
0.019523
0.001
0.001
0.0382188
0.00988751
0.001
0.0304599
0.0236766
0.0420036
0.001
0.001
0.001
0.001
0.001
0.001
0.001
0.001
0.001
0.001
0.001
0.220544
0.197043
0.196669
0.194658
0.219072
0.327926
0.282167
0.258443
0.147922
0.189288
0.181981
0.175577
0.0747001
0.0118378
0.191552
0.306802
0.191801
0.19667
0.183302
0.265192
0.226964
0.319811
0.35446
0.258451
0.257153
0.274709
0.165776
0.133994
0.132609
0.1302
0.0521428
0.104697
0.0260366
0.001
0.001
0.0823964
0.0766379
0.125151
0.127118
0.127655
0.132009
0.131256
0.138978
0.128978
0.140001
0.128937
0.152799
0.145722
0.151735
0.151282
0.170125
0.160332
0.180323
0.190015
0.137152
0.121777
0.190102
0.168119
0.154952
0.172771
0.155682
0.143634
0.197591
0.176673
0.283365
0.281749
0.242172
0.284023
0.293289
0.255924
0.350309
0.319846
0.385384
0.417552
0.430746
0.343731
0.354927
0.347137
0.317055
0.289837
0.263866
0.348602
0.206667
0.182818
0.23183
0.255877
0.001
0.001
0.0662632
0.183248
0.215289
0.252518
0.158188
0.117955
0.0766415
0.0260372
0.001
0.001
0.001
0.001
0.001
0.00100068
0.001
0.001
0.00100979
0.001
0.001
0.001
0.001
0.001
0.001
0.001
0.001
0.001
0.001
0.001
0.001
0.00101
0.001
0.001
0.001
0.001
0.00116739
0.001
0.00108081
0.001
0.00116724
0.00116702
0.001
0.001
0.001
0.001
0.001
0.001
0.001
0.001
0.00100959
0.001
0.00100965
0.001
0.001
0.001
0.786359
0.796999
0.81954
0.804543
0.786443
0.707937
0.537962
0.61843
0.496521
0.50485
0.479421
0.48262
0.473751
0.473034
0.46951
0.465139
0.409296
0.385934
0.288185
0.324076
0.178931
0.222701
0.001
0.001
0.001
0.001
0.001
0.001
0.001
0.001
0.00103357
0.001
0.001
0.001
0.001
0.001
0.001
0.001
0.001
0.00100737
0.001
0.001
0.001
0.001
0.001
0.001
0.001
0.001
0.00101
0.001
0.001
0.001
0.001
0.001
0.001
0.001
0.197468
0.035876
0.409828
0.369205
0.43091
0.542758
0.641579
0.729071
0.73882
0.720503
0.766358
0.795583
0.779737
0.782372
0.00117025
0.001
0.001
0.001
0.001
0.001
0.001
0.001
0.001
0.001
0.001
0.001
0.001
0.001
0.001
0.00101
0.001
0.179979
0.180609
0.180667
0.14529
0.065322
0.101529
0.0260957
0.0174988
0.001
0.001
0.001
0.001
0.001
0.001
0.001
0.001
0.001
0.001
0.001
0.001
0.001
0.001
0.001
0.001
0.001
0.001
0.001
0.001
0.001
0.001
0.001
0.001
0.414325
0.393451
0.425753
0.443046
0.387284
0.340833
0.513517
0.528381
0.593673
0.609561
0.166502
0.190816
0.24253
0.329917
0.15123
0.0964002
0.132094
0.131709
0.001
0.0229144
0.0713797
0.001
0.1773
0.182187
0.172237
0.180144
0.203945
0.169219
0.179257
0.215882
0.0748367
0.0808109
0.001
0.0630096
0.0560029
0.0160982
0.00100824
0.001
0.001
0.001
0.001
0.0151673
0.0743876
0.0102594
0.0747915
0.125051
0.124744
0.128267
0.132315
0.135683
0.155431
0.145605
0.161822
0.163825
0.179395
0.166172
0.190586
0.19389
0.19583
0.195135
0.207395
0.200594
0.239186
0.214671
0.176058
0.17374
0.244853
0.210704
0.214569
0.265417
0.300665
0.30269
0.297814
0.309414
0.33184
0.378059
0.448653
0.467752
0.4723
0.454302
0.597663
0.529157
0.660519
0.701045
0.693311
0.729734
0.785474
0.654044
0.737615
0.756763
0.837346
0.884719
0.906823
0.928721
0.960269
0.902857
0.956845
0.913943
0.995208
0.996343
1.04587
1.01315
1.07378
1.10657
1.09369
1.04449
1.10705
1.13174
1.09731
1.09594
1.16119
1.13846
1.16893
1.1126
1.10986
1.17575
1.14171
1.09661
1.09434
1.12603
1.16259
0.149918
0.116332
0.285416
0.275553
0.249438
0.249151
0.243092
0.015597
0.148967
0.001
0.001
0.001
0.001
0.001
0.001
0.001
0.0820901
0.001
0.001
0.001
0.001
0.001
0.001
0.001
0.00101
0.001
0.001
0.001
0.001
0.00101
0.001
0.001
0.001
0.001
0.00161952
0.001
0.001
0.001
0.001
0.001
0.001
0.001
0.001
0.00129712
0.001
0.001
0.001
0.001
0.001
0.001
0.001
0.001
0.001
0.00100829
0.001
0.001
0.001
0.001
0.00100997
0.00111671
0.001
0.001
0.001
0.001
0.001
0.00101
0.001
0.001
0.00104071
0.0010349
0.001
0.001
0.001
0.00101
0.00101
0.001
0.001
0.001
0.001
0.001
0.001
0.001
0.001
0.0010078
0.001
0.001
0.001
0.001
0.001
0.001
0.001
0.001
0.00101
0.001
0.001
0.773062
0.766202
0.739268
0.731877
0.651201
0.722006
0.548102
0.480398
0.473772
0.470754
0.472532
0.472297
0.414292
0.414583
0.26155
0.22249
0.177032
0.357604
0.348512
0.305619
0.29853
0.301423
0.001
0.001
0.00101877
0.00101875
0.001
0.001
0.001
0.001
0.00101877
0.001
0.001
0.00100893
0.001
0.001
0.001
0.001
0.001
0.001
0.001
0.001
0.001
0.001
0.00134975
0.0013499
0.001
0.001
0.001
0.001
0.0316762
0.001
0.19927
0.36595
0.398693
0.428951
0.507938
0.62471
0.693788
0.662552
0.709542
0.642097
0.688984
0.734998
0.684335
0.688514
0.00118123
0.001
0.00101
0.001
0.001
0.00119533
0.001
0.001
0.00119534
0.001
0.001
0.001
0.001
0.001
0.001
0.001
0.001
0.001
0.00101
0.001
0.001
0.001
0.001
0.001
0.00172981
0.00100997
0.151875
0.15747
0.0735182
0.0935961
0.001
0.001
0.001
0.001
0.001
0.00139107
0.001
0.001
0.001
0.001
0.001
0.001
0.001
0.001
0.00127304
0.00128184
0.001
0.001
0.001
0.001
0.001
0.001
0.001
0.001
0.001
0.001
0.00122064
0.001
0.643996
0.640158
0.470492
0.381832
0.374356
0.353803
0.637838
0.553001
0.80221
0.8731
0.772036
0.69666
0.885167
0.86909
0.931669
0.982129
1.01106
1.01336
1.04051
1.01628
1.06954
1.095
1.09132
1.09136
1.10846
1.09395
1.09609
1.14403
1.08487
1.08015
0.204506
0.13115
0.268888
0.349323
0.130767
0.0802103
0.133145
0.124893
0.001
0.0148519
0.001
0.0161297
0.001
0.176433
0.118129
0.171998
0.178535
0.175298
0.0503766
0.001
0.001
0.001
0.001
0.001
0.001
0.001
0.001
0.001
0.001
0.001
0.001
0.001
0.0218179
0.001
0.0777425
0.022869
0.0640215
0.116076
0.150586
0.138034
0.168179
0.161712
0.17764
0.1674
0.205111
0.214186
0.216598
0.223345
0.23024
0.237786
0.270352
0.276635
0.269437
0.261286
0.268795
0.255474
0.277108
0.285974
0.334219
0.341287
0.302565
0.326552
0.32852
0.358329
0.396661
0.449264
0.483826
0.489924
0.497688
0.563941
0.651487
0.720957
0.737657
0.857919
0.731874
0.787969
0.937707
0.95677
0.959825
0.997521
1.04418
1.09554
1.10299
1.10802
1.13582
1.16468
1.19269
1.19159
1.1912
1.19268
1.19399
1.17406
1.1119
1.17548
1.14144
1.09426
1.09584
1.12458
1.16026
1.16704
1.09377
1.15237
1.11452
0.001
0.001
0.00531156
0.0793729
0.001
0.0343767
0.168275
0.107647
0.135917
0.001
0.001
0.001
0.001
0.00323102
0.001
0.001
0.001
0.001
0.001
0.00127752
0.00127724
0.001
0.001
0.001
0.00100999
0.001
0.001
0.001
0.001
0.00138916
0.00138733
0.001
0.001
0.001
0.00161934
0.001
0.001
0.001
0.001
0.001
0.00101
0.001
0.00129694
0.001
0.00101
0.001
0.001
0.001
0.001
0.001
0.001
0.00105217
0.001
0.001
0.001
0.001
0.001
0.001
0.001
0.001
0.001
0.001
0.001
0.001
0.001
0.001
0.00104883
0.001
0.001
0.001
0.001
0.001
0.001
0.001
0.00101
0.001
0.00100962
0.001
0.001
0.001
0.001
0.001
0.001
0.001
0.001
0.684785
0.688898
0.668644
0.669757
0.6006
0.664799
0.471202
0.536878
0.432801
0.430397
0.374948
0.360805
0.300859
0.306468
0.212847
0.118867
0.0912066
0.260445
0.30398
0.305977
0.300724
0.301319
0.00101885
0.001
0.00101885
0.001
0.001
0.001
0.001
0.001
0.00100548
0.001
0.001
0.001
0.001
0.001
0.001
0.00100999
0.001
0.001
0.001
0.001
0.001
0.001
0.001
0.00101
0.001
0.001
0.001
0.001
0.0990804
0.001
0.235169
0.370633
0.346342
0.455663
0.62236
0.522538
0.597889
0.6034
0.588392
0.621318
0.676111
0.673727
0.682546
0.645712
0.001
0.001
0.001
0.001
0.001
0.001
0.001
0.001
0.001
0.001
0.001
0.001
0.001
0.001
0.001
0.001
0.001
0.001
0.001
0.00100999
0.001
0.001
0.00163706
0.001
0.00101
0.001
0.001
0.001
0.001
0.001
0.001
0.0300747
0.0316402
0.001
0.001
0.001
0.001
0.001
0.001
0.0723951
0.0143612
0.001
0.001
0.001
0.001
0.00100989
0.00128131
0.00128131
0.001
0.001
0.001
0.001
0.001
0.001
0.001
0.001
0.001
0.001
0.001
0.00100971
0.001
0.001
0.001
0.001
0.001
0.001
1.2188
1.22585
1.25709
1.22979
1.2767
1.2583
1.28023
1.2803
1.33212
1.3189
1.28613
1.33447
1.30001
1.35364
1.17922
1.13362
1.15432
1.20186
1.18334
1.15312
1.15905
1.2102
1.21317
1.19455
1.17079
1.22596
1.20449
1.2102
1.24046
1.09433
1.09617
1.09496
1.09405
1.1122
1.13249
0.689164
0.627237
0.535361
0.429925
0.340885
0.427259
0.621402
0.609179
0.85023
0.868735
0.752927
0.840686
0.874816
0.923278
0.970713
1.01234
1.0129
1.01124
1.00981
1.0383
1.05076
1.07833
1.06333
1.06795
1.07269
1.08343
1.06037
1.05931
0.257673
0.183009
0.126013
0.116036
0.175859
0.347793
0.323768
0.0557963
0.114746
0.001
0.001
1.19784
1.2206
1.23417
1.24172
1.24867
1.26091
1.2652
1.29227
1.27721
1.30016
1.29716
1.34505
1.37185
1.38415
1.38485
1.3908
1.408
1.4309
0.001
0.001
0.00145151
0.0881828
0.00114685
0.168894
0.059611
0.001
0.00130257
0.001
0.00130262
0.00130255
0.001
0.001
0.001
0.001
0.001
0.001
0.001
0.001
0.001
0.001
0.00125341
0.001
0.02281
0.001
0.110972
0.0566653
0.140142
0.10452
0.137979
0.163462
0.194512
0.20941
0.236916
0.239004
0.24596
0.241308
0.296577
0.282636
0.278054
0.270532
0.325221
0.302353
0.376725
0.334184
0.31725
0.353813
0.401995
0.398569
0.416824
0.444233
0.449929
0.397416
0.498813
0.537604
0.512446
0.492949
0.582952
0.661136
0.738303
0.800016
0.750064
0.766568
0.895742
0.951209
0.996834
0.977975
1.04039
1.07421
1.11355
1.1276
1.12414
1.14312
1.2024
1.18282
1.19278
1.20248
1.19278
1.19129
1.19029
1.19094
1.19016
1.19178
1.1908
0.001
0.001
0.00228986
0.001
0.001
0.001
0.001
0.001
0.001
0.001
0.001
0.001
0.001
0.001
0.00145145
0.001
0.001
0.001
0.001
0.00127694
0.001
0.001
0.001
0.001
0.001
0.001
0.001
0.001
0.00111428
0.00111425
0.00138336
0.001
0.00101842
0.001
0.001
0.001
0.001
0.001
0.001
0.001
0.00100984
0.001
0.00111417
0.001
0.001
0.001
0.00101
0.001
0.001
0.001
0.001
0.00239988
0.001
0.001
0.001
0.001
0.001
0.001
0.00100993
0.001
0.001
0.001
0.001
0.001
0.00106205
0.001
0.001
0.001
0.001
0.00106126
0.001
0.001
0.001
0.001
0.001
0.001
0.001
0.001
0.00101
0.001
0.001
0.001
0.001
0.001
0.001
0.001
0.001
0.001
0.001
0.00203097
0.001
0.001
0.001
0.001
0.00203092
1.37072
1.34396
1.3302
1.42627
1.46109
1.45293
0.666613
0.667252
0.651434
0.64676
0.574794
0.6366
0.466907
0.392956
0.322089
0.331617
0.306419
0.301167
0.300855
0.306309
0.177675
0.100603
0.187892
0.270454
0.26511
0.001
0.001
0.001
0.001
0.001
0.001
0.001
0.001
0.001
0.001
0.00100943
0.001
0.001
0.001
0.001
0.001
0.00100998
0.001
0.001
0.001
0.001
0.001
0.001
0.001
0.001
0.001
0.001
0.0711342
0.212591
0.323057
0.324628
0.648691
0.561705
0.580325
0.361227
0.453842
0.53742
0.591477
0.596112
0.588249
0.60963
0.639206
0.634052
0.001
0.00114889
0.001
0.001
0.001
0.001
0.00100904
0.001
0.001
0.001
0.001
0.001
0.001
0.001
0.001
0.001
0.001
0.00100504
0.001
0.001
0.001
0.001
0.001
0.001
0.001
0.001
0.001
0.001
0.001
0.001
0.00101
0.001
0.001
0.001
0.001
0.001
0.001
0.0262551
0.0644983
0.0530284
0.001
0.001
0.001
0.001
0.001
0.001
0.001
0.001
0.00113587
0.001
0.001
0.001
0.001
0.001
0.001
0.001
0.001
0.001
0.001
0.001
0.001
0.001
0.001
0.001
0.001
0.001
0.001
0.001
0.001
0.001
0.001
0.001
0.001
0.001
1.21293
1.22606
1.25386
1.27873
1.29236
1.28981
1.31784
1.28953
1.1494
1.14517
1.12895
1.15176
1.18462
1.14449
1.1937
1.16304
1.08188
1.07077
1.0695
1.09818
1.1266
1.1027
0.689775
0.611631
0.507779
0.602738
0.447526
0.359377
0.616455
0.608234
0.856082
0.857026
0.870984
0.762101
0.844968
0.956595
0.902795
0.850325
0.886276
0.990432
1.00055
0.994608
0.998567
1.00498
1.02996
1.05606
1.04486
1.05843
1.05848
1.06001
1.06148
1.05638
1.06029
0.0957266
0.10327
0.245799
0.325126
0.0993508
0.179641
0.339629
0.356112
0.0896767
0.0340503
0.001
0.0116292
1.23036
1.18783
1.21012
1.25589
1.25463
1.2569
1.26724
1.28933
1.31267
1.32553
1.32137
1.32457
1.34856
1.38714
1.37144
1.38854
1.40567
1.44542
1.4307
1.26532
1.27462
1.29353
1.4635
1.46202
1.45699
0.00145129
0.00145124
0.00145132
0.001
0.001
0.001
0.001
0.001
0.001
0.001
0.001
0.001
0.001
0.00101371
0.001
0.00101367
0.001
0.001
0.001
0.001
0.00184982
0.001
0.001
0.001
0.0456737
0.0709871
0.00388962
0.0435908
0.111846
0.0709726
0.198482
0.138177
0.214528
0.221677
0.23058
0.228364
0.275763
0.312293
0.352202
0.350345
0.355266
0.343101
0.366081
0.348208
0.402453
0.406995
0.424492
0.426939
0.400317
0.406986
0.52463
0.565939
0.46753
0.53288
0.586831
0.541775
0.65095
0.690552
0.792344
0.827599
0.804676
0.895422
0.948804
1.04896
1.03475
1.09406
1.0671
1.16273
1.16785
1.16177
1.19251
1.22221
1.22012
1.27365
1.239
1.26428
1.22625
1.22234
1.26221
1.19239
1.23162
1.19374
0.001
0.001
0.001
0.001
0.001
0.001
0.001
0.001
0.00101
0.001
0.001
0.001
0.001
0.001
0.001
0.001
0.001
0.001
0.001
0.001
0.001
0.001
0.001
0.001
0.001
0.001
0.00103646
0.001
0.00111424
0.00111425
0.001
0.001
0.001
0.001
0.00101
0.001
0.0010004
0.001
0.001
0.001
0.001
0.001
0.00215425
0.001
0.001
0.001
0.001
0.001
0.0010249
0.001
0.001
0.00220497
0.001
0.001
0.001
0.00102487
0.00125887
0.001
0.00100983
0.001
0.001
0.001
0.00101
0.001
0.00106191
0.00106208
0.001
0.001
0.00106094
0.00106155
0.001
0.001
0.001
0.001
0.00152846
0.001
0.0015283
0.001
0.001
0.001
0.001
0.00100984
0.00101
0.00100994
0.001
0.001
0.001
0.001
0.001
0.001
0.001
0.001
0.001
0.001
0.0012588
0.001
0.00100958
0.00100997
0.001
0.001
0.001
0.001
0.00101
1.33359
1.35426
1.36522
1.35987
1.39111
1.49693
1.47084
1.47826
1.49811
1.43469
0.568859
0.566127
0.500494
0.494278
0.462624
0.479023
0.392625
0.359038
0.333494
0.305709
0.276651
0.276609
0.188016
0.201938
0.0691488
0.110997
0.110172
0.001
0.001
0.001
0.00101
0.001
0.001
0.001
0.00105494
0.04254
0.001
0.001
0.001
0.001
0.001
0.001
0.001
0.00101
0.001
0.001
0.00102184
0.001
0.001
0.001
0.001
0.001
0.434569
0.443049
0.484347
0.18505
0.326693
0.322532
0.358566
0.480642
0.55021
0.516863
0.419711
0.500941
0.535316
0.537916
0.452553
0.48049
0.001
0.001
0.00114892
0.00101
0.001
0.001
0.00101
0.00118742
0.001
0.001
0.001
0.001
0.001
0.001
0.001
0.00101494
0.001
0.00101513
0.00101505
0.00101
0.001
0.001
0.001
0.001
0.001
0.00100577
0.001
0.001
0.001
0.001
0.00106106
0.001
0.00100563
0.001
0.001
0.001
0.001
0.001
0.001
0.001
0.001
0.001
0.001
0.001
0.00101462
0.0460691
0.0559881
0.0662278
0.001
0.001
0.001
0.001
0.001
0.001
0.00146977
0.001
0.001
0.00147003
0.001
0.001
0.001
0.001
0.001
0.001
0.001
0.00103965
0.001
0.001
0.001
0.001
0.001
0.001
0.001
0.00117561
0.001
0.00103959
0.001
0.001
0.001
0.001
0.00101
0.001
0.001
0.00117559
1.21963
1.17283
1.24628
1.21171
1.22614
1.26214
1.28271
1.31983
1.30183
1.32031
1.31256
1.26384
1.32118
1.2921
1.11335
1.11342
1.10151
1.11862
1.12749
1.14169
1.13894
1.14533
1.05583
1.05883
1.07488
1.0636
1.09249
1.10006
0.68906
0.617672
0.532066
0.615609
0.407592
0.497318
0.616177
0.617749
0.84067
0.845382
0.844245
0.767988
0.935971
0.977154
0.891625
0.844036
0.983815
0.987594
0.999124
0.986474
1.02337
1.04825
1.05084
1.05456
1.04932
1.05118
1.05774
1.05964
1.05437
1.05621
0.0918458
0.0864224
0.266328
0.335006
0.238037
0.155359
0.392654
0.334154
0.0683031
0.0931131
0.0609129
0.001
1.2273
1.26784
1.24985
1.27653
1.29571
1.28676
1.32147
1.33267
1.31087
1.32186
1.30889
1.31903
1.32696
1.34628
1.37223
1.38801
1.38497
1.4421
1.42133
1.46617
1.47557
1.345
1.3571
1.47039
1.47879
0.001
0.001
0.001
0.001
0.001
0.001
0.001
0.001
0.00101
0.001
0.001
0.001
0.001
0.001
0.001
0.001
0.00184977
0.001
0.001
0.001
0.001
0.001
0.00100047
0.001
0.0608308
0.0643609
0.0266767
0.001
0.0974909
0.147526
0.20406
0.182006
0.21081
0.198906
0.319812
0.268554
0.37008
0.360733
0.388189
0.389621
0.36829
0.423854
0.465692
0.4387
0.42447
0.450238
0.502071
0.486542
0.463861
0.515394
0.598678
0.593999
0.590502
0.610327
0.739811
0.658101
0.826127
0.852511
0.851114
0.918381
0.994249
1.06893
1.07765
1.08909
1.13786
1.1841
1.22512
1.22172
1.26172
1.23658
1.28663
1.30213
1.29859
1.29833
1.29924
1.29593
1.26421
1.30145
1.26815
0.001
0.001
0.00727553
0.00102518
0.001
0.001
0.001
0.001
0.001
0.001
0.00101
0.00130933
0.0013097
0.00130943
0.00130979
0.00130976
0.00130969
0.001
0.00130985
0.00664014
0.00100383
0.001
0.001
0.00105712
0.001
0.00105689
0.00105692
0.001
0.001
0.00100217
0.001
0.001
0.001
0.001
0.00101
0.00103728
0.001
0.001
0.00100986
0.001
0.001
0.001
0.00184805
0.001
0.001
0.001
0.001
0.001
0.001
0.001
0.001
0.001
0.00100941
0.001
0.001
0.001
0.00100992
0.001
0.001
0.001
0.00101
0.001
0.001
0.001
0.001
0.001
0.001
0.0010008
0.001
0.001
0.001
0.00100949
0.001
0.001
0.001
0.001
0.001
0.001
0.001
0.001
0.001
0.001
0.00101
0.001
0.001
0.001
0.001
0.001
0.001
0.001
0.001
0.001
0.001
0.001
0.001
0.001
0.001
0.001
0.001
0.001
0.001
0.001
0.001
0.001
0.001
0.001
0.001
0.001
0.001
0.001
0.001
0.001
0.00106443
0.001
0.001
0.001
0.001
1.52037
1.51997
1.52446
1.52038
1.53391
1.52868
1.36462
1.36515
1.43986
1.39991
1.51811
1.53198
1.49533
1.38746
1.31938
0.43772
0.43908
0.440627
0.430736
0.432635
0.369829
0.413853
0.198339
0.256345
0.116505
0.118168
0.0669373
0.0683882
0.066821
0.001
0.001
0.001
0.001
0.001
0.0703924
0.001
0.001
0.001
0.001
0.001
0.001
0.001
0.001
0.001
0.001
0.001
0.00101141
0.0010133
0.001
0.00101429
0.001
0.001
0.001
0.436561
0.431804
0.441084
0.438983
0.439474
0.15215
0.268517
0.2123
0.331144
0.394424
0.416398
0.343953
0.431936
0.380013
0.380145
0.36697
0.001
0.00111349
0.001
0.001
0.001
0.001
0.001
0.00101468
0.001
0.001
0.0010136
0.001
0.001
0.001
0.00102096
0.001
0.001
0.001
0.001
0.001
0.001
0.001
0.001
0.001
0.001
0.00100955
0.001
0.001
0.001
0.001
0.001
0.001
0.001
0.001
0.001
0.001
0.00106155
0.001
0.00106134
0.001
0.001
0.001
0.001
0.001
0.00100037
0.001
0.001
0.001
0.001
0.001
0.00101
0.001
0.001
0.001
0.001
0.001
0.001
0.0433572
0.001
0.001
0.001
0.001
0.001
0.001
0.001
0.001
0.001
0.00100956
0.001
0.001
0.001
0.001
0.001
0.001
0.001
0.001
0.001
0.001
0.001
0.001
0.001
0.001
0.001
0.001
0.001
0.001
0.001
0.001
0.001
0.001
0.00182838
0.00182759
0.001
0.001
0.001
0.001
0.00100972
0.001
1.20446
1.16169
1.21123
1.20065
1.18841
1.23569
1.1998
1.23691
1.26564
1.28733
1.3382
1.30138
1.25317
1.10329
1.10155
1.13196
1.11741
1.14495
1.14142
1.16604
1.14804
1.05935
1.06382
1.08397
1.07144
1.08602
1.09154
0.728099
0.659146
0.57891
0.614345
0.557404
0.467521
0.651531
0.617121
0.843984
0.848993
0.809244
0.848028
0.94137
0.987251
0.847704
0.89801
0.993035
0.986919
1.00987
0.992404
1.03202
1.05025
1.05329
1.05134
1.04223
1.05024
1.05659
1.05251
1.04523
1.04859
0.0920998
0.150167
0.334608
0.313671
0.230913
0.320012
0.331292
0.413985
0.0849168
0.0774169
0.0744501
0.001
0.001
0.001
0.001
1.29725
1.30608
1.33365
1.32267
1.34939
1.3598
1.36124
1.3601
1.39539
1.37534
1.38519
1.35403
1.38161
1.39304
1.41966
1.4391
1.45218
1.44676
1.50143
1.49934
1.52659
1.4981
1.41393
1.41837
1.5374
1.53305
0.001
0.001
0.00101
0.001
0.001
0.0012413
0.00124087
0.001
0.001
0.001
0.001
0.00202689
0.00109246
0.001
0.001
0.001
0.00100232
0.001
0.001
0.001
0.001
0.001
0.001
0.001
0.001
0.00868902
0.0811221
0.001
0.18392
0.119811
0.189508
0.197318
0.287603
0.221838
0.348255
0.381602
0.377287
0.380552
0.505258
0.473833
0.44216
0.495561
0.515744
0.50795
0.508983
0.494768
0.513313
0.513703
0.590774
0.637119
0.672477
0.626823
0.673788
0.69551
0.83894
0.77019
0.863984
0.852457
0.933529
1.00709
1.09583
1.08808
1.12802
1.16174
1.23971
1.23073
1.25283
1.25798
1.28424
1.29635
1.3103
1.30459
1.31389
1.30849
1.30003
1.31368
1.30312
1.30204
0.001
0.001
0.00101
0.001
0.001
0.001
0.001
0.001
0.001
0.00130972
0.001
0.001
0.001
0.00131054
0.0013106
0.00131041
0.00130978
0.00130945
0.00131046
0.001
0.001
0.00100968
0.001
0.001
0.001
0.00100179
0.001
0.001
0.001
0.001
0.001
0.00101
0.001
0.001
0.00100863
0.00103729
0.001
0.001
0.001
0.00365261
0.001
0.001
0.001
0.00100944
0.001
0.001
0.001
0.00100983
0.001
0.001
0.00100647
0.001
0.00100976
0.001
0.001
0.001
0.001
0.001
0.00362486
0.001
0.001
0.001
0.001
0.001
0.00121641
0.00121631
0.00121633
0.001
0.001
0.001
0.001
0.001
0.001
0.001
0.001
0.001
0.001
0.001
0.001
0.001
0.001
0.001
0.001
0.001
0.001
0.001
0.001
0.001
0.001
0.001
0.001
0.001
0.001
0.001
0.001
0.001
0.001
0.001
0.001
0.001
0.001
0.001
0.001
0.001
0.001
0.001
0.00101
0.001
0.00131431
0.001
0.00115046
0.001
0.001
0.00113161
0.001
0.001
1.54659
1.56507
1.57335
1.53385
1.53848
1.52012
1.53333
1.44654
1.44503
1.45305
1.45553
1.49864
1.50845
1.5161
1.37361
1.39751
1.32758
1.36932
1.35927
0.435238
0.429351
0.332357
0.297626
0.391456
0.32693
0.337185
0.206236
0.232955
0.0947711
0.0664029
0.0686662
0.0676778
0.0453022
0.001
0.001
0.001
0.0960351
0.001
0.001
0.001
0.00105315
0.001
0.001
0.001
0.001
0.001
0.001
0.001
0.001
0.001
0.00101
0.001
0.001
0.00101844
0.001
0.001
0.001
0.395882
0.438854
0.413911
0.391888
0.156325
0.156254
0.176901
0.251521
0.366939
0.366362
0.320542
0.365144
0.367941
0.00100999
0.001
0.001
0.001
0.001
0.001
0.00133233
0.00132967
0.001
0.001
0.00101
0.00100946
0.001
0.001
0.00100846
0.001
0.0010099
0.0036577
0.001
0.001
0.001
0.001
0.001
0.001
0.001
0.0010613
0.001
0.001
0.00112778
0.001
0.001
0.001
0.001
0.001
0.001
0.001
0.001
0.001
0.001
0.001
0.001
0.001
0.001
0.001
0.001
0.001
0.001
0.001
0.001
0.001
0.001
0.001993
0.001
0.001
0.001
0.001
0.001
0.001
0.001
0.001
0.001
0.001
0.001
0.001
0.001
0.001
0.001
0.00105638
0.001
0.001
0.001
0.0010864
0.001
0.001
0.001
0.001
0.001
0.001
0.001
0.001
0.001
0.001
0.001
0.001
0.001
0.001
0.001
0.001
0.001
0.001
0.001
0.001
0.001
0.001
0.001
0.001
0.001
0.00128134
0.00101
0.001
0.001
0.001
0.001
0.00100999
0.001
0.001
1.14752
1.18651
1.15609
1.2232
1.23273
1.22508
1.26173
1.2209
1.2415
1.29749
1.25677
1.32745
1.29287
1.361
1.08174
1.10689
1.10174
1.12413
1.10735
1.12913
1.17275
1.12346
1.05349
1.06046
1.06789
1.07645
1.08014
1.07415
0.784296
0.711054
0.594849
0.620764
0.51534
0.610053
0.617743
0.6834
0.850706
0.852672
0.848713
0.835022
0.943957
0.990669
0.910082
0.859867
0.991322
0.98885
1.00267
1.017
1.04745
1.02988
1.04345
1.05041
1.05919
1.04138
1.05101
1.0547
1.04346
1.04358
0.17255
0.077998
0.34557
0.342974
0.250782
0.354447
0.344707
0.450393
0.0752594
0.0762721
0.052284
0.0342299
0.001
0.0724362
1.31458
1.33746
1.3544
1.38788
1.38421
1.40157
1.41521
1.42442
1.43175
1.41943
1.42675
1.45124
1.47198
1.48356
1.48698
1.49378
1.51472
1.52931
1.54087
1.54606
1.55382
1.43083
1.42144
1.57786
1.59408
0.001
0.001
0.001
0.001
0.001
0.001
0.001
0.001
0.001
0.0020268
0.001
0.001
0.001
0.001
0.001
0.0010547
0.0010547
0.001
0.001
0.001
0.001
0.001
0.001
0.001
0.001
0.010286
0.0118186
0.0992271
0.158028
0.140105
0.208248
0.151416
0.346427
0.269596
0.381947
0.38108
0.394968
0.455931
0.583618
0.591336
0.527867
0.562538
0.591935
0.537534
0.649077
0.574107
0.554407
0.588792
0.716583
0.73124
0.790639
0.849064
0.7276
0.823581
0.9645
0.916657
0.9848
0.954345
1.14688
1.11513
1.17966
1.19821
1.26837
1.27825
1.33781
1.30669
1.3501
1.33761
1.35531
1.38518
1.3567
1.38826
1.39849
1.35433
1.34669
1.39018
1.38825
1.36051
0.001
0.001
0.00101
0.001
0.001
0.001
0.001
0.001
0.001
0.00107591
0.001
0.001
0.001
0.001
0.001
0.001
0.00100968
0.0013103
0.001
0.001
0.00131086
0.00101599
0.001
0.001
0.0012348
0.001
0.001
0.001
0.001
0.001
0.00153843
0.00100984
0.001
0.001
0.001
0.001
0.001
0.00100967
0.001
0.001
0.001
0.001
0.001
0.001
0.001
0.001
0.00101697
0.00101701
0.00101716
0.001
0.001
0.001
0.001
0.00116763
0.001
0.001
0.00116754
0.001
0.001
0.001
0.00100996
0.00131424
0.001
0.00113162
0.001
0.001
0.001
0.001
0.00101
0.001
0.001
0.001
0.001
0.001
0.001
0.001
0.001
0.001
0.001
0.001
0.001
0.001
0.001
0.001
0.001
0.001
0.001
0.001
0.001
0.001
0.001
0.001
0.001
0.001
0.001
0.001
0.001
0.001
0.001
0.001
0.001
0.001
0.001
0.001
0.001
0.001
0.001
0.001
0.001
0.001
0.001
0.001
0.001
0.001
0.001
0.001
0.001
0.00115046
0.001
0.001
0.001
0.0011331
0.001
0.001
1.60188
1.58825
1.59815
1.57314
1.56443
1.5835
1.57492
1.55008
1.57006
1.42927
1.45416
1.44821
1.46339
1.52223
1.57964
1.58919
1.49094
1.37448
1.40628
1.36851
1.36208
1.35948
1.40691
1.28859
0.202436
0.29499
0.197649
0.241146
0.238377
0.14461
0.144564
0.149549
0.147753
0.149185
0.119885
0.0410378
0.0151685
0.001
0.001
0.0441297
0.155429
0.001
0.001
0.00106678
0.001
0.001
0.00100999
0.001
0.0010142
0.00100155
0.001
0.001
0.00113201
0.001
0.001
0.001
0.001132
0.001
0.00100853
0.001
0.00100507
0.306627
0.229817
0.205434
0.293104
0.157316
0.181921
0.316497
0.245737
0.290905
0.366171
0.362246
0.00110799
0.001
0.001
0.00115396
0.001
0.001
0.00133189
0.00133105
0.001
0.001
0.00100995
0.001
0.001
0.001
0.001
0.001
0.00388165
0.00398123
0.001
0.001
0.00389773
0.001
0.00199303
0.001
0.001
0.001
0.001
0.00337259
0.001
0.00112791
0.00349535
0.001
0.001
0.001
0.001
0.001
0.001
0.001
0.001
0.001
0.001
0.001
0.001
0.00101
0.001
0.001
0.001
0.001
0.001
0.00117112
0.001
0.001
0.001
0.00103938
0.001
0.001
0.001
0.001
0.001
0.001
0.001
0.001
0.001
0.001
0.001
0.001
0.001
0.001
0.001
0.001
0.001
0.001
0.001
0.001
0.001
0.001
0.00105638
0.00105639
0.001
0.001
0.001
0.001
0.001
0.001
0.001
0.001
0.00159148
0.001
0.001
0.001
0.001
0.001
0.001
0.00159148
0.001
0.001
0.001
0.001
0.001
0.001
0.001
0.001
0.001
0.001
0.001
0.001
0.001
0.00101
0.00101036
0.001
0.00101
0.001
0.001
0.001
0.001
0.001
0.001
0.001
1.13392
1.17575
1.12919
1.17122
1.17465
1.19789
1.1777
1.21325
1.22601
1.26009
1.26308
1.25773
1.29451
1.26405
1.36104
1.07325
1.07799
1.08322
1.09027
1.08801
1.09035
1.09556
1.11035
1.10745
1.05767
1.06182
1.07003
1.07475
1.07558
0.756592
0.831286
0.636474
0.637545
0.55619
0.651
0.717034
0.641201
0.8679
0.873674
0.882186
0.871393
0.990467
0.952778
0.924917
0.956671
1.00306
0.994805
1.02557
1.0413
1.07449
1.05788
1.05865
1.05098
1.06231
1.06829
1.04969
1.05704
1.06935
0.169228
0.0718972
0.351784
0.349799
0.251588
0.351944
0.454057
0.352749
0.0812468
0.0895793
0.0603329
0.116598
0.138388
0.112203
1.41298