/*--------------------------------*- C++ -*----------------------------------*\
  =========                 |
  \\      /  F ield         | OpenFOAM: The Open Source CFD Toolbox
   \\    /   O peration     | Website:  https://openfoam.org
    \\  /    A nd           | Version:  8
     \\/     M anipulation  |
\*---------------------------------------------------------------------------*/
FoamFile
{
    version     2.0;
    format      ascii;
    class       volScalarField;
    location    "20700";
    object      Hclip;
}
// * * * * * * * * * * * * * * * * * * * * * * * * * * * * * * * * * * * * * //

dimensions      [0 1 0 0 0 0 0];

internalField   nonuniform List<scalar> 
526318
(
1.80045
1.77144
1.84616
1.76
1.84095
1.76576
1.81279
1.70169
1.77322
1.64884
1.63357
1.76884
1.70306
1.75757
1.70539
1.74146
1.69733
1.89915
1.8222
1.85428
1.86252
1.81385
1.55905
1.80521
1.69764
1.56251
1.82662
1.82977
1.82126
1.84682
1.85644
1.92532
1.90353
1.78332
1.78382
1.71792
1.73727
1.83328
1.77539
1.74081
1.79225
1.73587
1.41169
1.47199
1.37758
1.42105
1.39803
1.53437
1.69282
1.6162
1.68571
1.68094
1.6394
1.60834
1.09723
1.34745
1.33932
1.13981
1.86092
1.8732
1.89672
1.85763
1.78749
1.91671
1.91605
1.857
1.85387
1.85713
1.75082
1.74536
1.86402
1.64814
1.69922
1.59196
1.55039
1.54341
1.63652
1.63512
1.53726
1.59496
1.65687
1.6645
1.62189
1.57775
1.59904
1.67774
1.67672
1.66366
1.60143
1.67123
1.57294
1.53051
1.52844
1.45838
1.44707
1.45566
1.44862
1.45525
1.44771
1.44633
0.884888
0.823699
0.913549
0.949811
1.00873
0.791198
1.35378
1.17204
1.48782
1.45022
1.48628
1.60777
1.82324
1.72249
1.83146
1.84114
1.91234
1.87118
1.92285
1.45047
1.44187
1.44437
1.44689
1.40211
1.44653
1.35276
1.40063
1.31175
1.35235
1.30478
1.30792
1.2979
1.27026
1.2661
1.28782
1.23623
1.28966
1.23492
1.25381
1.20424
1.20513
1.22526
1.26054
1.24721
1.19781
1.20114
1.21368
1.21086
1.19649
1.20512
1.22222
1.21102
1.19839
1.2069
1.20771
1.18832
1.22117
1.21912
1.17006
1.13824
1.20675
1.15921
1.2003
1.72047
1.8178
1.75401
1.74199
1.54475
1.60826
1.53745
1.54228
1.53509
1.54949
1.56304
1.53975
1.47676
1.44627
1.41709
1.34968
1.41146
1.45648
1.44975
1.44978
1.33857
1.39543
1.27654
1.28305
1.29452
1.29109
1.28736
1.29358
1.27901
1.28689
1.28442
1.26649
1.24847
1.27719
1.27038
1.24028
1.21625
1.24663
1.22242
1.23079
1.24338
1.22888
1.24108
1.199
1.21384
1.2435
1.24406
1.69185
1.71101
1.73892
1.69094
1.71034
1.68727
1.68794
1.58723
1.59721
1.35527
1.34174
1.33848
1.44667
1.61453
1.46488
1.51343
1.50009
1.46203
1.4232
0.939518
0.740896
1.08196
1.28118
0.533646
0.375619
0.672074
0.775107
0.740995
0.738723
1.91058
1.8838
1.93578
1.92513
1.90457
1.89769
1.79665
1.88983
1.73087
1.66758
1.67773
1.67064
1.67905
1.67184
1.6554
1.6681
1.57843
1.64228
1.46746
1.51808
1.44072
1.46255
0.259888
0.181804
0.642745
0.41868
0.922376
0.865752
0.924745
1.07401
1.45453
1.26975
1.49107
1.50661
1.61554
1.72441
1.8368
1.84106
1.9016
1.85779
1.91921
1.95571
1.43057
1.42056
1.38436
1.35767
1.25662
1.28798
1.22009
1.22429
1.21667
1.21368
1.20283
1.20494
1.13154
1.15186
1.18979
1.22939
1.28298
1.25099
1.21195
1.2099
1.14302
1.1326
1.18548
1.2376
1.1619
1.19929
1.19671
1.17479
1.16156
1.12847
1.13307
1.09302
1.09052
1.09953
1.0847
1.20671
1.24669
1.20929
1.25073
1.60784
1.56038
1.46547
1.5567
1.47653
1.52774
1.53463
1.53281
1.53967
1.53737
1.44633
1.37225
1.29914
1.27629
1.35419
1.29185
1.27987
1.3897
1.27715
1.3299
1.26734
1.26552
1.27663
1.27091
1.28071
1.2787
1.27925
1.27872
1.27671
1.28098
1.28589
1.28721
1.29361
1.29601
1.29675
1.27513
1.2897
1.27226
1.2463
1.24522
1.26997
1.29978
1.29446
1.27137
1.25289
1.28069
1.31952
1.32099
1.33133
1.29197
1.32456
1.3399
1.38132
1.33027
1.34022
1.36264
1.3942
1.49753
1.60842
1.52414
1.58497
1.6431
1.69364
1.61087
1.47161
1.58782
1.46622
1.49714
1.23132
1.17259
1.20339
1.19253
1.31044
1.42259
1.35986
1.43774
1.43059
1.44446
1.43395
0.707187
0.84803
1.00501
0.843138
1.08814
0.968606
0.105954
0.26605
0.19802
0.122135
0.0299752
0.268257
0.49241
0.733476
0.61813
0.643739
1.94832
1.92199
1.95467
1.94908
1.93392
1.90509
1.82764
1.73435
1.66428
1.68923
1.66563
1.66243
1.63976
1.63636
1.62234
1.62285
1.57425
1.6163
1.5379
1.48334
1.42731
1.38921
0.001
0.00107133
0.00107134
0.001
0.001
0.001
0.001
0.00107136
0.00107141
0.00107135
0.10292
0.001
0.001
0.001
0.0651873
0.001
0.158307
0.260863
0.265595
0.430649
0.890428
0.674188
0.988818
0.964951
1.15916
1.0065
1.37066
1.5314
1.54204
1.64466
1.84959
1.74373
1.86229
1.87897
1.8789
1.89017
1.94798
1.9727
1.34371
1.34374
1.29999
1.32231
1.26168
1.22894
1.21963
1.21733
1.21189
1.21851
1.16948
1.1649
1.11282
1.12384
1.18043
1.14842
1.12415
1.17078
1.16386
1.18527
1.09534
1.08416
1.10558
1.11898
1.11779
1.07508
1.08376
1.07601
1.08195
1.06413
1.06377
1.36353
1.33583
1.33797
1.33991
1.35676
1.46458
1.42426
1.40475
1.28658
1.33176
1.31392
1.32225
1.22106
1.15506
1.33817
1.45355
1.33898
1.34484
1.32198
1.40571
1.37977
1.45833
1.49271
1.41062
1.39358
1.43329
1.31061
1.27816
1.27865
1.27954
1.19524
1.24484
1.16667
1.1181
1.10508
1.22168
1.21711
1.2684
1.26793
1.26929
1.27069
1.26723
1.27326
1.27081
1.28003
1.27652
1.29234
1.29036
1.29838
1.2949
1.32163
1.30713
1.33247
1.33619
1.28282
1.26638
1.33182
1.31413
1.30192
1.32031
1.30127
1.2914
1.3415
1.31829
1.41908
1.42847
1.37759
1.42263
1.42941
1.39921
1.49191
1.46136
1.53076
1.5516
1.57586
1.49282
1.49092
1.50124
1.43014
1.40599
1.37902
1.47736
1.34246
1.30869
1.36772
1.39415
1.0696
1.12348
1.20319
1.33002
1.35668
1.39416
1.29902
1.25906
1.22394
1.16758
0.529849
0.61649
0.896174
0.686426
0.999656
1.07762
0.0456046
0.001
0.0294882
0.0270657
0.171162
0.001
0.553535
0.317148
0.476466
0.476539
0.001
0.001
0.001
0.001
0.001
0.00101
0.001
0.001
0.001
0.001
0.00112279
0.001
0.00109957
0.001
0.00112267
0.00112277
0.001
0.001
0.001
0.001
0.001
0.001
0.001
0.001
0.00100959
0.001
0.00100965
0.001
0.001
0.001
1.92154
1.9393
1.94541
1.94329
1.91933
1.84213
1.6811
1.76203
1.63854
1.63873
1.62234
1.61884
1.61887
1.61588
1.60209
1.61076
1.5492
1.53415
1.42516
1.46989
1.32648
1.36362
0.001
0.001
0.001
0.001
0.001
0.001
0.001
0.001
0.00101
0.001
0.001
0.001
0.001
0.001
0.001
0.001
0.001
0.00100737
0.001
0.001
0.001
0.001
0.001
0.001
0.0437275
0.190645
0.356633
0.330972
0.395347
0.577988
1.03143
0.831373
1.04634
1.04875
1.34815
1.1735
1.55344
1.50399
1.57763
1.67998
1.78877
1.86684
1.87422
1.86268
1.90591
1.93438
1.93195
1.92754
0.0011279
0.001
0.001
0.001
0.001
0.001
0.001
0.001
0.001
0.001
0.001
0.001
0.001
0.001
0.001
0.00101
0.001
1.32389
1.32469
1.3242
1.28966
1.21063
1.24503
1.16999
1.1628
1.12528
1.12234
1.07804
1.07401
1.10354
1.10141
1.06065
1.0953
1.09012
1.13966
1.12482
1.12156
1.04367
1.0157
1.01659
1.05731
1.06559
1.06742
1.0426
1.04618
1.00609
0.996613
0.959535
0.963613
1.56285
1.52923
1.56966
1.57919
1.52857
1.48431
1.65338
1.67477
1.73812
1.74904
1.29429
1.33906
1.3863
1.47214
1.29873
1.23974
1.27896
1.27454
1.11218
1.16963
1.21843
1.10398
1.32271
1.31435
1.31924
1.32608
1.34208
1.31976
1.33275
1.3481
1.22961
1.2224
1.12608
1.2077
1.20009
1.16081
1.11
1.12646
1.06412
1.08309
1.07065
1.15582
1.21977
1.14734
1.21167
1.27019
1.27047
1.26878
1.26746
1.27488
1.29194
1.28672
1.30682
1.29897
1.32114
1.3181
1.3404
1.33634
1.33882
1.33677
1.3455
1.33914
1.37793
1.35317
1.31855
1.31878
1.38482
1.35011
1.35773
1.39958
1.43686
1.44165
1.43841
1.44097
1.47094
1.52636
1.58607
1.60866
1.61631
1.59486
1.73723
1.67437
1.80207
1.84275
1.83316
1.87165
1.92866
1.79195
1.87995
1.90269
1.97779
2.02592
2.05255
2.07116
2.1011
2.04611
2.10143
2.05784
2.13617
2.13679
2.1866
2.15414
2.21545
2.24599
2.2343
2.18376
2.24968
2.27363
2.24036
2.23691
2.30306
2.27964
2.3121
2.25201
2.25194
2.31661
2.28486
2.23784
2.23724
2.27021
2.30191
1.29239
1.25715
1.42093
1.43297
1.39893
1.40617
1.40859
1.16229
1.2987
0.995083
1.02032
1.12089
1.10656
0.978123
1.06813
1.04895
1.22776
1.13079
1.12745
1.03648
1.03241
1.04256
1.06204
0.599594
0.458482
0.870077
0.647049
0.864632
0.808871
0.001
0.00102332
0.001
0.001
0.00201543
0.001
0.186306
0.431732
0.330793
0.369818
0.001
0.001
0.001
0.001
0.00136591
0.001
0.001
0.001
0.001
0.001
0.001
0.001
0.001
0.001
0.00100829
0.001
0.001
0.001
0.0010095
0.001
0.001
0.00101959
0.001
0.00101504
0.001
0.001
0.00101
0.001
0.00107019
0.001
0.00107019
0.0010703
0.001
0.00107075
0.00107053
0.00107021
0.001
0.001
0.001
0.001
0.001
0.001
0.001
0.001
0.0010078
0.001
0.001
0.001
0.001
0.001
0.001
0.001
0.001
0.00101
0.001
0.001
1.90824
1.90281
1.87446
1.88143
1.78604
1.86818
1.68717
1.62503
1.62027
1.60625
1.61768
1.61307
1.55176
1.55264
1.40789
1.36677
1.32379
1.49734
1.49701
1.44527
1.44786
1.44362
0.001
0.001
0.00112845
0.00112844
0.001
0.001
0.001
0.001
0.00112845
0.001
0.001
0.00100893
0.001
0.001
0.001
0.001
0.001
0.001
0.001
0.0307443
0.420274
0.244811
0.45323
0.450921
0.694545
0.496657
0.891462
1.04882
1.1773
1.04586
1.34409
1.50342
1.54635
1.56748
1.64297
1.7696
1.83393
1.81311
1.86735
1.78317
1.82882
1.88577
1.83117
1.82074
0.00101
0.001
0.00100993
0.001
0.001
0.00119093
0.001
0.001
0.00119093
0.001
0.001
0.001
0.001
0.001
0.00101
0.001
0.001
0.001
0.00101
0.001
0.001
0.001
0.001
0.001
0.00220959
0.00101237
1.29811
1.29779
1.21801
1.23527
1.11138
1.13579
1.07459
1.07072
1.06818
1.07493
1.04223
1.04854
1.01828
1.01976
0.996168
1.03428
1.11417
1.07376
1.11189
1.11362
0.934732
0.953452
0.995409
0.976029
0.984066
0.990353
0.933313
0.929215
0.913918
0.925231
0.93281
0.93296
1.78318
1.78341
1.61084
1.526
1.51357
1.50074
1.7799
1.69296
1.94047
2.01586
1.91155
1.83555
2.02862
2.01047
2.07551
2.12377
2.1541
2.15305
2.18203
2.15406
2.20973
2.23644
2.23206
2.23314
2.25189
2.23703
2.23822
2.28463
2.22767
2.22104
1.34664
1.27271
1.41653
1.48826
1.27787
1.22003
1.27582
1.27367
1.10092
1.15893
0.990568
1.15176
1.04374
1.31875
1.27093
1.31362
1.30956
1.31717
1.21338
1.11328
1.03529
1.02694
1.04265
1.07483
1.0033
0.98936
0.911034
1.00345
1.08
1.07728
0.992283
1.09936
1.16774
1.10849
1.22133
1.16305
1.20142
1.26334
1.29811
1.27339
1.30786
1.30944
1.32059
1.31363
1.34727
1.35388
1.35274
1.36956
1.37282
1.37193
1.40664
1.41472
1.40645
1.40234
1.40475
1.39924
1.4174
1.43021
1.47883
1.47134
1.43818
1.47329
1.4679
1.49936
1.53301
1.5971
1.62739
1.62677
1.63904
1.7077
1.791
1.86362
1.87859
2.00409
1.87824
1.92917
2.07759
2.10152
2.10024
2.13749
2.18543
2.23507
2.24591
2.24935
2.27857
2.30696
2.33389
2.33377
2.33414
2.3343
2.33455
2.3163
2.25261
2.31659
2.28418
2.23738
2.23832
2.26941
2.30245
2.31211
2.23785
2.29898
2.25898
1.08079
1.07628
1.14763
1.22399
1.11275
1.17536
1.31001
1.24432
1.27131
1.11349
1.01625
0.980572
0.985729
1.08479
1.07271
0.738072
0.852764
1.03708
0.923526
1.03223
1.03578
1.0433
1.03086
1.04643
1.0658
0.258351
0.41862
0.50873
0.69195
0.712593
0.709093
0.001
0.001
0.001
0.00101
0.00126679
0.001
0.063106
0.001
0.170358
0.001
0.001
0.00136446
0.001
0.00101
0.001
0.001
0.001
0.001
0.001
0.001
0.00105174
0.001
0.001
0.001
0.001
0.001
0.001
0.001
0.001
0.001
0.001
0.001
0.001
0.001
0.001
0.001
0.001
0.001
0.001
0.001
0.001
0.001
0.001
0.00101
0.001
0.00100962
0.001
0.001
0.001
0.001
0.001
0.001
0.001
0.001
1.83378
1.84174
1.82301
1.82312
1.72686
1.81331
1.62257
1.67652
1.56673
1.57003
1.5172
1.50425
1.44895
1.44258
1.36216
1.25851
1.23563
1.40233
1.44538
1.44873
1.43838
1.45083
0.00112851
0.001
0.00112851
0.001
0.001
0.001
0.001
0.001
0.00100548
0.001
0.001
0.001
0.001
0.001
0.001
0.00100999
0.001
0.001
0.001
0.132266
0.312707
0.451149
0.515736
0.474679
0.677031
0.858031
1.01078
1.04719
1.24437
1.07269
1.375
1.52602
1.48465
1.59787
1.7682
1.6687
1.73903
1.74227
1.74438
1.76941
1.8096
1.82348
1.81668
1.78615
0.001
0.001
0.001
0.001
0.001
0.001
0.001
0.001
0.001
0.001
0.001
0.001
0.001
0.001
0.001
0.001
0.001
0.001
0.001
0.00100999
0.001
0.001
0.00207294
0.001
0.00101
0.001
0.001
0.001
0.001
0.001
0.001
1.17297
1.17319
1.13745
1.11467
1.07005
1.09475
1.06106
1.05691
1.2171
1.15822
1.13748
0.985009
0.999328
0.930138
0.928177
0.996716
0.996315
0.98814
1.02862
1.0878
1.04112
1.07706
1.06023
0.953976
0.934177
0.947026
0.969805
0.894019
0.896142
0.896717
0.905485
0.923123
0.911286
0.874792
0.884167
2.35711
2.36352
2.39417
2.37235
2.41557
2.4014
2.42729
2.41649
2.47095
2.45996
2.42594
2.47673
2.44251
2.49319
2.32599
2.27775
2.29825
2.34791
2.32885
2.29759
2.30197
2.3545
2.35952
2.33236
2.31413
2.36746
2.35065
2.36181
2.38568
2.23695
2.23802
2.23797
2.23582
2.25448
2.2766
1.82957
1.77343
1.66979
1.57476
1.48852
1.56341
1.76471
1.74646
1.98722
2.01123
1.89656
1.97887
2.0175
2.06531
2.11275
2.15387
2.15112
2.15308
2.14899
2.18051
2.19218
2.21989
2.20538
2.21006
2.21321
2.22455
2.19944
2.20114
1.39536
1.32536
1.26999
1.25908
1.31633
1.4876
1.46807
1.1962
1.25457
1.1269
1.05873
2.34374
2.36517
2.38057
2.38767
2.393
2.40445
2.40705
2.43519
2.41996
2.43731
2.43613
2.48503
2.50408
2.53001
2.5291
2.53351
2.54871
2.57137
1.03316
0.986265
0.979217
1.23838
1.12786
1.30797
1.20086
1.1217
1.0205
1.02228
1.02075
1.02621
0.877428
0.956211
0.80625
0.826163
0.907966
0.82355
1.09072
1.0204
0.916275
1.11435
1.11303
1.11688
1.17014
1.12173
1.25339
1.199
1.28664
1.2473
1.28656
1.31105
1.33635
1.35694
1.37861
1.38053
1.38616
1.38055
1.43643
1.42466
1.41925
1.41458
1.46786
1.44275
1.51369
1.47621
1.45708
1.4981
1.54392
1.53536
1.55833
1.5961
1.59535
1.54133
1.65004
1.67848
1.64928
1.63878
1.72196
1.80524
1.87841
1.94571
1.89301
1.90932
2.03698
2.09629
2.13746
2.11887
2.18279
2.21423
2.25522
2.27124
2.2662
2.28538
2.34352
2.32449
2.33589
2.34535
2.33635
2.33409
2.33426
2.33447
2.33417
2.33455
2.33449
1.06931
1.05628
1.08103
1.00417
1.02536
1.04522
0.980559
1.12776
1.02574
0.959405
0.982997
0.961471
0.855649
0.958608
0.984328
0.762288
0.75282
0.708535
0.821086
1.03607
0.925371
0.933453
0.928644
0.721912
0.605822
0.408224
0.425095
0.341324
0.169937
0.171123
0.708672
0.531571
0.692626
0.68978
0.001
0.001
0.001
0.001
0.001
0.001
0.00100984
0.001
0.150083
0.001
0.001
0.001
0.00101
0.001
0.001
0.001
0.001
0.00241337
0.001
0.001
0.001
0.001
0.001
0.001
0.00100993
0.001
0.001
0.001
0.001
0.001
0.00101175
0.001
0.001
0.001
0.001
0.00101206
0.001
0.001
0.001
0.001
0.001
0.001
0.001
0.001
0.00101
0.001
0.001
0.001
0.001
0.001
0.001
0.001
0.001
0.001
0.001
0.00218478
0.001
0.001
0.001
0.001
0.00218475
2.5312
2.49003
2.45767
2.56853
2.59681
2.59173
1.80129
1.79678
1.78086
1.77827
1.72619
1.77818
1.60932
1.52917
1.46235
1.48086
1.44645
1.43643
1.45091
1.44352
1.32331
1.24273
1.33138
1.40935
1.40788
0.001
0.001
0.001
0.001
0.001
0.001
0.001
0.001
0.001
0.001
0.00100943
0.001
0.001
1.00885
1.04404
1.07236
0.001
0.001
0.00896383
0.0163289
0.299347
0.184933
0.481025
0.503514
0.665553
0.53355
0.84386
1.21613
1.34838
1.45787
1.47321
1.80457
1.70387
1.72671
1.50894
1.59183
1.68568
1.72547
1.72788
1.73263
1.75768
1.77303
1.78093
0.001
0.0011793
0.001
0.001
0.001
0.001
0.00100904
0.001
0.001
0.001
0.001
0.001
0.001
0.001
0.001
0.001
0.001
0.00100504
0.001
0.001
0.001
0.001
0.001
0.001
0.001
0.001
0.001
0.001
0.001
0.001
0.00101
0.00100979
0.001
0.001
0.001
0.001
0.001
1.17272
1.20714
1.19543
1.13683
1.13703
1.10721
1.12996
0.995529
1.02617
0.937387
0.934385
1.14231
1.13117
0.888569
0.889271
0.890655
0.892189
0.948193
0.927203
0.966061
0.912598
1.0345
0.987685
1.03514
1.04475
0.877462
0.83118
0.854251
0.887641
0.860675
0.861651
0.803503
0.841014
0.824812
0.802554
0.783392
0.781145
2.35814
2.3726
2.39543
2.41526
2.41547
2.42232
2.46408
2.44449
2.29002
2.28819
2.27213
2.29421
2.32551
2.28727
2.32855
2.3083
2.22472
2.21121
2.21008
2.24239
2.27085
2.24394
1.83486
1.75677
1.65106
1.74054
1.58867
1.50034
1.75322
1.75458
1.99424
1.99681
2.01186
1.90883
1.9858
2.09834
2.04476
1.98848
2.03008
2.13037
2.14356
2.13361
2.14074
2.14727
2.17154
2.19844
2.18717
2.19865
2.1969
2.19943
2.19755
2.19694
2.19895
1.24116
1.24697
1.38508
1.46424
1.24536
1.3257
1.4813
1.49619
1.23459
1.17617
1.08735
1.15351
2.37541
2.33437
2.35389
2.39944
2.3978
2.39965
2.40933
2.43184
2.4536
2.46226
2.4644
2.46807
2.49268
2.53206
2.51301
2.52905
2.54743
2.59799
2.57075
2.40631
2.41698
2.43254
2.60159
2.60092
2.59712
0.980934
0.983611
0.982182
0.95588
1.04895
1.06411
0.865986
0.906661
0.940736
0.827725
0.872412
0.869712
0.807687
0.802909
0.804609
0.803891
0.832094
0.86487
0.969326
0.896991
0.895485
1.04347
1.11943
1.03231
1.18826
1.21772
1.14652
1.19007
1.25183
1.216
1.34176
1.28289
1.35664
1.36828
1.37664
1.36686
1.41423
1.45575
1.49052
1.49215
1.49749
1.4857
1.51086
1.49303
1.54505
1.5462
1.56841
1.57005
1.54815
1.5485
1.67036
1.71534
1.6149
1.67623
1.72616
1.68743
1.78937
1.83316
1.93226
1.97133
1.94822
2.03867
2.09383
2.1912
2.17769
2.23624
2.20874
2.30373
2.31089
2.30423
2.33293
2.36188
2.36106
2.41667
2.38142
2.40877
2.3717
2.3709
2.40703
2.33818
2.37507
2.33851
0.43882
0.751346
0.446114
0.720135
0.997237
0.980097
0.980399
0.962615
0.980199
0.831897
0.736854
0.732528
0.619672
0.83113
0.699337
0.726383
0.854464
0.113163
0.114187
0.489543
0.613944
0.612228
0.404389
0.285067
0.289865
0.0737362
0.0869058
0.0999704
0.17454
0.171029
0.0766656
0.251682
0.155556
0.41324
0.203246
0.130165
0.0010004
0.001
0.001
0.001
0.001
0.001
0.00224985
0.001
0.001
0.0542391
0.001
0.001
0.00101
0.001
0.001
0.00219974
0.001
0.001
0.001
0.00100982
0.00137609
0.001
0.00100983
0.001
0.001
0.001
0.00101
0.001
0.00101159
0.0010117
0.001
0.001
0.00101177
0.00101175
0.001
0.001
0.001
0.001
0.00169763
0.001
0.00169754
0.001
0.001
0.001
0.001
0.00100984
0.00101
0.00100994
0.001
0.001
0.001
0.001
0.001
0.001
0.001
0.001
0.001
0.001
0.00137605
0.001
0.00100958
0.00100997
0.001
0.001
0.001
0.001
0.00101
2.50245
2.48687
2.49301
2.5015
2.53392
2.64559
2.62592
2.61383
2.6507
2.57343
1.72123
1.71039
1.6544
1.65367
1.59912
1.62859
1.53518
1.49892
1.48009
1.44154
1.42195
1.42099
1.32946
1.34104
1.21061
1.25087
1.25336
0.001
0.001
0.001
0.00101
0.001
0.001
0.001
1.0416
1.18421
1.0436
0.001
0.001
0.001
0.001
0.911616
0.743052
0.0809462
0.0222729
0.109331
0.213989
0.509837
0.36251
0.546405
0.544359
0.582544
1.57776
1.56866
1.62012
1.32485
1.47322
1.46296
1.50266
1.63281
1.69876
1.65818
1.56589
1.65369
1.68681
1.69086
1.59725
1.61993
0.001
0.001
0.00117933
0.00101
0.001
0.001
0.00101
0.00116321
0.001
0.001
0.001
0.001
0.001
0.001
0.001
0.001
0.001
0.001
0.001
0.00101
0.001
0.001
0.001
0.001
0.001
0.00100577
0.001
0.001
0.001
0.001
0.001
0.00101
0.00100563
0.001
0.001
0.001
0.001
0.001
0.001
0.001
0.001
0.001
0.001
0.001
0.001
1.18982
1.2001
1.20907
1.07829
1.09756
1.0581
1.05649
0.984198
0.974873
0.888678
0.898881
0.887131
0.888028
0.988669
0.987921
0.834262
0.833487
0.798504
0.776047
0.878663
0.87096
0.895745
0.949828
1.03034
0.99585
1.06085
1.01514
0.818802
0.786625
0.846758
0.871543
0.744243
0.742655
0.717327
0.740059
0.783636
0.760485
0.781322
0.788623
2.36714
2.31377
2.40384
2.35904
2.36791
2.4272
2.38633
2.45557
2.40561
2.48365
2.42055
2.41233
2.49225
2.44459
2.25459
2.255
2.24478
2.25895
2.27161
2.28481
2.28244
2.2975
2.19955
2.19747
2.22202
2.20542
2.2356
2.24473
1.83757
1.75995
1.67752
1.75473
1.54901
1.64267
1.75513
1.7619
1.98648
1.98606
1.98821
1.91657
2.07542
2.12211
2.0329
1.98669
2.12761
2.12787
2.14109
2.12704
2.16322
2.18709
2.19379
2.19638
2.19682
2.19182
2.19703
2.1991
2.19681
2.19211
1.23938
1.23357
1.40309
1.47785
1.38049
1.30059
1.53392
1.47798
1.20916
1.23343
1.20422
1.12248
2.37493
2.41151
2.39453
2.4203
2.43861
2.42803
2.46323
2.47395
2.45233
2.46392
2.45393
2.46355
2.4685
2.49041
2.51029
2.52912
2.52993
2.58321
2.55893
2.6101
2.61254
2.48729
2.50006
2.61617
2.62322
0.724661
0.88353
0.749167
0.854134
0.778528
0.751133
0.712369
0.676821
0.703773
0.737456
0.643564
0.683808
0.68933
0.5836
0.633872
0.782193
0.896624
0.809686
0.904548
0.905504
0.897178
0.968707
1.11577
1.01826
1.20755
1.2033
1.17244
1.11891
1.2402
1.28503
1.34116
1.3299
1.35122
1.34087
1.46165
1.40946
1.50876
1.50266
1.52682
1.53436
1.50498
1.56456
1.6096
1.58207
1.56561
1.59645
1.64381
1.63079
1.61274
1.65492
1.74062
1.73933
1.7345
1.75275
1.88294
1.79972
1.9704
1.99442
1.9949
2.06145
2.13695
2.21313
2.21992
2.23309
2.27781
2.32798
2.36235
2.36374
2.40189
2.37515
2.42771
2.44294
2.44302
2.44272
2.44326
2.44302
2.41146
2.4432
2.41187
0.0945864
0.0836599
0.108107
0.0723608
0.384697
0.693229
0.378684
0.851196
0.727671
0.732292
0.569436
0.602095
0.592934
0.595695
0.591271
0.59482
0.593871
0.591506
0.599248
0.105757
0.0957352
0.001
0.0357034
0.0774213
0.0290525
0.0737666
0.07338
0.0435415
0.0528937
0.001
0.001
0.001
0.001
0.001
0.001
0.00211907
0.001
0.001
0.00100986
0.001
0.001
0.00100016
0.00189674
0.001
0.001
0.001
0.001
0.001
0.001
0.001
0.001
0.001
0.00100941
0.001
0.001
0.001
0.00100992
0.001
0.001
0.001
0.00101
0.001
0.001
0.001
0.001
0.001
0.001
0.0010008
0.001
0.001
0.001
0.00100949
0.001
0.001
0.001
0.001
0.001
0.001
0.001
0.001
0.001
0.001
0.00101
0.001
0.001
0.001
0.001
0.001
0.001
0.001
0.001
0.001
0.001
0.001
0.001
0.001
0.001
0.001
0.001
0.001
0.001
0.001
0.001
0.001
0.001
0.001
0.001
0.001
0.001
0.001
0.001
0.001
0.00106277
0.001
0.001
0.001
0.001
2.66777
2.66153
2.67823
2.6477
2.6639
2.67111
2.52354
2.51473
2.58077
2.54681
2.65538
2.67297
2.65981
2.53937
2.4976
1.57859
1.57773
1.57404
1.57116
1.57304
1.51404
1.56422
1.33863
1.39395
1.26115
1.26578
1.21031
1.20839
1.20974
0.001
0.001
0.001
0.001
1.01428
1.2053
1.04308
0.001
0.001
0.996378
0.887158
0.001
0.0500038
0.001
0.001
0.583886
0.730595
0.116154
0.11744
0.259661
0.111108
0.547132
0.409839
0.558718
1.59846
1.58348
1.58383
1.58672
1.5847
1.29615
1.40376
1.35678
1.47121
1.53185
1.55287
1.48845
1.56136
1.52412
1.51363
1.51645
0.001
0.001
0.001
0.001
0.001
0.001
0.001
0.001
0.001
0.00372302
0.001
0.0272174
0.001
0.001
0.001
0.117656
0.11396
0.054965
0.001
0.001
0.0729174
0.001
0.001
0.001
0.001
0.00100955
0.001
0.001
0.001
0.001
0.001
0.001
0.001
0.001
0.001
0.001
0.00106307
0.001
0.00106307
0.001
0.001
0.001
0.001
0.00117442
0.001
0.001
0.001
0.00100038
0.014046
0.0125485
0.102658
0.001
0.001
0.001
0.001
0.001
0.001
1.18547
1.11669
1.10289
1.0331
1.02769
0.942726
0.932966
0.922445
0.91844
0.911679
0.918375
0.850079
0.859821
0.782347
0.768873
0.924069
0.923931
0.710189
0.702807
0.707743
0.716281
0.991421
1.05661
0.976499
0.868643
0.85177
0.928039
0.860313
0.944314
0.782954
0.754022
0.809596
0.768493
0.717976
0.71771
0.711464
0.734436
0.733298
0.704813
0.695295
0.679449
2.30494
2.31729
2.32263
2.31774
2.34447
2.30852
2.40926
2.44281
2.3953
2.38427
2.48096
2.42603
2.4094
2.24567
2.24379
2.27216
2.25887
2.28155
2.28418
2.31102
2.29282
2.19696
2.20576
2.2287
2.21114
2.22636
2.23559
1.8761
1.7989
1.71974
1.7568
1.70306
1.60942
1.79302
1.758
1.99174
1.9898
1.95219
1.99417
2.08222
2.12942
1.99351
2.03834
2.13138
2.12922
2.15224
2.1317
2.17246
2.19255
2.19026
2.19202
2.19021
2.19192
2.19527
2.19221
2.19034
2.19149
1.23212
1.29311
1.47752
1.45703
1.37958
1.4611
1.47936
1.55356
1.2265
1.22233
1.21682
1.13596
0.970394
1.01613
1.09701
2.44345
2.44793
2.47588
2.4667
2.49153
2.50367
2.50338
2.50226
2.53896
2.51872
2.53033
2.49529
2.52642
2.53651
2.56109
2.58057
2.59301
2.58859
2.64217
2.64253
2.66835
2.64838
2.5573
2.56343
2.67984
2.67463
0.502237
0.571556
0.448406
0.679861
0.598636
0.67839
0.676139
0.667002
0.599307
0.52221
0.463792
0.470413
0.492075
0.553627
0.716838
0.620984
0.596864
0.800776
0.953934
0.915998
0.768842
1.00845
1.05134
1.06893
1.04813
1.15556
1.22308
1.10261
1.32536
1.26289
1.33475
1.33545
1.42634
1.36692
1.48808
1.52147
1.51915
1.52058
1.65005
1.60946
1.57862
1.63469
1.66104
1.65467
1.64711
1.63971
1.65352
1.65367
1.73618
1.7764
1.81564
1.77153
1.81459
1.84261
1.9816
1.91484
2.00783
1.99434
2.07468
2.15028
2.23672
2.23225
2.26736
2.30529
2.38136
2.36884
2.39315
2.39713
2.42523
2.43571
2.45344
2.4462
2.45778
2.45296
2.4437
2.45614
2.44344
2.44451
0.0332533
0.0109309
0.0654143
0.0419899
0.0427029
0.0652138
0.0414225
0.229417
0.0365066
0.594773
0.60201
0.119765
0.331892
0.598572
0.594314
0.591251
0.5918
0.588524
0.594809
0.531528
0.428342
0.001
0.001
0.001
0.001
0.001
0.034989
0.001
0.001
0.001
0.001
0.00101
0.001
0.001
0.00100863
0.00189164
0.001
0.001
0.001
0.00367022
0.001
0.001
0.001
0.00100974
0.001
0.001
0.001
0.00100983
0.001
0.001
0.00100647
0.001
0.00100976
0.001
0.001
0.001
0.001
0.001
0.00361557
0.001
0.001
0.001
0.001
0.001
0.0013202
0.00132013
0.00132015
0.001
0.001
0.001
0.001
0.001
0.001
0.001
0.001
0.001
0.001
0.001
0.001
0.001
0.001
0.001
0.001
0.001
0.001
0.001
0.001
0.001
0.001
0.001
0.001
0.001
0.001
0.001
0.001
0.001
0.001
0.001
0.001
0.001
0.001
0.001
0.001
0.001
0.001
0.001
0.00101
0.001
0.00165251
0.001
0.00105079
0.001
0.00103053
0.001
0.001
0.001
2.68669
2.71205
2.72021
2.68404
2.68049
2.65912
2.67952
2.54505
2.56862
2.59679
2.61162
2.62054
2.66768
2.69028
2.52162
2.54271
2.47113
2.51869
2.50868
1.58605
1.57766
1.47561
1.43676
1.53379
1.46303
1.47265
1.34853
1.37754
1.23975
1.20758
1.20802
1.21064
1.18668
0.001
0.001
1.12809
1.23793
1.01296
0.001
0.001
0.967752
0.966713
0.00829399
0.001
0.704966
0.839945
0.080912
0.149103
0.086703
0.0448459
0.565434
0.57062
0.158312
0.196116
0.24328
0.341266
0.494624
1.5383
1.57361
1.55379
1.54186
1.29914
1.29844
1.32175
1.39439
1.5108
1.5082
1.46454
1.51839
1.50633
0.0353771
0.0298309
0.0340003
0.0475344
0.0686467
0.0905206
0.0950654
0.0987674
0.097329
0.126099
0.134801
0.168849
0.171673
0.180435
0.220286
0.255164
0.212977
0.303124
0.260455
0.207697
0.248909
0.258424
0.256645
0.001
0.001
0.00106308
0.001
0.001
0.00101
0.001
0.001
0.001
0.001
0.001
0.001
0.001
0.001
0.001
0.001
0.001
0.001
0.0787468
0.124228
0.181609
0.224561
0.274709
0.164385
0.00392293
0.001
0.373126
0.261831
0.29108
0.335259
0.001
0.001
0.001
0.001
0.001
0.001
0.001
0.001
0.001
0.001
1.10346
1.01952
1.02087
0.961688
0.95905
0.934734
0.953783
0.924378
0.959462
0.887639
0.892178
0.799598
0.815375
0.721395
0.723115
0.693758
0.69284
0.844027
0.818797
0.701953
0.691049
0.694821
0.686805
0.913587
0.960288
0.79773
0.771361
0.84156
0.957688
1.01882
0.975595
0.701037
0.663157
0.7267
0.749492
0.648719
0.633431
0.628742
0.595221
0.629264
0.604872
0.626766
0.641321
2.38214
2.30844
2.41481
2.33891
2.30096
2.36212
2.36951
2.37729
2.39231
2.4389
2.38193
2.46374
2.43926
2.50073
2.22559
2.24829
2.24439
2.26688
2.24752
2.27666
2.28826
2.2674
2.19194
2.20227
2.20813
2.21802
2.21613
2.21786
1.92926
1.85196
1.73917
1.75694
1.65932
1.74943
1.76468
1.8197
1.99584
1.99822
1.99588
1.97594
2.08786
2.13357
2.05313
2.00875
2.13416
2.13494
2.14116
2.16095
2.19196
2.17977
2.19207
2.19186
2.19111
2.19196
2.19134
2.19057
2.19195
2.19104
1.31356
1.22189
1.48449
1.48898
1.40263
1.49353
1.49118
1.58866
1.21734
1.2158
1.19486
1.17993
1.12078
1.21512
2.45798
2.47695
2.49712
2.53207
2.52661
2.5469
2.56013
2.56804
2.57529
2.56206
2.5702
2.59113
2.61055
2.62486
2.62242
2.63346
2.65724
2.67489
2.68576
2.68739
2.69899
2.57338
2.56337
2.72092
2.74047
0.315589
0.360711
0.336151
0.424503
0.546153
0.626884
0.523604
0.540606
0.456257
0.464769
0.462992
0.497496
0.589402
0.535857
0.613779
0.615573
0.613418
0.677221
0.744381
0.918966
0.845744
1.00288
1.09048
1.07986
0.993889
1.15074
1.1529
1.24052
1.30219
1.27805
1.34915
1.29414
1.48585
1.41284
1.52159
1.52089
1.53614
1.59941
1.72456
1.73419
1.67194
1.70149
1.73401
1.67925
1.78682
1.71542
1.69263
1.72848
1.86224
1.87052
1.93521
1.9889
1.87304
1.96214
2.10736
2.05673
2.12629
2.09479
2.28962
2.25348
2.32149
2.33598
2.40703
2.41953
2.47872
2.44738
2.49246
2.47689
2.49519
2.52829
2.49964
2.53157
2.54013
2.49681
2.48654
2.53069
2.52899
2.49945
0.001
0.001
0.001
0.001
0.001
0.001
0.001
0.001
0.001
0.001
0.001
0.0671951
0.319654
0.001
0.001
0.425697
0.151466
0.592762
0.414561
0.517181
0.595401
0.436088
0.340476
0.001
0.001
0.001
0.001
0.001
0.001
0.001
0.00141232
0.00100995
0.001
0.001
0.001
0.001
0.001
0.00100156
0.001
0.001
0.001
0.001
0.001
0.001
0.001
0.001
0.0010095
0.00101
0.00100891
0.001
0.001
0.001
0.001
0.00128118
0.001
0.001
0.00128112
0.001
0.001
0.001
0.00100996
0.00165246
0.001
0.00124218
0.001
0.001
0.001
0.001
0.00101
0.001
0.001
0.001
0.001
0.001
0.001
0.001
0.001
0.001
0.001
0.001
0.001
0.001
0.001
0.001
0.001
0.001
0.001
0.001
0.001
0.001
0.001
0.001
0.001
0.001
0.001
0.001
0.001
0.001
0.001
0.001
0.001
0.001
0.001
0.001
0.001
0.001
0.001
0.001
0.001
0.001
0.001
0.001
0.001
0.001
0.001
0.001
0.001
0.00105079
0.001
0.001
0.001
0.00124219
0.001
0.001
2.74294
2.73115
2.74282
2.69891
2.70973
2.72297
2.71796
2.6894
2.71677
2.59199
2.63314
2.58915
2.5745
2.65636
2.75257
2.73442
2.58521
2.49347
2.53198
2.51749
2.51552
2.50619
2.54701
2.43522
1.33297
1.44331
1.34125
1.37494
1.3857
1.28857
1.29952
1.29936
1.28896
1.29001
1.26271
1.18763
1.15727
1.07498
1.07502
1.19031
1.29874
0.0400331
0.0521245
0.963572
0.968658
0.0746081
0.0845903
0.901807
0.768548
0.0877727
0.106229
0.64028
0.574497
0.240955
0.214356
0.162306
0.577479
0.501847
0.26168
0.288379
0.396818
1.44804
1.36909
1.34658
1.4314
1.29986
1.3237
1.45627
1.38814
1.43388
1.51104
1.50624
0.0373224
0.032822
0.0484559
0.0373121
0.0851401
0.0644154
0.101591
0.0994644
0.0943876
0.127848
0.181036
0.157477
0.183999
0.182732
0.242204
0.204425
0.305126
0.299402
0.307543
0.28377
0.302778
0.305131
0.306061
0.29422
0.001
0.001
0.001
0.00363015
0.001
0.00100998
0.00362664
0.001
0.001
0.001
0.001
0.001
0.001
0.001
0.001
0.001
0.001
0.001
0.001
0.00101
0.001
0.40595
0.441848
0.378508
0.448871
0.45433
0.521934
0.420033
0.124034
0.576316
0.601202
0.357824
0.294468
0.001
0.001
0.001
0.001
0.001
0.001
0.001
0.001
0.001
0.001
0.001
0.001
0.001
0.001
0.001
0.001
0.962351
0.963141
0.993222
0.962437
0.961232
0.9575
0.958522
0.777816
0.78187
0.862526
0.876218
0.744808
0.74284
0.701572
0.70028
0.698703
0.695297
0.667138
0.667782
0.70702
0.701087
0.609555
0.598276
0.556695
0.568157
0.885757
0.810123
0.74946
0.965149
0.86744
0.996691
1.09691
1.02204
0.703013
0.663563
0.765353
0.740416
0.531894
0.535172
0.545437
0.575713
0.601094
0.626209
0.659766
0.641908
2.29473
2.27014
2.29509
2.33866
2.30947
2.33781
2.31085
2.34264
2.36904
2.40223
2.39853
2.40052
2.43634
2.40627
2.50529
2.21726
2.22106
2.22659
2.23069
2.23007
2.23053
2.24043
2.2648
2.24675
2.19588
2.20455
2.21253
2.21741
2.21807
1.90016
1.97131
1.78134
1.77347
1.69436
1.79073
1.85133
1.78829
2.01024
2.01893
2.02327
2.01163
2.13462
2.09969
2.06864
2.10108
2.14808
2.14014