/*--------------------------------*- C++ -*----------------------------------*\
  =========                 |
  \\      /  F ield         | OpenFOAM: The Open Source CFD Toolbox
   \\    /   O peration     | Website:  https://openfoam.org
    \\  /    A nd           | Version:  8
     \\/     M anipulation  |
\*---------------------------------------------------------------------------*/
FoamFile
{
    version     2.0;
    format      ascii;
    class       surfaceScalarField;
    location    "20700";
    object      phi;
}
// * * * * * * * * * * * * * * * * * * * * * * * * * * * * * * * * * * * * * //

dimensions      [0 3 -1 0 0 0 0];

internalField   nonuniform List<scalar> 
788991
(
-0.0616626
-0.0264354
-0.0316461
-0.0017779
-0.0183785
-0.0714225
0.014922
0.000775093
-0.0474763
0.0368472
-0.0508163
0.0418658
-0.000488484
-0.0751966
-0.0599076
-0.0194419
0.0531709
-0.0124771
-0.053978
0.0417421
0.0210571
0.0530852
-0.0209487
0.033863
-0.0937737
0.00527062
0.00137647
0.0298576
0.0112445
0.0314679
-0.0130342
0.0580831
0.0528224
-0.00890324
0.0358475
-0.000873137
-0.00330709
-0.0429023
-0.0334937
0.0514033
-0.0209273
0.0154541
-0.00245517
-0.0540346
0.0258823
0.00229114
-0.050674
-0.0283199
-0.0137237
-0.106227
-0.0503304
0.10211
-0.060012
0.0735212
0.0486184
0.00275137
0.0519539
-0.006411
0.0397892
0.0383632
0.0062843
-0.050273
-0.0683044
-0.0149238
-0.048077
0.0632536
0.00325773
-0.00726437
0.0506336
-0.0348117
-0.0610709
0.0615411
-0.000507985
0.0384196
0.00342958
-0.0221797
0.0255836
0.045966
0.0361548
0.0329679
0.0326517
-0.0732441
-0.00752626
-0.00371459
-0.00500979
-0.0424425
0.0514439
-0.0304745
-0.00766562
-0.0316191
0.0377842
0.015874
-0.0248982
-0.0188612
-0.0152402
0.0229285
-0.00252799
0.0413153
-0.0211428
-0.00319822
0.0995413
0.0208722
-0.0539607
-0.0450758
0.0112533
0.0277549
0.00644633
0.0358394
-0.0327543
-0.0247054
0.0410608
-0.0058887
-0.048076
-0.0464232
-0.0282628
0.0414098
0.00656158
-0.0549177
-0.0435017
0.00736033
-0.00326918
-0.0239391
0.0502218
0.0460814
-0.0476145
-0.0437814
-0.0211863
-0.045304
-0.0466922
0.0141377
0.0330167
0.00149809
-0.0530954
-0.0260296
0.0246967
-0.0129308
0.0438058
0.0131282
0.00646412
0.0229127
0.0549908
0.021661
0.0151704
0.0718175
0.0113513
-0.0295994
0.0266585
0.0150248
0.0501764
0.0381662
0.0329495
-0.0374677
-0.0129538
0.00235511
-0.00313242
-0.0098965
0.0348219
0.0166496
-0.0339763
0.0219118
-0.0437542
0.00672103
0.00370046
-0.0160399
0.0238065
-0.0127716
0.0160887
0.00679384
-0.00318184
-0.00261414
-0.0164909
-0.00534265
0.00638039
-0.00402156
-0.000187162
-0.00558475
0.00482718
0.00547816
0.0106033
0.00824881
0.00319051
-0.0150635
0.00279853
0.0141985
-0.0135075
0.0118219
-0.0184826
0.00377215
0.0162035
0.0169813
0.0159628
0.0201215
0.00846938
0.0172187
-0.0127853
0.00720239
-0.0204178
-0.0042766
0.0184614
0.00926395
0.0247159
0.00484484
0.0435559
0.0297578
0.0482752
-0.0261375
-0.0497242
0.0253881
-0.0204622
-0.00550941
0.0322841
0.014292
0.000160273
-0.0362236
0.0232042
-0.0133911
0.00324011
-0.0295409
0.0616479
-0.0126249
0.0385501
0.0427286
0.00140481
-0.0342842
0.0256062
-0.0134591
-0.0388773
0.0625961
0.0129611
0.0552299
0.0281584
-2.71896e-05
-0.0541341
0.0386966
-0.0216689
0.0488595
0.00514141
-0.00548794
-0.0375901
-0.0413379
0.0128055
-0.0343276
-0.00460252
-0.0143208
0.0167268
0.000507888
-0.018058
-0.00197418
-0.00256674
-0.015581
0.00619983
0.00548918
-0.000812235
-0.00663738
0.00353169
0.00453049
-0.00943742
0.00247623
0.0093211
0.0129447
0.00403105
0.015732
-0.0121987
0.00976655
0.0241324
0.0146912
0.0124673
0.0110845
-0.0123967
-0.0130892
0.0165664
0.0460331
0.0445471
0.0294532
0.0124408
-0.00217267
0.0314168
0.0261373
0.0443227
0.0186651
0.00468733
-0.0447956
0.018971
0.0764954
-0.0117965
-0.0684487
-0.0374889
0.00943908
0.0442132
-0.0631368
-0.0168793
-0.106395
-0.0367269
-0.021066
0.00619721
-0.0190619
0.0410417
0.0226748
-0.0246138
-0.0308477
-0.00873903
-0.0195275
0.0275109
-0.0261655
-0.0808255
-0.0285947
0.0261178
-0.0374908
0.045491
0.0162802
-0.0389025
0.0217119
0.0256996
-0.00894248
-0.0177143
-0.0266409
0.0952141
0.0194995
0.0752692
-0.01598
0.00863423
-0.0498893
0.0250694
-0.0287221
-0.00737455
0.0377587
0.00640481
0.00291674
-0.0387001
-0.0349643
-0.0368334
-0.0142424
-0.038329
0.0174134
-0.0117387
-0.0299722
-0.0287189
0.0159676
-0.0440631
-0.00413149
-0.000476278
-0.0545725
-0.0619156
0.00785054
-0.0243953
-0.0325441
0.0148867
-0.0228302
-0.0670991
0.0210934
-0.0229676
-0.0301138
0.00757318
-0.0241185
-0.0374123
0.0189942
0.0719842
-0.0254301
-0.00398072
0.0423287
0.00730985
0.0468946
0.0663208
0.011562
0.0434031
0.0309194
-0.0111317
0.0435279
0.0270702
0.0248329
0.00937798
0.0200293
0.0263203
0.0924963
0.0275717
-0.029427
0.0529351
0.0315409
-0.0350175
0.0239037
0.0167114
-0.00297311
0.0281312
-0.00251534
-0.0141546
-0.0196603
-0.0265439
-0.0135421
-0.0110735
-0.0211381
-0.00218477
-0.0110407
-0.00840514
-0.00898248
-0.00748952
-0.00490165
-0.0124852
-0.00648874
0.00575096
0.0168074
-0.00677909
0.0111263
-0.021644
-0.017638
0.00499896
0.0240105
0.0215108
-0.0296103
0.0292614
-0.0301074
0.00637645
0.00768289
0.0146537
0.0237232
0.00259746
-0.0353719
0.0332079
-0.0113024
-0.0327185
0.0109818
-0.00321178
0.0134718
0.0188122
-0.0267299
-0.00292936
-0.0308853
0.0114856
0.0182335
-0.00798733
-0.0250357
-0.00340585
-0.0366132
-0.00978219
-0.0187006
0.00706514
0.00621758
-0.0276513
0.00578354
0.0319594
-0.0300298
-0.0180046
-0.0422245
-0.0450454
0.0457852
0.054342
-0.0484366
0.00775689
-0.0101943
-0.0429401
0.032278
0.00159808
0.0406899
0.0560964
0.0104011
0.0407452
0.0478578
0.0018334
-0.0559898
0.0308028
0.00179667
0.0502001
0.0315558
-0.0112026
0.0386876
-0.00282759
-0.00290361
0.0294731
-0.0253088
0.006644
-0.0148617
-0.0102192
-0.0183754
-0.00808433
-0.0138583
-0.0270362
0.00157087
-0.00402509
-0.0151576
-0.000265825
-0.00100085
-0.0150793
0.00378773
0.00242677
0.00270843
-0.0092541
0.00311756
0.00800851
-0.0109033
0.00604567
0.0129397
-0.0126357
0.0116334
0.0191558
0.00744403
-0.0103357
0.0221953
0.0186912
0.0287128
0.0101284
0.0223687
0.00132546
0.00618008
-0.0224436
0.0371728
0.0123197
-0.0168462
0.0246082
0.0154292
0.0257282
0.0183102
0.0308819
0.0123926
0.0349194
-0.0410451
0.034507
-0.0060304
0.0346356
0.0331732
0.00779549
0.0492147
0.00381655
0.038105
0.0459043
-0.000749553
-0.0868019
-0.0386287
-0.031867
0.0158873
-0.0626499
0.00309697
-0.0928604
-0.0594989
-0.0226196
0.0166971
0.0756997
0.0116329
-0.0768903
-0.0339717
-0.00803751
-0.0543673
0.0103204
0.00667268
0.02602
0.0340376
-0.00267811
-0.0261527
-0.0394089
0.000642765
-0.023663
0.0424729
-0.0109366
-0.0344341
0.0406071
-0.0419775
-0.0652188
0.0211089
0.0204887
-0.0358212
-0.0480447
0.0362177
-0.0263419
0.0571042
0.00900874
-0.0137095
0.0330425
-0.0042689
0.0146349
-0.0100755
0.0177544
-0.0139176
-0.146743
-0.0244821
0.0787453
-0.0208275
-0.056973
0.0204592
0.0254343
-0.0204642
0.0412398
0.0026286
-0.0198526
0.0299027
0.000974556
0.0174829
-0.0237353
0.0368945
-0.0223949
0.00592663
-0.0584253
-0.0222175
0.000634651
-0.0204351
-0.0152752
-0.041552
-0.0430263
-0.0488807
-0.0143167
-0.0449706
-0.0163757
-0.0106139
-0.0301421
-0.055582
-0.0154954
-0.0350797
-0.0311273
0.00658856
-0.0282138
-0.0378741
0.0114921
-0.0256059
-0.0373986
-0.00936009
-2.55206e-06
0
2.20491e-05
0
0
2.09209e-06
7.99147e-06
-2.14706e-05
1.46896e-05
-2.21072e-06
4.24947e-06
-0.0124752
-0.122433
0
0
0
0.0503371
-0.000912125
-0.0917525
-0.00994282
-0.0320679
0.0256729
0.000676791
0.00860997
0.0585561
0.0350759
0.00358792
0.0533422
0.0497418
-0.00554643
0.0487028
0.0422607
0.0183201
0.0659707
0.0338662
-0.0245742
0.044579
0.0351617
-0.0253248
0.00528033
0.0185906
0.00984197
0.0530672
0.0260955
-0.00230613
-0.011968
0.0095663
-0.00707377
-0.0363661
0.00250401
0.0212668
-0.0255759
-0.0207388
0.0126639
-0.0164691
-0.0145974
-0.0131355
-0.0110326
-0.00763175
0.0126778
-0.00701531
0.00035093
-0.0146967
-0.00851396
0.00511006
-0.0180073
-0.0151336
0.00434447
0.0221609
-0.00910213
0.00836311
0.0198958
-0.0239227
-0.0338255
-0.00983233
0.0125103
-0.033595
-0.0305987
-0.0220485
-0.00846196
0.0320286
-0.0120022
-0.0145792
-0.00245855
0.0185724
-0.0080445
0.00611635
0.0197201
-0.0224272
-0.00255093
0.0280383
-0.0207473
0.00453344
0.0310628
-0.0153028
0.00165854
-0.0206035
-0.0553587
-0.00219607
0.0505808
-0.000422897
0.045807
0.0458955
0.00763261
-0.0571753
-0.00774725
0.0485725
-0.041195
0.00164288
0.031113
-0.049046
-0.00590574
0.033746
0.00126249
-0.0349804
-0.031742
-0.0163024
-0.0405426
-0.0556989
0.0212759
-0.00996997
-0.04619
0.064582
0.050404
-0.0680422
0.0678598
0.00692405
-0.0370099
0.0372659
0.00287382
0.03895
0.040139
0.00336222
0.04541
0.0416345
0.0100411
-0.0413127
0.026038
0.00530964
-0.0347069
0.0268467
-0.00264347
0.0298087
-0.000549097
0.000448946
-0.0071439
0.0125763
-0.0057795
-0.00853188
-0.0170871
-0.0207081
0.00765842
-0.0222023
-0.0235443
0.00616716
-0.0139831
-0.0310582
-0.00427873
-0.000320868
-0.0115238
-0.0045844
0.00133207
-0.00859726
-0.00659512
0.00298514
0.00545341
-0.00654986
0.00316096
0.0114008
0.0089535
0.00737641
0.0133365
-0.0125568
0.000185441
0.0168312
-0.0105099
0.0174272
0.0132892
0.0160729
0.0186303
0.00121878
0.0204124
0.0332103
0.015904
0.0192714
0.03285
0.01186
-0.0202668
0.0251728
0.035598
-0.0157244
0.0444537
0.0463649
0.00899089
0.0420227
0.0343547
0.0128004
0.0544194
0.0482055
0.00469948
0.0549664
0.0492223
0.00385878
0.055741
0.0491795
0.0457293
0.00654981
-0.0291182
-0.0746425
0.0155237
-0.0186221
0.0885609
-0.024404
0.0293528
0.052684
-0.0653508
-0.0134915
0.0267989
-0.0510045
-0.0535339
-0.056614
-0.0131538
-0.0417645
0.0220632
-0.0264692
-0.0366233
0.00309285
-0.0219506
-0.0296323
-0.0134391
-0.0333425
-0.0220165
-0.0041804
-0.040101
0.0335592
-0.0243531
-0.0470463
0.023952
0.041344
-0.0328355
-0.0795612
0.0269267
-0.021096
0.0361332
0.0187762
-0.0100728
-0.0268774
-0.019677
0
-0.0418855
-0.0372668
0.0030333
0.0160424
-0.194392
-0.0206699
-0.0977103
0.0211218
-0.116705
0.067844
0.0519885
-0.0616719
0.074694
0
0
0
0
0
0
0
0
0
-1.7916e-05
0
-8.71926e-06
0
-7.3678e-06
-2.73441e-07
-8.00746e-06
1.1493e-05
1.1448e-06
-1.22341e-05
0
0
4.7229e-06
0
0
0
0
0
0
0
0
0
0
0
0
0
0
0
0
0
0.00832718
-0.0489414
-0.00261044
-0.0263899
-0.00844688
-0.00126673
0.00526005
-0.0358341
0.0167227
-0.0653187
-0.0285386
-0.00106235
-0.0639262
-0.0272536
-0.0257931
-0.0394157
-0.0246165
0.0106555
-0.0336911
-0.0346448
-0.011138
-0.0339631
-0.0260996
-0.00275827
-0.0411803
-0.0416287
0.00720004
-0.0340389
-0.0206335
-0.0137601
-0.0295608
-0.0129985
-0.0260758
0
1.18885e-05
0
0
0
0
0
0
0
-5.92205e-07
0
0
0
0
0
0
0
0
0
0
0
0
0
0
0
0
0
0
0
0
0
0
0
0
0
-0.00344741
0.0473577
0.0572677
0.0263104
-0.046448
0.00606865
0.0227159
0.00933277
0.00997905
0.0488363
0.0371089
0.00340664
0.0623758
0.0458825
-0.0179315
0.0531195
0.0433244
0.0230895
0.0562512
0.0338309
0.0135373
0.0548435
0.0283075
-0.0205233
0.020012
0.0412399
-0.0126533
0.00559042
0.0375822
-0.00431831
-0.0057947
0.0288378
-0.0154115
-0.047185
-0.00216487
-0.04885
1.99712e-05
0
0
-3.87291e-05
-2.00077e-06
0
0
2.35468e-05
0
0
0
0
0
0
0
0
0
0
0
0
0
0
-0.0248624
-0.0171817
0.0156698
-0.0168493
-0.00732341
0.0161233
-0.00957171
-0.00322623
-0.014938
-0.00938109
0.000740541
-0.0160306
-0.01258
-2.90164e-05
-0.0173602
-0.0197656
-0.00224287
0.0210728
-0.0249819
0.00169744
-0.0267963
-0.0334015
-0.000889142
0.0307143
-0.0344901
-0.00347189
0.0347696
-0.0425138
-0.00374074
-0.0372774
-0.016786
-0.00323188
-0.0202451
-0.0238521
0.00119951
0.0267605
-0.016993
-0.000837943
-0.0202996
-0.0230837
-0.000713397
0.0240789
-0.0183947
0.00268132
-0.0230366
-0.0242158
-0.00172207
0.0229125
-0.00660195
0.0554831
0.0487723
-0.00244683
0.0513759
-0.00828387
-0.0557964
-0.0495884
0.0533544
-0.000206106
0.0536879
-0.00419701
0.0546191
-0.0571245
-0.0100545
0.0453014
-0.0587169
-0.0118494
0.0506006
-0.0398834
-0.00585076
-0.0291586
-0.0534714
-0.0136896
-0.0330804
-0.00481044
-0.0394536
0.0378735
-0.0211762
-0.0142561
0.0321165
-0.0625697
-0.0235512
-0.0465175
-0.00647258
0.0278105
-0.0252725
0.034537
0.000636021
0.0404785
0.0567275
0.0177445
-0.0426486
0.0479128
0.0135796
-0.0375695
0.0352791
0.0138362
-0.0262174
0.022653
0.0174923
0.0165601
0.0101599
0.0181296
0.00538292
-0.0018606
0.00964192
0.00726342
0.000298294
-0.0141853
0.00760151
-0.0368256
-0.0185421
-0.00505676
-0.021072
-0.0338024
0.0171455
-0.0184638
-0.0171026
0.00345586
-0.00587866
-0.0277595
-0.000485103
0.00353734
-0.0077691
-0.00327539
0.000830328
-0.00375719
0.00470223
0.00130392
0.00440192
-0.0059929
-0.000626649
0.0148935
0.0112302
0.00398803
0.0156861
0.0219152
0.0171014
0.0132098
0.0238184
0.0247255
0.00344928
-0.0157212
0.0384054
0.0195124
0.0206558
0.0335148
0.0169671
0.0219617
0.0269449
0.0448424
0.0158353
0.0465284
0.0419043
0.00824821
0.0475822
0.0316708
0.0124741
0.0476131
0.0478185
0.00337912
0.0513537
0.0496168
-0.00366148
0.055685
0.0469214
-0.00197193
0.0510086
0.050484
-0.000135378
0.0489023
0.0532527
0.0516299
0.00436965
-0.00541433
0.00276498
0.0496897
-0.055465
0.0532742
0.0493704
0.0559009
0.0459932
0.0545539
0.0086938
0.0565158
0.00566582
-0.0609727
0.0586346
0.0115748
0.0621755
0.00647499
0.0704523
0.0674777
0.0126318
0.0630117
0.00638422
0.0745439
0.0721901
-0.0136674
-0.0676738
0.00879647
0.0827838
0.0723501
0.0155102
0.0727258
0.00957653
0.0872011
0.0783954
0.0152121
0.0724646
0.00816503
-0.0841789
0.0845074
0.0158588
0.0102188
0.0661817
-0.0790932
0.0858327
-0.0171138
-0.0319921
-0.061026
0.0310011
0.0293325
-0.0566114
-0.0304879
0.0238048
-0.0816913
-0.00889254
-0.0359774
-0.0245893
-0.00454708
0.0180064
0.0173697
-0.0317038
0.0367936
-0.0541362
-0.0287213
0.0213027
0.00683429
-0.0155686
-0.018367
-0.00658754
-0.00906121
-0.0141266
-0.0190513
-0.0213677
0.0135888
-0.0246843
-0.0384022
0.0138593
-0.0233719
-0.0395505
-0.0148254
0.0255825
-0.0141308
0.0292977
0.0302104
-0.00888589
0.0284374
0.00386113
0.00512205
0.0028224
-0.0637771
0
0.0131538
0
-0.00780186
0
-0.145686
0
-0.0284384
-0.000682906
0.13446
-0.0877604
0.00533355
-0.0531431
-0.00249199
0
0
0
0
0
0
0
6.22271e-05
-9.62464e-05
0
0
0
0
0
0
0
0
0
0
0
0
-4.53707e-05
0
0
0
0
0
2.46167e-07
1.63607e-06
0
-4.28992e-06
0
-3.8791e-06
0
0
0
-3.59162e-06
0
0
0
6.41311e-05
-2.69015e-06
-6.581e-05
-9.04822e-05
-0.000152415
-3.27503e-06
1.51438e-05
0
-0.000139046
2.8867e-05
0
-3.48587e-05
0
-0.000137785
0
0
0
0
0
0
0
0
0
0
0
0
0
0
0
0
0
0
0
0
0
0
0
0
-0.0201832
-0.0748107
-0.0152483
-0.0139554
-0.0149383
-0.0225547
-0.0364606
-0.000809254
-0.041537
-0.00965971
-0.0152895
-0.00307109
-0.0289895
-0.00718927
0.0163788
-0.045872
-0.0356908
0.00111822
-0.0447996
-0.017529
-0.032039
-0.0347375
-0.0269153
0.0157847
-0.0121943
-0.0394377
-0.0273429
-0.0117357
-0.0346758
-0.0223674
-0.0172978
-0.0142498
-0.029704
0
0
0
-2.65834e-05
2.51933e-05
5.3218e-05
0
0
0
0
0
0
3.93425e-05
0
-1.45248e-05
0
0
0
0
0
0
0
0
0
0
0
0
-0.0231037
0
0.0405853
-0.000974236
0.0641828
-0.00842424
0.0113074
0.017151
-0.000808172
0.0233836
0.0391231
-0.00178345
0.055126
0.0394066
-0.0161362
0.059527
0.0421534
0.0211716
0.043376
0.0381848
-0.0187813
0.0458486
0.0293281
-0.0141076
0.0857676
0.0566264
-0.00326406
0.0324948
0.0289716
0.0171835
0.0256498
0.0303394
-0.0258782
0.0333632
0.039631
0.00430171
-0.0203164
-0.0105597
0.0257095
0
0
0
0
0
0
0
-4.32801e-07
0
2.34278e-07
0
-3.57811e-07
-9.44015e-08
0
0
0
0
0
0
0
0
0
0
0
0
0
0
0
0
0
0
0
0
0
0
0.00492329
0.0326785
-0.00535002
-0.0234494
-0.0104046
-0.0205751
-0.0159571
-0.00542559
-0.0171805
-0.011671
-0.00122255
-0.0150941
-0.0138681
-0.00203024
0.0132709
-0.0168596
-0.00371206
-0.0102164
-0.0188528
-0.00208113
-0.0128859
-0.0303379
-0.00310235
-0.0249113
-0.0427978
-0.00489499
0.0353886
-0.0461317
-0.00442449
-0.0374732
-0.048612
-0.00859242
0.0437169
-0.0275623
-0.00865417
0.0269732
-0.0323247
-0.00485875
-0.0273362
-0.0196148
-0.000189603
-0.0186042
-0.0193884
0.00124364
-0.02032
-0.0256031
-0.00389603
0.0194292
-0.0374599
-0.011799
-0.0184445
-0.00199691
-0.055225
-0.054841
-0.00688675
-0.0563621
-0.0523509
-0.0110965
-0.0600545
-0.0505516
-0.0587939
-0.00619538
-0.0542611
0.00104371
-0.0550582
0.0570189
-0.0019827
-0.0569059
-0.0565763
-0.0644897
0.00153521
-0.0627006
-0.0705252
-0.000589319
0.0729669
-0.0771208
0.00122664
-0.0815998
-0.0811792
0.00308072
-0.0883244
-0.0778268
0.00340741
0.0840191
-0.0704036
0.00335996
0.0755316
0.012519
0.081428
-0.0201034
-0.0572094
0.072889
0.00544378
-0.0620935
-0.0709549
-0.0638544
-0.0179561
-0.0484614
-0.0634536
-0.0176153
0.0525403
-0.0447026
-0.0130907
-0.0323898
-0.06204
-0.0375033
-0.0190837
-0.00964479
-0.0488884
0.0401364
-0.00871739
-0.00228849
-0.0448821
0.0230148
0.00913643
-0.0390609
0.0702852
0.0474925
-0.0397211
0.0524222
0.0151041
0.0319957
0.0474557
0.0169087
-0.0341863
0.0425814
0.0165333
0.0234031
0.026383
0.0226886
-0.0105092
0.0179196
0.0287312
-0.000259833
0.00352244
0.0383674
0.0155361
0.000637362
0.017174
-0.0275459
-0.0192715
-0.0343161
0.0236522
-0.0352846
-0.0117452
-0.0314107
-0.0375074
-0.0142124
-0.00911866
-0.0156004
-0.0247777
0.00321329
-0.0127207
-0.0169415
0.00848327
-0.00470144
-0.0287842
-0.0047541
-0.00611694
-0.00756914
-0.00150893
-0.00313624
-0.00133502
0.0153857
0.00261562
0.011932
-0.0154963
0.00601846
0.0289128
0.0219521
0.0296159
0.0142558
0.0206091
0.0322316
0.00952514
-0.0223853
0.0443431
0.0236687
-0.0206859
0.0396869
0.0207126
0.024409
0.0280918
0.0466828
0.0186562
0.0461767
0.0417196
0.00678066
0.0450704
0.0319751
-0.0133014
0.0467775
0.0465402
0.00429237
0.0502216
0.045307
0.000528206
0.0494097
0.0503742
-0.000227547
0.0461659
0.0538137
0.00288269
-0.00673206
0.0508605
0.0455245
0.044417
0.0515851
-0.0100456
0.0486957
0.0571304
0.0134961
0.0542268
0.0619164
0.0171811
0.0555255
0.0708007
0.0183226
0.0535093
0.0705793
0.0188575
0.0578406
0.0689939
0.0198372
0.0651222
0.0754236
0.0211256
0.0666138
0.083913
-0.0223017
0.0621602
0.0876451
0.0244477
0.0536911
0.076595
0.0863277
0.0290536
0.0519577
0.0244869
0.0792244
0.0827637
-0.0343034
-0.0453062
0.0298679
0.079749
0.0383884
0.0857801
-0.065397
-0.0496866
-0.022937
0.0169678
-0.0192566
-0.0442252
-0.0137469
0.0393334
-0.0108362
0.0074699
0.0375923
-0.00670813
0.0199194
0.0333945
-0.0209996
-0.0305359
0.0623549
-0.0161559
-0.0414714
-0.0391887
-0.0292434
0.017719
-0.006255
0.00565586
0.000806576
-0.0140065
0.00243783
0.000987239
-0.0211765
-0.0157995
0.00198236
-0.0153196
-0.0183606
-0.00115515
-0.0172143
-0.0125855
-0.00639816
0.046463
-0.00437313
-0.00670848
0.00810288
0.0518077
0.0263385
-0.00605617
0.0410613
0.000102065
0
0
0
0
0
0
-0.0700939
0
-0.042508
-0.153431
-0.00350379
-0.0889766
0.0373931
-0.115669
-0.0956254
0
1.44353e-05
-6.78682e-05
0
0
0
0
-0.000212483
0
0
0
0
0
0
0
0
5.63258e-09
-4.94017e-07
0
0
0
0
0
0
0
0
0
0
-3.07921e-05
0
0
0
0
2.80693e-05
0
0
-0.000183967
0
0
0
0
0
0
0
0
0
0
0
0
0
0
0
0
0
0
0
0
0
0
0
0
4.9995e-07
0
0
0
0
-0.013771
-0.0292396
-0.00890074
0.00851693
0.0108848
-0.0568152
-0.0484362
-0.00776538
-0.0272815
-0.0512381
-0.0244152
-0.0326535
-0.0434561
-0.0103451
-0.0262992
-0.0341449
-0.0101317
0.0280852
-0.0415828
-0.0113243
0.0214219
-0.0282557
-0.0271803
0.0189071
-0.0111947
-0.026598
-0.0174007
0.0184189
-0.0489817
-0.0296556
-0.0336739
-0.0156596
-0.0030096
-3.23935e-05
0
-8.68201e-06
6.32661e-05
-1.21985e-05
-1.06369e-06
0
0
0
0
0
0
0
0
0
0
0
0
0
0
0
0
0
0
0
0
0
-0.0259429
0
0.0197424
0.0244868
-0.0434107
-0.0258761
0.0191168
0.0278378
0.0059206
0.0409942
0.0275145
-0.00810728
0.0602213
-0.0192263
0.0345414
0.0594271
0.0414217
0.0178749
0.0573144
0.0417718
-0.0108451
0.0391869
0.0241184
0.00252746
0.022023
0.0291738
-0.0202344
0.0445342
0.0448906
0.0196228
-0.00204006
0.0182142
0.0222538
0.00128221
-0.0364551
-0.00701294
-0.0174187
0.027073
-0.0284119
0
0
0
0
0
0
0
0
0
0
2.72279e-07
0
0
0
0
0
0
0
0
-0.00755183
0
0
0
0
0
0
0
0
0
0
0.0036562
0
0.00282417
0
0
0
0
0
0
0
0
0
0
-0.00658391
0
-0.0230507
-0.00691226
-0.0203483
-0.0189906
-0.00460487
0.0162785
-0.015718
-0.00186595
-0.0125288
-0.0157545
-0.00409579
0.00746234
-0.0270684
-0.0093277
-0.026138
0.01935
-0.0175663
-0.00435548
-0.00555888
-0.0199333
-0.00267138
0.0136942
-0.0381302
-0.00773727
-0.0286186
-0.0460599
-0.00719273
0.0346218
-0.050135
-0.0102745
-0.0388052
-0.0541794
-0.0083824
-0.045021
-0.0403937
-0.0100994
-0.0256194
-0.042799
-0.0083563
0.0335655
-0.0208818
-0.00119671
-0.0179628
-0.0260617
-0.00309294
0.0165612
-0.0335031
-0.0074838
-0.0124681
-0.0380167
-0.0159988
0.014519
0.00563313
0.00342698
0.0523709
-0.051122
0.0386486
-0.0506757
0.0119225
0.0517125
0.0547233
0.0394161
-0.0680627
0.0706272
-0.0583421
-0.0203376
0.0466463
0.0538872
-0.0312016
0.0357748
0.0834562
-0.0428145
0.0729306
-0.0356834
0.0736301
-0.0478806
0.0409375
0.0782454
-0.0366557
0.080796
-0.0468904
0.0410756
-0.0800294
0.0843992
-0.0563767
-0.0417438
0.0398433
0.0718945
-0.0543594
0.0160319
0.0742393
-0.0489437
0.0210255
-0.0754079
-0.0364566
0.0283517
0.0715324
-0.00618943
-0.0605312
-0.0546694
-0.00807793
-0.0604361
-0.0534523
-0.0137433
-0.0634614
0.053877
-0.0620129
-0.00853573
-0.0523647
-0.0036286
-0.0618698
0.0589966
-0.00771991
-0.0658551
0.052408
-0.0739335
-0.00213355
0.0690489
-0.0802775
-0.00600379
0.0782149
-0.0851026
-0.00401476
0.0838965
-0.0821509
-0.00280248
0.0810288
-0.0738788
-0.00269717
0.0732618
-0.0671568
-0.00173644
0.0692351
0.00818302
-0.0582042
0.0718029
0.0009932
-0.0640526
0.0701652
-0.0218704
-0.0664033
-0.0483936
-0.0571549
-0.0170265
-0.0611029
0.0387191
-0.0656767
-0.0166865
-0.0533509
-0.0233447
-0.0445726
0.0210219
-0.0150556
-0.0548092
-0.0377742
0.040536
0.0483433
0.0901677
0.0460056
0.0248072
0.0854044
-0.0499247
0.0312117
0.074933
0.0541563
0.0246074
0.0839016
0.0564841
0.00176761
0.0811907
0.0536613
-0.000965261
0.0600841
0.0618972
0.0084731
0.0560582
0.0697171
0.0792824
0.00797669
0.0783131
0.0725157
0.0131372
0.00667478
0.0475719
0.0707178
0.0128819
-0.0415298
0.0430849
0.0591252
-0.0414317
0.0576671
0.0243247
-0.0342332
0.0526339
0.0223762
0.023537
0.0345643
0.0190782
0.0086549
0.0172218
0.026008
-0.00225163
0.0188717
0.0452822
0.0214039
-0.00685661
0.04834
-0.0258531
-0.000375829
0.00946916
-0.0372427
-0.0351945
-0.0411301
0.0372107
-0.0453321
-0.000456441
0.0295467
-0.0167945
-0.00235422
-0.00493394
-0.0194272
0.0112071
-0.0201166
-0.0186307
-0.0266838
0.00419647
-0.0108813
-0.0244149
-0.00189667
-0.0109762
-0.0134708
0.010857
-0.00707428
0.00215308
-0.0180028
0.00809104
0.0175593
-0.0278808
0.0140406
0.0356515
-0.0212571
0.0315037
0.0156945
0.0198859
0.0394172
0.0134203
0.0191868
0.0439537
0.02481
-0.018821
0.0389385
0.0183389
0.022755
0.0244008
0.0429196
0.0175662
0.0429185
0.0376123
0.00592455
0.0417215
0.0270271
-0.01208
0.0444633
0.0445547
-0.00419492
0.0504603
0.0476142
0.00482506
0.0487055
0.0543636
0.00320685
-0.00504527
0.0507134
0.0406981
0.0438183
0.0458933
-0.0103585
0.0441898
0.0557894
0.0143079
0.0469468
0.0587037
0.0179884
0.0507302
0.0641444
0.0220146
0.0484635
0.068432
-0.0229034
0.044604
0.0677028
0.022841
0.0506942
0.0652301
-0.0246472
0.0600484
0.0736372
-0.0269589
0.0634038
0.0868442
0.0283379
0.059266
0.0924915
-0.0319913
0.0501787
0.0923119
-0.0368489
-0.0425516
0.0874243
-0.0372497
-0.045379
0.0359264
0.00854041
-0.0608191
-0.0353957
0.000157598
-0.0159375
-0.0684555
0.00728336
0.0102151
-0.0200655
0.0352609
0.0147521
-0.0165317
-0.0334103
0.0224981
-0.0237184
0.0341538
0.0425828
-0.0140205
-0.0421121
-0.0321177
-0.0216068
0.00791804
-0.00784725
0.0250111
0.0319512
-0.0229043
0.0275338
-0.0362205
-0.0233127
0.0090205
-0.0218217
-0.000684689
0.00293186
-0.0217234
-0.0259573
0.0189327
0.0220501
0.0485324
-0.0155806
0.0726062
-0.0411088
0.0231065
0.0618981
-0.0201507
-0.0185461
0.0489343
-0.0460716
0
0
0
0
0
0
0
0
0
0
0
0
0.0126852
0
-0.326145
0
0
0
0
0
0
0
0
0
0
0.00317639
0.00199942
0
0
0
0
0
0
0
0
0
0
0
0
0
0
0
0
0
0
0
-6.16064e-06
1.17791e-05
0
0
0
0
-8.37532e-05
6.03694e-05
0
0
0
0
0
0
0
0
0
0
0
0
0
0
0
0
0
0
0
0
0
0
0
0
0
0
0
7.62787e-06
0
-3.45215e-05
0
0
0
-5.99054e-06
0
1.33866e-05
0.0590981
0.055896
-0.0588461
-0.0137047
0.0686311
-0.0685787
0.0736165
-0.0194982
-0.0115615
-0.0193359
-0.00690502
0.0184322
-0.0609808
0.0163735
-0.0255092
-0.0313655
0.00406591
-0.0278006
0.0116534
0.0362897
-0.0412449
-0.0150707
-0.0182637
-0.0543747
-0.0189623
-0.043632
-0.0265724
0.0133025
0.0243279
-0.027465
-0.0201316
-0.00964008
-0.0392366
-0.0206264
0.00921276
-0.0245825
-0.0269509
1.27269e-06
0
0
0
0
0
0
0
0
0
0
0
0
0
0
0
0
0
0
0
0.0466941
0.0580206
-0.0152453
0.0339856
0
0
0
-0.0155479
0.00935324
0.0190181
0.0205357
6.65848e-05
0.0102597
0.011333
-0.00221061
-0.00462588
0.0282271
0.0091392
0.00880457
0.0131464
0.020381
0.0443747
0.0414777
-0.010096
0.0457325
0.0365834
-8.92291e-05
-0.0153216
0.00065946
-0.0152159
0.00360374
0.0345948
0.0424266
-0.0103367
0.0050979
0.0504642
0.0120516
0.0143847
0.0538063
-0.0172463
-0.0464726
0.032622
0.00774701
-0.0945017
0.0125211
0
0
8.99734e-06
8.95803e-07
0
0
0
0
0
0
0
0
0
0
0
0
0
0
0
0
0
0
0
0
0
0
0
0
0
0
0
0
0
0
0
0
0
0
0
0
0
0
0
0
0
0
0
0
0
0
0
0
0
0
-0.0262797
-0.0310155
-0.0095829
-0.0213932
-0.0219727
-0.00652215
-0.0173244
-0.0183071
-0.00297518
-0.0138552
-0.0166731
-0.00350855
-0.00817503
-0.0169639
-0.00538705
0.00532288
-0.00733117
-0.023147
0.0173156
-0.0182225
-0.00696377
-0.0108155
-0.0216864
-0.00775054
0.0157008
-0.0422948
-0.00907124
-0.0338521
-0.0467616
-0.0109619
-0.0352221
-0.052985
-0.00950658
-0.0408512
-0.05552
-0.0128272
0.0369662
-0.0449402
-0.0118516
-0.030009
-0.0433553
-0.00914861
0.0369039
-0.0244221
-0.00455045
0.0199732
-0.0280256
-0.007916
0.0158097
-0.0299796
-0.0163483
-0.00725159
-0.0387008
-0.0161519
-0.0190843
-0.00549573
0.0295236
0.0506034
-0.0257479
0.0437901
0.054844
-0.0133459
0.0433415
-0.0650992
0.0114739
0.0489762
-0.0773868
-0.0388336
0.0343652
-0.0775759
-0.0422445
0.0364934
0.0824194
-0.036058
0.039135
-0.0774345
-0.0195886
0.0367147
-0.0566781
-0.0536005
0.013148
-0.0729006
-0.0425007
0.0195787
0.0701995
-0.043738
0.0266493
-0.0763731
-0.00959196
-0.062317
-0.054041
-0.0108052
-0.0637701
0.0524815
-0.0120787
-0.0669306
-0.0533842
-0.0648892
-0.0140786
0.0492829
-0.0167316
-0.0725784
0.0739368
0.0486964
-0.012992
-0.0678932
0.0513769
0.000197199
-0.0850776
-0.0765637
-0.026678
-0.0769785
0.0576551
-0.0883691
-0.00990637
0.07806
-0.0853225
-0.0101125
0.0758274
-0.0781577
-0.00935674
0.0699047
-0.0725202
-0.00881577
-0.0669032
-0.0698021
-0.00625715
-0.068158
0.00488915
-0.0596226
-0.071591
-0.00212544
-0.0656141
0.0701406
-0.0517874
-0.0304992
0.0269594
-0.0186323
-0.0656368
0.0488982
-0.0249004
-0.062948
0.0388796
-0.0677715
-0.0143561
0.0530033
-0.0230611
-0.0602236
-0.0360231
-0.0178802
-0.0617529
0.0411069
0.0448386
0.0478153
0.0925237
-0.048005
0.0360717
0.0931963
-0.0515471
0.0206781
0.0553561
0.0875405
0.0269975
0.076322
0.0579725
0.025236
0.0878648
-0.0619788
-0.00236002
0.084489
0.0627079
-0.00872136
0.0636062
-0.0649521
0.0062419
0.0626855
0.0722871
0.00672252
0.0803229
-0.0734072
0.0327128
0.0901508
0.0176546
0.0602695
0.0114337
0.0691843
0.0890971
0.079662
0.0192964
0.00502323
-0.0505382
0.0558116
0.0204325
-0.0525564
-0.0610057
0.0504154
-0.0383962
0.052779
0.023805
-0.0258886
0.0419607
0.0252555
0.0136947
0.0248482
0.0239209
0.00226824
0.0147752
0.0405919
0.0249222
0.0180914
0.0591434
-0.0352532
-0.0199198
0.0426703
0.0282128
-0.00475003
-0.00725505
-0.0441313
-0.0521653
-0.0435484
0.0426919
-0.0103432
0.00592216
0.00707525
-0.0157445
-0.0158546
-0.00100431
-0.00201728
-0.0118281
-0.00562986
-0.0245095
-0.0139938
0.00194899
-0.0202798
-0.0256997
-0.00622221
-0.017771
-0.0149008
0.0185707
-0.000798076
0.00546153
-0.0226518
0.00839874
0.0204612
0.02048
0.0165302
0.0299938
0.0154922
0.0290468
0.0179956
-0.0182252
0.0338258
0.0083957
-0.0167177
0.0389654
0.0212716
0.0159086
0.0334377
0.0202066
-0.0181424
0.0259843
0.0403462
0.0146877
0.0409505
0.0355335
0.00635291
0.0393963
0.029239
0.0121311
0.0413064
0.041592
0.0042401
0.0474976
0.0491927
0.00417461
-0.000596509
0.0495836
0.0360311
0.0480956
0.0145893
0.0406272
0.0554237
0.0153027
0.0412495
0.0570485
0.017896
0.0427428
0.060207
-0.0218689
0.0438775
0.0621694
0.0252318
0.0415397
0.0647066
-0.0265538
0.0372854
0.0657499
0.027405
0.0451438
0.0628818
0.0301086
0.0570553
0.0744385
0.0325805
0.0619777
0.0902421
-0.034974
0.0577875
0.097969
-0.0381172
-0.0439496
0.0983111
-0.0550777
-0.0355636
-0.0467558
-0.00251873
-0.0352428
-0.0656707
-0.0187126
-0.0552375
-0.0614542
0.030224
0.0305799
0.0607183
-0.0973209
0.0317177
-0.046984
-0.0499913
0.0192297
-0.0357021
0.0483214
0.0250815
-0.0324175
0.0473148
0.0462732
-0.0213681
-0.0517564
-0.0360663
0.0011082
0.0222919
-0.0180482
0.0380256
0.093825
-0.0325645
0.0507384
-0.0720411
-0.0485344
0.0282998
0.0488859
-0.0305081
0.000303163
0.0768505
0.0354909
0.0185987
0.134457
0.103069
-0.0128585
0.0214609
0.0913464
0.272425
-0.00941603
0.129484
0.217003
-0.0927704
0.0653528
-0.165128
0
0
0
0
0
0
0
0
0
0
0.00382829
-0.00327315
-0.0959191
0
0.0326973
0
0
0
0
0
0
-0.00173116
0
-0.00168447
0
-0.00860051
0
0
0
0
4.4934e-06
0
-2.71078e-05
0
0
0
0
0
0
0
0
0
-3.00274e-05
-1.33913e-05
-3.06874e-05
0
-2.24141e-06
0
-3.59458e-05
-3.92932e-05
6.1762e-06
0
-5.15649e-05
0
0
0
0
6.88579e-06
0
-5.21847e-05
0
-7.84256e-06
-1.52759e-05
0
0
0
0
0
0
0
0
0
0
0
0
0
0
0
0
0
0
0
0
0
-3.52458e-06
0
5.40813e-06
0
0
0
-3.48205e-05
0
0
0
0
0
0
0
0
0.0610461
0.0198446
0.0485175
0.0214584
0.0794777
0.111036
0.0179953
0.0615997
0.0459401
0.0820612
-0.0298831
-0.117237
0.0333477
-0.0137737
0.00648252
-0.039521
0.0209334
0.00842005
-0.000657542
-0.052523
-0.0406513
0.000710543
-0.0290312
-0.045698
-0.0197314
0.033232
-0.0109782
0.0297719
0.0224951
-0.0590543
-0.0313362
-0.0421637
-0.031151
0.00788059
-0.0273348
-0.0325497
-0.0255063
0.0082669
-0.00610888
-0.027511
0
0
0
0
0
0
0
0
0
0
0
0.0485491
0.0546969
0.0103729
0.036279
0
0
0
0
0
0
0.0312566
0.0132687
-0.0256194
0.0223365
0.0158319
-0.0148134
0.0121469
-0.00579452
-0.00562596
0.00600127
0.018074
-0.00903471
0.0208648
0.00706579
-0.00288455
0.0136217
0.00680268
0.00283554
-0.0128777
0.0303038
-0.0226444
0.0441634
0.0434199
-0.00575386
0.0361226
0.0385132
0.0123413
0.017273
-0.0413888
-0.0279735
0.0806835
0.0414046
-0.0275971