/*--------------------------------*- C++ -*----------------------------------*\
  =========                 |
  \\      /  F ield         | OpenFOAM: The Open Source CFD Toolbox
   \\    /   O peration     | Website:  https://openfoam.org
    \\  /    A nd           | Version:  8
     \\/     M anipulation  |
\*---------------------------------------------------------------------------*/
FoamFile
{
    version     2.0;
    format      ascii;
    class       volScalarField;
    location    "3480";
    object      H;
}
// * * * * * * * * * * * * * * * * * * * * * * * * * * * * * * * * * * * * * //

dimensions      [0 1 0 0 0 0 0];

internalField   nonuniform List<scalar> 
526318
(
0.856979
0.81355
0.892578
0.811484
0.863333
0.816617
0.83765
0.7601
0.82404
0.697003
0.686499
0.791474
0.741347
0.792632
0.751364
0.775202
0.744316
0.933892
0.853521
0.888697
0.886084
0.846922
0.60167
0.841028
0.736729
0.597269
0.86164
0.867228
0.872946
0.890858
0.908796
0.956476
0.945901
0.826577
0.837047
0.796431
0.808567
0.906885
0.819602
0.737404
0.820667
0.792193
0.454298
0.513575
0.421283
0.462103
0.44252
0.561389
0.735389
0.643399
0.72013
0.737901
0.686934
0.642542
0.131751
0.390419
0.378778
0.183793
0.908901
0.911061
0.924021
0.877125
0.834021
0.948684
0.960311
0.921878
0.904248
0.890053
0.792635
0.798903
0.911284
0.694564
0.744348
0.631691
0.588729
0.589534
0.679846
0.669867
0.592623
0.636048
0.711207
0.709939
0.668298
0.615431
0.638963
0.718921
0.721
0.698463
0.637526
0.712326
0.61523
0.57318
0.568381
0.491474
0.487433
0.497682
0.489937
0.492463
0.490679
0.486746
0.000409019
2.15653e-06
0.000926888
0.000956089
0.0509048
0.000209108
0.399468
0.211487
0.523331
0.486917
0.527668
0.643763
0.867487
0.760196
0.878877
0.884333
0.953653
0.909929
0.968408
0.48404
0.485711
0.48849
0.490058
0.448135
0.484998
0.397394
0.439148
0.351327
0.397915
0.350199
0.349397
0.339711
0.314355
0.304174
0.333834
0.273393
0.327614
0.278891
0.2991
0.244158
0.249952
0.271616
0.298057
0.286023
0.241965
0.244762
0.258706
0.246648
0.243472
0.247792
0.264144
0.24986
0.25277
0.252444
0.250679
0.21768
0.251917
0.245455
0.219088
0.177261
0.244092
0.206115
0.262674
0.744385
0.853057
0.792443
0.784032
0.578585
0.652823
0.573093
0.574199
0.581222
0.57576
0.602414
0.589431
0.519517
0.489425
0.456248
0.39291
0.451766
0.49561
0.493458
0.494937
0.379931
0.433368
0.321948
0.330306
0.338266
0.33167
0.328906
0.336225
0.323651
0.32774
0.322981
0.311821
0.289849
0.315569
0.307277
0.278714
0.26432
0.289229
0.268986
0.265307
0.285153
0.270682
0.282704
0.235382
0.261003
0.291539
0.287826
0.731301
0.734328
0.782872
0.800096
0.735881
0.730669
0.737483
0.619244
0.659549
0.399133
0.379933
0.378069
0.49853
0.644098
0.510584
0.547896
0.553116
0.495051
0.475786
9.13975e-05
4.78267e-07
0.119578
0.324223
0.00027704
9.76159e-09
0.000995694
0.000255125
0.000396609
0.000963311
0.963382
0.921786
0.983393
0.961781
0.954317
0.931601
0.83886
0.922743
0.761928
0.713463
0.717211
0.717767
0.709492
0.709928
0.692081
0.711762
0.627478
0.681574
0.498512
0.555143
0.48663
0.497007
0.000992859
4.55059e-11
0.000154997
0.00100202
0.000915499
0.0009992
0.000814933
0.121051
0.501828
0.317373
0.550271
0.539914
0.652225
0.756338
0.887196
0.889619
0.928427
0.89193
0.958511
0.994077
0.466078
0.465072
0.424594
0.399344
0.298596
0.330578
0.257838
0.265495
0.261
0.24969
0.24305
0.245163
0.18201
0.19536
0.233914
0.271826
0.326047
0.288714
0.260327
0.2487
0.180847
0.17313
0.229828
0.281983
0.217589
0.238528
0.241266
0.211
0.212334
0.177243
0.171048
0.132065
0.129691
0.137131
0.127923
0.254639
0.283894
0.25456
0.287321
0.638857
0.623582
0.519967
0.590103
0.521958
0.572567
0.585871
0.57354
0.58083
0.578913
0.495638
0.404722
0.333071
0.320771
0.392172
0.335961
0.319997
0.434338
0.325519
0.37207
0.311254
0.312247
0.321752
0.313747
0.324815
0.322175
0.319749
0.323583
0.320684
0.319725
0.326781
0.321616
0.336457
0.335878
0.33974
0.316266
0.334359
0.312531
0.290416
0.291761
0.31353
0.344356
0.335454
0.31556
0.292359
0.319649
0.356061
0.360256
0.377277
0.332014
0.365078
0.382365
0.425037
0.372502
0.377734
0.403526
0.441253
0.560551
0.637644
0.565051
0.576475
0.645729
0.733146
0.628961
0.484584
0.619347
0.510411
0.535801
0.269776
0.213344
0.245419
0.231285
0.349513
0.469802
0.404424
0.471941
0.471778
0.493322
0.471323
0.000325505
0.000185171
0.0435578
0.000310641
0.125863
0.0121388
0.000599399
0.00101921
0.000161935
0.00100962
0.000664765
0.00100889
0.000730728
0.000955715
0.000582482
0.000952703
0.982083
0.961189
1.0051
0.982206
0.965607
0.946371
0.869255
0.790189
0.713589
0.728151
0.710049
0.706363
0.6872
0.686567
0.659485
0.663631
0.614396
0.653191
0.580579
0.523808
0.466571
0.424603
0.000991203
0.00111316
0.00111321
0.000663073
0.000359888
0.000731205
0.000564964
0.000517271
0.00111325
0.00111327
0.000725232
0.00100984
0.00074825
0.00100942
0.00131182
0.00017911
0.000296038
0.000489315
0.000977135
0.00096135
0.000477365
0.000989231
0.0308147
0.00418895
0.206136
0.0450489
0.403519
0.5706
0.584539
0.668373
0.897732
0.796898
0.902126
0.902229
0.930973
0.947973
0.988111
0.999432
0.383802
0.385832
0.341673
0.362199
0.301786
0.26932
0.258176
0.259447
0.254816
0.259553
0.206264
0.205736
0.156703
0.166382
0.221418
0.188433
0.157691
0.221483
0.209629
0.225922
0.129801
0.12198
0.153725
0.157986
0.158427
0.11984
0.125925
0.116262
0.127066
0.107799
0.10447
0.408958
0.379513
0.383281
0.380351
0.402488
0.508468
0.465589
0.448541
0.322786
0.367294
0.356698
0.351481
0.257512
0.198024
0.374747
0.488638
0.378328
0.384695
0.357824
0.445066
0.42392
0.491867
0.526143
0.4574
0.43203
0.474013
0.34984
0.31481
0.318512
0.316392
0.229624
0.2898
0.213785
0.167822
0.144699
0.26364
0.263864
0.313093
0.310863
0.314262
0.316423
0.313585
0.320419
0.313421
0.325992
0.310892
0.338066
0.327053
0.336942
0.337418
0.363344
0.350588
0.373393
0.375332
0.322708
0.304172
0.370475
0.353366
0.342497
0.356483
0.343568
0.330602
0.382817
0.358883
0.46928
0.471533
0.421594
0.468146
0.477254
0.443144
0.53144
0.503581
0.567165
0.59407
0.611278
0.523212
0.535569
0.531497
0.50651
0.476794
0.455543
0.532464
0.386435
0.364581
0.414459
0.435359
0.111538
0.164639
0.243278
0.367699
0.395137
0.436223
0.340077
0.302619
0.262035
0.208435
0.000965631
0.000567694
0.00098688
3.69844e-07
0.0403973
0.119541
0.000993891
0.000234006
0.00100979
0.000545241
0.00024476
0.000470015
0.000926911
0.000208943
0.000737063
0.000986846
0.000766556
0.000551352
0.000138864
0.000388285
0.00097475
0.00101
0.000132685
0.000999776
0.000962206
0.000381181
0.00119083
0.000960629
0.000983042
0.00119083
0.00119079
0.00119082
0.000888436
0.000999494
0.0009727
0.000201819
9.59135e-05
0.000989075
0.000892979
0.0009482
0.00100959
0.000881287
0.00100974
0.00100225
2.6935e-05
0.00093538
0.977745
0.971144
1.00174
0.992976
0.972451
0.888856
0.719801
0.815381
0.675955
0.684077
0.661404
0.6725
0.651659
0.654056
0.657035
0.655204
0.590172
0.564483
0.466183
0.510339
0.364152
0.40453
0.000851104
0.000624444
0.000948563
0.000967574
0.000969466
0.000982262
0.000986514
0.000879074
0.000998153
0.000729611
0.000677989
0.000965569
0.000971308
0.000759356
0.000380116
0.000991326
0.000690401
0.00100737
0.000803925
0.000839513
0.000369052
0.000975289
0.000889611
0.000439439
0.000917861
0.000844533
0.00110084
0.000356893
1.02554e-05
0.000291389
0.0741173
0.00075305
0.0904919
0.0863573
0.384812
0.216181
0.599157
0.546104
0.610289
0.727057
0.830157
0.906957
0.909342
0.907571
0.964004
0.982972
0.96589
0.961051
0.00101
0.000734461
0.000886173
0.000267711
0.000924299
0.000922867
0.00081396
0.000930025
0.000890554
0.000725685
0.000975785
0.00092383
0.000794854
5.64147e-07
0.000785376
0.00101
0.000170373
0.36182
0.366476
0.362035
0.330113
0.250673
0.284615
0.211753
0.203935
0.172098
0.16565
0.120586
0.118362
0.158171
0.138795
0.105673
0.136088
0.130708
0.177564
0.170848
0.163532
0.0873886
0.0533308
0.0545937
0.0998768
0.106073
0.106947
0.0836206
0.0877968
0.0495038
0.0390149
0.00165151
0.00834076
0.5962
0.570479
0.609417
0.623521
0.569026
0.533038
0.695942
0.720961
0.782351
0.788017
0.341716
0.375731
0.436562
0.517149
0.333277
0.280698
0.310733
0.321608
0.158547
0.212359
0.256262
0.144004
0.361308
0.359913
0.361602
0.36144
0.38244
0.36225
0.374667
0.389135
0.272774
0.257032
0.162555
0.247806
0.242654
0.198528
0.148512
0.167579
0.11318
0.129776
0.110606
0.197495
0.259888
0.19409
0.261158
0.310788
0.313285
0.311943
0.310329
0.319871
0.341685
0.330184
0.348591
0.343138
0.366168
0.356717
0.377286
0.379309
0.374359
0.377626
0.387456
0.383169
0.423543
0.39358
0.35895
0.362235
0.429988
0.395061
0.40368
0.440442
0.486627
0.48297
0.487878
0.485741
0.507711
0.564398
0.623757
0.647523
0.652377
0.635992
0.777821
0.718653
0.848006
0.887374
0.873009
0.913753
0.967362
0.83053
0.91823
0.943541
1.01643
1.06694
1.0914
1.11404
1.14316
1.08379
1.14366
1.09881
1.17866
1.1787
1.22956
1.19542
1.25822
1.28722
1.27633
1.22576
1.29338
1.31683
1.28328
1.2782
1.34694
1.32245
1.35449
1.29177
1.29109
1.35962
1.32259
1.27855
1.27565
1.30885
1.34349
0.334224
0.299629
0.467865
0.461266
0.436174
0.432746
0.426302
0.193432
0.329045
0.0340062
0.0627524
0.159893
0.151973
0.0198854
0.110207
0.0836783
0.269411
0.169182
0.167519
0.0789266
0.0740981
0.0877701
0.0996646
0.000349031
0.00105383
0.000917789
7.40392e-05
0.000831202
2.57805e-05
0.00101
0.000966006
0.000995857
0.000684122
2.16019e-05
0.00132335
0.000842141
0.000928041
0.000844807
0.000799349
0.000225167
0.00069126
0.000943677
0.000831092
0.00113666
0.000737904
0.00012748
0.000146108
0.000949
0.000255762
1.26965e-05
1.61879e-05
0.000990101
0.000818938
0.00100231
0.000952624
0.000911134
0.000410555
0.000491036
0.000909732
0.000762255
0.000945839
0.000915894
0.00101256
0.00100986
0.000998473
0.00123963
0.000866945
0.0011835
0.00096024
0.00118331
0.00118343
0.00116735
0.000989428
0.00118365
0.00118327
0.000343229
0.000813792
0.00102758
0.000864307
0.000915989
0.000377029
0.000991017
0.000960908
0.00100983
0.00100977
0.000136678
0.000857994
0.000950381
0.000921886
0.000915695
0.000919934
0.000861844
0.00128427
0.000841385
0.000968314
0.96213
0.944983
0.917602
0.933831
0.818988
0.915227
0.720189
0.678146
0.661496
0.656493
0.655397
0.656736
0.597811
0.597931
0.44362
0.406664
0.363625
0.537304
0.537618
0.485597
0.488569
0.487919
0.000647301
0.000460828
0.00122467
0.00122467
0.000962471
0.000414864
0.000659784
0.000410365
0.000999494
0.00102778
0.000161511
0.00100893
0.000972717
0.000941946
0.000297472
0.000985833
0.000726155
0.00091818
0.00021426
0.00071546
0.000628617
0.000951565
0.00116686
0.00116718
0.000210432
7.84644e-06
0.000762359
0.0849433
0.212905
0.0871742
0.383185
0.54678
0.587978
0.602615
0.694679
0.809844
0.87471
0.852167
0.899127
0.821847
0.872382
0.923343
0.870369
0.865145
0.001248
0.000856469
0.00101
0.000849207
0.000998695
0.00120425
0.000764399
0.000797284
0.00120422
0.000990042
0.00100237
0.00095732
0.000762222
1.14836e-05
0.000822279
0.00072648
0.000776991
0.000656439
0.00098774
0.000236686
0.000248866
0.000509152
0.00096459
0.000795867
0.00123895
0.000442148
0.338944
0.339773
0.257355
0.274724
0.150264
0.17449
0.111747
0.113108
0.110741
0.111283
0.0847529
0.0874557
0.0603782
0.0620201
0.035912
0.0800542
0.150073
0.123393
0.14251
0.164529
0.000886296
0.000955126
0.0382563
0.0179976
0.0281705
0.0331158
0.000526614
0.000321623
0.000990272
0.000837963
0.00128552
0.000779004
0.829863
0.823648
0.650509
0.563112
0.548454
0.549763
0.821495
0.735589
0.978975
1.05758
0.954676
0.87438
1.07107
1.04883
1.11567
1.16709
1.19746
1.19383
1.2234
1.19417
1.2522
1.27801
1.27085
1.27427
1.29063
1.2769
1.27894
1.32342
1.2698
1.2622
0.390978
0.316018
0.461852
0.532807
0.319493
0.264972
0.313068
0.310871
0.148866
0.199983
0.0332837
0.198658
0.0870616
0.36096
0.303838
0.362029
0.354143
0.361108
0.252999
0.15523
0.0790853
0.0660092
0.0795349
0.115659
0.0427153
0.0289541
0.000530575
0.038437
0.125883
0.115801
0.0388175
0.140669
0.203518
0.157132
0.259449
0.207223
0.246517
0.305388
0.342514
0.315675
0.352677
0.351346
0.362555
0.353726
0.384195
0.390174
0.397104
0.405679
0.412308
0.415735
0.448705
0.461803
0.454074
0.447533
0.448678
0.442976
0.463893
0.48209
0.530849
0.514662
0.478458
0.508042
0.500012
0.538558
0.575421
0.638682
0.668812
0.665951
0.679341
0.749084
0.833711
0.906183
0.914712
1.04568
0.922367
0.96588
1.11888
1.14509
1.14236
1.18291
1.22666
1.27975
1.28891
1.29337
1.32259
1.34897
1.37663
1.37625
1.37246
1.37717
1.37566
1.35672
1.29
1.35586
1.32348
1.27967
1.27587
1.311
1.33906
1.34995
1.27903
1.34071
1.29581
0.127446
0.116083
0.188159
0.26288
0.151164
0.224133
0.354831
0.292372
0.322973
0.15877
0.0591805
0.0232422
0.0244817
0.128889
0.12025
6.66134e-09
0.000885644
0.0772511
0.000252992
0.0742914
0.0755045
0.0837793
0.0753125
0.0835832
0.113928
0.000871197
0.000837817
0.000904459
0.000783888
0.00126741
0.00126719
0.00086849
0.000172666
0.000815689
0.00132289
0.000981197
0.000898264
0.000478021
0.000315336
0.000571173
0.00101
0.000657765
0.00113338
0.000934557
0.000984534
0.000965073
0.000660221
0.000998234
0.000701989
0.00100779
0.000868975
0.00105311
0.000954812
0.000875524
0.000744326
0.00115239
8.72348e-05
0.00099613
0.000976554
0.000261975
0.000814638
0.000544652
0.000936558
0.000765323
0.000988269
0.000933787
0.000977094
0.000978339
0.000943996
0.000974885
0.00092222
0.000261971
0.00143794
0.00093886
0.00105303
0.000862571
0.00100962
0.000641972
0.000367709
0.000916152
0.000960434
0.000956295
0.000892128
0.000727144
0.000479733
0.874612
0.863158
0.851337
0.86416
0.789835
0.839913
0.645815
0.722817
0.627147
0.617197
0.556644
0.54089
0.488097
0.489142
0.399768
0.301173
0.27178
0.446885
0.483949
0.486863
0.487167
0.488789
0.00122422
0.000988769
0.00122397
0.00027991
0.000973634
0.000953788
0.000993019
0.000963159
0.000983712
0.000813892
0.000135327
0.000443538
0.00093376
0.000982119
0.00060297
0.00100999
0.00098232
3.53596e-05
0.000985985
0.000873381
0.000276721
0.00071615
0.000650932
0.00101122
0.000321117
0.000107546
0.052626
0.0862141
0.280337
0.114951
0.421411
0.556232
0.526211
0.640697
0.801901
0.71394
0.78108
0.795156
0.773179
0.803964
0.859707
0.859241
0.861244
0.832472
0.000769413
0.000922585
0.000573493
0.000958878
0.000712787
0.000933944
0.000627141
0.000311966
0.000812518
0.000879841
0.000957505
0.000913998
0.00102666
0.000915668
0.000953238
0.000873917
0.00096514
0.000987798
0.000919125
0.00107294
0.000727941
0.00107296
0.000902264
0.000901385
0.00101
0.000860782
0.000668131
0.000529485
0.000136748
0.000756032
0.000938482
0.212639
0.216259
0.176868
0.156282
0.113896
0.134498
0.100456
0.101312
0.257273
0.199397
0.175226
0.0303608
0.038732
0.000387437
0.000891201
0.0375589
0.0362339
0.0271739
0.0685909
0.138381
0.0789283
0.114543
0.10455
0.000979892
0.000633255
0.000934259
0.0141725
0.000580554
0.000959275
1.30661e-05
0.00052455
0.000737284
0.000689738
0.000594218
0.000809643
1.39907
1.40795
1.43722
1.41297
1.45334
1.44335
1.46937
1.45671
1.51836
1.50079
1.46258
1.51594
1.4922
1.54103
1.36775
1.31699
1.33976
1.38759
1.3694
1.33864
1.34314
1.39552
1.39939
1.37809
1.35618
1.40944
1.3933
1.39735
1.42485
1.27884
1.27759
1.27644
1.27625
1.29614
1.31722
0.871465
0.816143
0.709447
0.6115
0.532945
0.597769
0.80392
0.790631
1.02722
1.05248
0.938122
1.02135
1.05813
1.10934
1.15307
1.19809
1.19346
1.19504
1.19262
1.22113
1.23426
1.25953
1.24835
1.25039
1.25488
1.26629
1.24303
1.24608
0.439066
0.365864
0.310522
0.294726
0.356124
0.534073
0.508918
0.240888
0.291457
0.175058
0.092672
1.38535
1.40536
1.4215
1.42871
1.43499
1.44484
1.44631
1.47389
1.45841
1.4782
1.47572
1.5292
1.54767
1.57522
1.57103
1.57474
1.59059
1.61075
0.0788525
0.0232572
0.0254855
0.286852
0.170492
0.34488
0.244621
0.166381
0.0640751
0.0659774
0.0650005
0.0649616
1.39775e-06
0.000852417
0.000362343
0.000709068
2.13407e-29
6.10001e-120
0.129807
0.0618277
5.88751e-34
0.159247
0.152164
0.154079
0.210044
0.164924
0.294031
0.239259
0.324642
0.294299
0.329523
0.3546
0.370323
0.399374
0.422904
0.416756
0.427116
0.422937
0.486069
0.470173
0.466518
0.46181
0.510028
0.492685
0.556114
0.519412
0.502744
0.539825
0.579257
0.570623
0.602115
0.637314
0.633983
0.580277
0.691903
0.717009
0.686679
0.682196
0.762202
0.849547
0.913416
0.987827
0.937209
0.946154
1.07752
1.13889
1.1805
1.16419
1.22522
1.26011
1.29959
1.31252
1.30695
1.32962
1.3851
1.36368
1.3784
1.38389
1.37685
1.37441
1.3761
1.3743
1.37597
1.37305
1.37258
0.112857
0.101735
0.118418
0.0506483
0.0678629
0.0876066
0.0185924
0.163016
0.0651293
0.000731257
0.0190062
0.000628225
0.000759292
0.00107306
0.0239459
0.000647509
0.000112132
1.70627e-09
0.000316068
0.0737981
0.00089323
0.000763556
0.0010043
0.000421146
0.000825997
0.000160331
0.000905561
0.000962231
0.00114916
0.00114904
0.00126694
0.000721318
0.00109776
0.000996223
0.000776109
0.00096702
0.000896738
0.000998449
0.00026155
0.000888291
0.00100984
0.000894905
0.00114881
0.000599133
0.000398457
0.000668916
0.000999782
0.000270015
0.000740386
9.02356e-08
1.99709e-05
0.00238101
0.000350528
0.00101014
0.000694792
0.000545923
0.000997667
0.000422872
0.00100993
0.000972649
0.000977525
0.000963111
0.000999516
0.000675261
0.00110355
0.000960558
0.000776819
0.00111035
0.000810563
0.000996263
0.00089779
0.000955844
0.000631827
0.000258775
0.000795228
0.000964465
0.000941166
0.000838222
0.00101
0.000334973
0.000797622
0.000685233
0.000978177
0.000925692
0.000935309
0.000927016
0.00091709
0.000695524
0.000567275
0.00175787
0.00024724
0.000674617
0.000835469
0.000977594
0.0017552
1.56072
1.53555
1.51601
1.608
1.6406
1.63336
0.861423
0.839046
0.824687
0.828421
0.760383
0.838622
0.643316
0.573079
0.505721
0.520728
0.488022
0.485619
0.487109
0.487576
0.360823
0.286236
0.373198
0.450692
0.451885
0.00093523
0.000810108
0.000875173
0.000890082
0.000999727
0.000971927
0.000922744
0.000493094
0.000928118
0.000560941
0.00100943
0.000984735
0.000971046
0.0516171
0.0860589
0.117361
0.00100998
0.000498781
0.000128694
0.000927014
4.59314e-06
0.000271442
0.000921556
0.000786843
0.000569325
0.000783296
0.000730553
0.253014
0.396778
0.508851
0.508468
0.837248
0.749628
0.765816
0.546354
0.635835
0.716186
0.766503
0.771034
0.788053
0.804421
0.81691
0.822199
0.000755333
0.00110814
0.000625207
0.000982796
0.000826944
0.000850761
0.00100904
0.000845157
0.000732404
0.000835941
0.000817811
0.000932446
0.000763197
0.000991641
0.00100991
0.000966189
0.000929381
0.00103592
0.000973066
0.0010349
0.000908176
0.000824304
0.000770427
0.00097601
0.000980365
0.000888339
0.000420429
0.000801713
0.000962731
0.000998019
0.00107174
0.000984843
0.000972935
0.00100956
0.000818042
0.00101
0.001009
0.216046
0.247748
0.238026
0.177557
0.178417
0.150731
0.170385
0.0428082
0.0683952
0.000400223
0.000982273
0.181564
0.171023
0.000406768
0.000892595
0.000630337
0.00103615
0.00102056
0.00096208
0.00668207
0.000326478
0.0743677
0.0267234
0.0744195
0.0885135
5.85778e-05
0.000680105
0.000702988
0.000420221
0.000673332
0.000551523
0.000693939
9.93495e-05
0.000358069
0.000994303
8.71897e-06
0.000979051
1.40087
1.41387
1.43492
1.46201
1.46724
1.46729
1.49759
1.47903
1.33211
1.32968
1.31338
1.33688
1.36661
1.3307
1.37758
1.3512
1.2678
1.25705
1.25264
1.28235
1.31204
1.28413
0.877437
0.801111
0.6911
0.777346
0.622835
0.546911
0.79453
0.793109
1.03633
1.03896
1.05498
0.951651
1.02873
1.14336
1.0876
1.03074
1.07344
1.17448
1.1873
1.1759
1.1815
1.1926
1.21221
1.24018
1.23073
1.23757
1.23775
1.24363
1.23988
1.24509
1.23723
0.290224
0.280833
0.421879
0.508572
0.280166
0.370597
0.524816
0.544998
0.267659
0.227414
0.128307
0.19836
1.41865
1.37827
1.39354
1.43998
1.43725
1.44045
1.44909
1.47171
1.49155
1.50352
1.50505
1.51072
1.53097
1.57031
1.55523
1.5697
1.58827
1.63396
1.60686
1.44636
1.45611
1.47282
1.63645
1.63375
1.63823
0.0237448
0.0237447
0.0233627
0.000557873
0.0927749
0.109331
0.000433721
0.000419303
0.000130128
0.000826437
0.000823278
0.000941762
0.000685788
0.00132789
0.000589649
0.00132785
0.000969713
7.00282e-06
0.00957708
1.00995e-09
0.0017545
0.0838631
0.159752
0.0718247
0.2293
0.252227
0.195707
0.230375
0.285824
0.260505
0.381314
0.329504
0.397398
0.412478
0.423958
0.403171
0.464026
0.502043
0.53925
0.535259
0.539214
0.524715
0.55074
0.529108
0.575611
0.586752
0.611716
0.605769
0.582873
0.591791
0.708955
0.755587
0.650849
0.717299
0.765769
0.729678
0.827939
0.878852
0.968906
1.01212
0.986942
1.07847
1.13365
1.23401
1.2206
1.28234
1.25328
1.34678
1.35697
1.34688
1.37359
1.40072
1.40432
1.4531
1.42372
1.44627
1.41514
1.41426
1.44461
1.38142
1.4152
1.37782
0.000357974
9.19556e-05
0.00087564
0.000314618
0.0382019
0.0204912
0.0177331
0.00204828
0.019091
0.000291354
0.000629215
0.000513388
0.000134787
0.000640487
0.000518005
0.000360567
0.000494427
2.89756e-05
0.000302915
2.90491e-05
0.000476277
0.000205615
5.50518e-07
0.000285762
0.000978557
0.000584928
0.000999883
0.000166003
0.00114902
0.001149
0.000993451
0.000995782
0.000992745
3.82214e-05
0.00101
0.000912008
0.0010004
0.000112849
0.00044385
0.000919656
0.000607328
0.000297927
0.00163356
0.000104434
0.000984734
7.11535e-05
0.0009581
0.000364482
0.000981802
2.5498e-05
0.000993278
0.00220514
0.000981993
0.000134455
0.000923187
0.00128221
0.00112434
0.00046639
0.00100983
0.000979813
0.000465046
0.000983408
0.000969573
0.000835887
0.00110349
0.00110334
0.00093398
0.000962599
0.00110323
0.00110334
0.000955402
0.000774439
0.000711032
0.000919589
0.00127263
0.000117599
0.00127232
0.000940646
0.00098702
0.000966821
0.000969532
0.00100545
0.00105323
0.00105202
0.000865178
0.000805878
0.000827454
1.23756e-05
9.12481e-06
0
0.000947836
0.000799517
0.000430028
0.000894084
0.00112424
0.000923733
0.00100958
0.00100998
0.000998052
0.000998553
0.000946811
0.000914726
0.00101
1.51393
1.55277
1.5423
1.53354
1.56861
1.67979
1.65288
1.65423
1.68407
1.62111
0.766416
0.735517
0.677084
0.687714
0.645717
0.666557
0.582142
0.537889
0.519958
0.488109
0.463819
0.463117
0.37415
0.383003
0.250988
0.295931
0.29143
0.000529692
0.000965684
0.000913493
0.00101
0.000967147
0.000933412
0.000722917
0.0855347
0.226925
0.0839879
0.000919443
0.000208654
0.000955226
0.000954432
0.00089401
0.000474254
0.00101
0.000964607
0.000950387
0.00102269
0.000849804
0.000990158
0.000944045
0.000847483
0.00025022
0.626979
0.626869
0.656296
0.366475
0.509187
0.506212
0.542521
0.664817
0.740589
0.70311
0.609842
0.691396
0.718426
0.724951
0.630541
0.661883
0.000957717
0.000992925
0.00110823
0.00106094
0.000473715
0.00092574
0.00106183
0.00122568
0.000969539
0.000996166
0.000160682
0.00182026
0.00095852
0.000936631
0.000510229
0.00282221
0.002822
0.00281983
0.000358773
0.000939262
0.000775127
0.00103608
0.000874161
0.000975539
0.000953155
0.00103571
0
0
0
0.000959356
0.00095036
0.00118216
0.00100136
0.000836671
0.000437088
0.000823456
0.000930546
0.000997229
0.0010054
0.000330773
0.000998256
0.000958008
0.000969942
0.000686934
0.000955596
0.23074
0.23969
0.251329
0.116483
0.142428
0.102947
0.0993744
0.0253688
0.0162548
0.000835057
0.000623858
0.00114028
0.0021404
0.0301172
0.0269192
0.000406739
0.000513331
0.000242686
0.000584634
0.000389242
0.000745404
0.000320122
0.00093798
0.0712719
0.034596
0.101366
0.052072
0.000105983
0.000921408
0.000695708
0.00123528
0.000312228
0.000747328
0.000716787
0.000346646
0.00101
0.000942721
0.000701782
0.00134815
1.39874
1.35862
1.42891
1.39944
1.40196
1.45804
1.45529
1.49551
1.48559
1.53062
1.48608
1.45387
1.52289
1.49052
1.29454
1.29862
1.28739
1.29998
1.31497
1.32502
1.3271
1.32872
1.24153
1.24483
1.26604
1.25159
1.28063
1.28481
0.877796
0.801741
0.719693
0.790381
0.595451
0.676362
0.792653
0.800623
1.02805
1.02766
1.03025
0.958843
1.11783
1.16355
1.07268
1.02737
1.1678
1.17162
1.18262
1.17072
1.20538
1.22814
1.24111
1.23781
1.24142
1.23642
1.24587
1.24238
1.23838
1.22893
0.276896
0.285329
0.439027
0.523505
0.431478
0.332604
0.581398
0.521012
0.254859
0.268438
0.251432
0.157711
1.41958
1.4498
1.43915
1.46383
1.47778
1.46516
1.5068
1.51187
1.4936
1.5045
1.49584
1.50707
1.50872
1.53635
1.55439
1.57141
1.57061
1.62229
1.59587
1.65046
1.64918
1.52785
1.5388
1.65058
1.66833
0.000415286
0.000291781
0.000696944
0.000784443
0.000525579
9.84212e-05
0.000242111
0.00022322
0.00101852
1.01273e-05
0.000927799
0.000258474
0.000589909
0.000657476
5.07035e-06
0.000780461
0.00175609
0.000576887
0.000910909
0.000220145
0.000563701
0.0108297
0.154438
0.0606628
0.246156
0.245856
0.212583
0.164918
0.286379
0.322426
0.379159
0.379113
0.396118
0.385528
0.505271
0.459331
0.549299
0.546606
0.570245
0.569124
0.551319
0.603462
0.652202
0.622008
0.609471
0.632091
0.684196
0.672456
0.650673
0.696831
0.784172
0.779683
0.776985
0.79433
0.924268
0.841668
1.00954
1.03159
1.03474
1.09968
1.17839
1.25465
1.2642
1.27809
1.32232
1.37173
1.40423
1.40586
1.442
1.4163
1.46816
1.48466
1.4821
1.48597
1.482
1.48607
1.4556
1.48156
1.45213
0.000847214
7.0722e-05
0.00544448
0.00102588
0.000768241
0.000794258
0.000693544
0.000830209
0.000797735
0.000438272
0.000877581
0.00125583
0.000340908
0.00125594
0.00125608
0.00125617
0.00125598
0.000995807
0.00125666
0.00542186
0.00100623
0.000638589
0.000184916
0.00221257
0.000318748
0.00221234
0.00221219
0.000464862
0.000465406
0.00100217
0.000993637
0.000687571
0.000901148
0.000568654
0.00107975
0.00104803
0.000783187
0.000959982
0.00100986
0.000887496
0.000962023
0.000976107
0.0014935
0.00100019
0.000146754
1.36216e-05
0.000607696
0.00096357
0.000988249
0.000479144
0.000826696
0.000980334
0.00100941
0.00031059
5.17339e-05
0.000987756
0.00100992
0.000817418
0.000560979
0.000881254
0.00101
0.000799183
0.000974117
0.000279366
0.000904827
0.00095865
0.000969238
0.00101
0.000954704
0.000876282
0.000886752
0.00100949
0.00097168
0.000773375
0.000984106
0.000952799
0.000882341
0.00098992
0.000934564
0.000964099
0.000974876
0.000974485
0.00125788
0.000992081
0.000905098
0.000604609
0
0
0
0
0
0
0
0
0
0
0
0
0
0
0
0
0
0
0
0.00099334
0.000901715
0.000937661
0.000812305
0.000988764
0.000436148
0.000947166
0.00110367
0.000325168
0.000811332
0.000317982
0.000878445
1.70806
1.69557
1.71986
1.7049
1.71554
1.71815
1.5539
1.55753
1.6232
1.59339
1.67664
1.7063
1.6749
1.55957
1.50608
0.613302
0.630162
0.611891
0.606313
0.622892
0.555891
0.597339
0.384278
0.439483
0.306955
0.304066
0.250107
0.251065
0.253188
4.53839e-05
0.000917722
0.000504268
0.00128829
0.0600587
0.247753
0.083313
0.000967645
0.00089707
0.0375673
0.000759769
0.000976565
0.000946011
0.000984784
0.00101622
0.000717645
0.000359445
0.000985164
0.0010104
0.000204846
0.00101033
0.000932938
0.0004632
0.000706921
0.62163
0.619953
0.628315
0.620927
0.62943
0.336902
0.449426
0.395375
0.51127
0.569658
0.60152
0.530827
0.607163
0.567289
0.561333
0.554746
0.000954778
0.00114871
0.000648946
0.000970576
0.000973219
0.000935143
0.000929175
0.00101889
9.96149e-05
0.000757362
0.00101698
0.00055754
6.92933e-05
0.000527482
0.000777286
0.000616055
0.000763669
0.000919235
0.00090121
0.00101592
0.000696638
0.000931573
0.000740767
0.000726241
0.000621516
0.00100951
0.000739043
0.000946251
0.000354107
2.15212e-05
0
0
0
0
0
0.000973716
0.000987051
0.000907267
0.00117389
0.00104673
0.00058016
0.000835369
0.000594721
0.000950777
0.00100911
0.000964926
0.000965413
0.000722883
0.000993559
0.000787048
0.000894954
0
0
0
0
0
0
0.225682
0.159392
0.14847
0.0729079
0.0657422
1.03545e-05
0.000641157
0.000766478
0.000183614
0.00042299
0.00184464
0.000834756
0.000375808
0.000550644
0.00033854
0.000763054
0.000769944
0.000795758
0.000905726
0.000971356
0.000983829
0.0327263
0.107525
0.0139014
0.000486704
0.000717221
0.000795023
0.000437328
0.000656868
0.00027789
0.00067437
1.31742e-05
0.000467482
0.0018359
0.00183635
0.000722147
0.000959699
0.000281529
0.000798649
0.00100972
0.000818552
1.3832
1.35523
1.37171
1.37586
1.37598
1.39446
1.38159
1.43963
1.43799
1.46912
1.52864
1.4897
1.43394
1.28843
1.28518
1.31235
1.29893
1.3275
1.3253
1.34733
1.3374
1.24315
1.24683
1.2715
1.25513
1.26964
1.27855
0.91976
0.836746
0.761943
0.791128
0.743111
0.656567
0.832688
0.796563
1.03297
1.03246
0.991802
1.04064
1.12378
1.16878
1.03442
1.07979
1.17351
1.16677
1.19167
1.17837
1.21664
1.23472
1.22682
1.22638
1.24401
1.22075
1.23482
1.23948
1.23825
1.22768
0.276957
0.333341
0.522452
0.493452
0.416417
0.502945
0.526703
0.600946
0.268933
0.264739
0.260313
0.175536
0.0102058
0.0556303
0.125373
1.48211
1.49006
1.52081
1.50344
1.52641
1.5472
1.54652
1.53972
1.58095
1.55448
1.57434
1.53666
1.56627
1.5811
1.60044
1.62216
1.63284
1.63112
1.67858
1.68602
1.70444
1.68981
1.5981
1.60409
1.72516
1.71567
0.00016622
0.000334169
0.00101
8.73592e-06
0.000729054
0.0012452
0.00124508
0.000856737
0.000305007
0.000151988
0.000183478
0.00186718
0.0013026
0.000390838
0.000822227
0.000835447
0.00100232
0.000626775
0.00030569
0.000909938
8.63116e-05
0.0493744
0.0908777
0.112842
0.0913057
0.188019
0.272579
0.142973
0.371178
0.30045
0.376068
0.382227
0.468098
0.410137
0.536565
0.559434
0.555559
0.563911
0.682023
0.660878
0.630892
0.677182
0.697055
0.695132
0.687453
0.681808
0.695181
0.691407
0.776234
0.818816
0.852332
0.815703
0.856511
0.882608
1.01901
0.956013
1.04908
1.03324
1.1164
1.19015
1.28055
1.27511
1.31205
1.34937
1.42111
1.4123
1.43159
1.43931
1.46876
1.4742
1.49626
1.48885
1.50031
1.49665
1.48566
1.49553
1.48539
1.48156
0.00099178
0.000921835
0.00104158
0.000722679
0.000959195
0.000657298
0.000566723
0.00114615
0.000724695
0.00125228
0.000328711
0.00083582
0.000295436
0.00125437
0.00125601
0.00125747
0.00125755
0.00125706
0.00125756
0.000324175
0.000371652
0.00100886
0.000717288
0.000938422
0.000788581
0.00100179
0.000888899
0.000997704
0.000180038
0.000954666
0.000624923
0.00101
0.000209386
0.000722194
0.00100863
0.00104746
0.00066929
0.000881619
0.000950265
0.0036158
1.64491e-05
0.000210438
0.00024578
0.00100996
0.000884179
6.53128e-09
0.000975899
0.00100983
0.000279616
0.000848872
0.00100647
0.000131712
0.00100976
0.000959372
0.000188551
0.000986414
0.000975827
0.000988991
0.00363295
0.000980885
0.000769315
0.00098777
0.000847465
0.000776199
0.00112565
0.00112553
0.00112551
0.000896489
0.000943214
0.000888864
0.000973731
0.000935172
0.000927075
0.000961192
0.000874935
0.000897996
0.000947049
0.000951887
0.000925848
1.67713e-05
0.000881191
0.00092376
0.0003855
0.000414352
0.00098456
0
0
0
0
0
0
0
0
0
0
0
0
0
0
0
0