/*--------------------------------*- C++ -*----------------------------------*\
  =========                 |
  \\      /  F ield         | OpenFOAM: The Open Source CFD Toolbox
   \\    /   O peration     | Website:  https://openfoam.org
    \\  /    A nd           | Version:  8
     \\/     M anipulation  |
\*---------------------------------------------------------------------------*/
FoamFile
{
    version     2.0;
    format      ascii;
    class       volScalarField;
    location    "3480";
    object      nut;
}
// * * * * * * * * * * * * * * * * * * * * * * * * * * * * * * * * * * * * * //

dimensions      [0 2 -1 0 0 0 0];

internalField   nonuniform List<scalar> 
526318
(
1.81845e-05
0.000221933
0.000136155
0.00028871
0.000164983
0.0001802
5.75555e-05
9.51217e-05
0.000105164
0.000126428
0.000199986
0.000132098
0.000119056
0.000164157
0.000113015
0.000309479
0.000164233
0.000169587
0.000116217
0.000218147
0.000269364
0.000192079
0.000244002
0.000143893
0.000234487
0.000247132
6.50145e-05
0.000217956
0.000246235
1.16849e-05
0.000170262
0.000119196
4.09643e-05
0.000170509
0.00049005
3.50001e-05
0.000412922
0.000356546
0.000129535
0.000182677
8.93829e-05
0.000257719
9.57439e-05
0.000361169
0.00026554
0.000282668
0.00016843
4.00607e-05
0.000275171
0.000203429
0.000108615
0.000162451
5.01794e-05
8.45647e-05
0.000125471
0.000160023
4.24755e-05
0.000211875
0.000288834
0.000192393
0.000116519
0.000178229
0.000190821
0.000220796
0.000214084
0.000188114
0.000183369
0.000167823
6.80241e-05
1.94846e-05
0.00017775
9.37823e-05
9.54137e-05
7.84423e-05
7.67107e-05
8.13479e-05
1.88714e-05
0.000138449
6.13913e-05
0.000161579
0.000140266
7.34538e-05
2.66786e-05
6.20649e-05
0.000113776
0.000185866
9.79394e-05
0.000134866
5.80588e-05
8.05796e-05
0.000117858
8.60966e-05
3.07586e-05
0.000188368
0.000169244
9.96465e-05
3.03191e-05
4.8756e-06
3.58702e-05
5.20249e-05
0
0
0
0
0.000105333
0
0.000463234
0.000263984
0.000251603
0.000294042
0.000199019
0.000239967
0.000250083
0.000328014
0.000188204
0.00023433
0.000182698
0.000209242
7.39496e-05
4.6394e-05
6.13869e-05
4.05158e-05
9.39516e-05
3.17733e-05
4.58734e-05
3.72819e-05
6.24296e-05
1.40889e-05
5.00292e-05
3.68441e-05
4.82949e-05
4.14572e-05
5.20135e-05
3.83866e-05
4.39388e-05
1.33675e-05
3.21935e-05
1.49082e-05
1.03891e-05
1.11847e-05
2.31676e-05
2.89355e-05
1.74217e-05
3.03706e-05
6.30431e-06
1.12843e-05
3.44489e-05
2.934e-05
2.45257e-05
2.89849e-05
1.2877e-05
5.68725e-05
2.79986e-05
5.27656e-05
3.23412e-05
1.68023e-05
1.3756e-05
1.79006e-05
3.60877e-05
2.68929e-05
7.6772e-05
6.16504e-05
8.34409e-05
0.000199686
0.000184748
6.43474e-05
0.000162074
0.000107455
0.000130025
8.06114e-05
3.57372e-05
5.46437e-05
6.93147e-05
8.93938e-05
2.88263e-05
2.6921e-05
7.34871e-05
0.000116045
4.96533e-05
2.3941e-05
6.05649e-05
9.48969e-05
2.41001e-05
2.95451e-05
9.28488e-05
3.58518e-05
4.03273e-05
3.69539e-05
3.67316e-05
1.20689e-05
5.40306e-05
2.86821e-05
3.38382e-05
1.23623e-05
2.11327e-05
5.20796e-05
3.96343e-05
4.77042e-05
5.56264e-05
6.9255e-06
3.52399e-05
5.35468e-05
5.02183e-05
5.64584e-05
5.36043e-05
3.71106e-05
2.63453e-05
5.3473e-05
8.94248e-05
1.73891e-05
0.000417147
0.000497334
0.000326981
0.000397487
0.000317075
7.41305e-05
0.000268796
0.000205756
0.000136338
8.87463e-05
0.000149254
0.000148264
0.000111942
0.00022005
0.000110181
0.000142945
0.000128061
3.75119e-05
6.33611e-05
0
0
2.95107e-05
9.61672e-05
0
0
0
0
0
0
0.000153226
0.000171166
0.000129291
9.77006e-05
0.000110259
0.000114802
0.000281885
8.87286e-05
9.37626e-05
0.000239917
0.000231426
0.000107924
7.04262e-05
0.000237302
0.000195754
9.14669e-05
9.27945e-05
8.42197e-05
8.99914e-05
3.38549e-06
2.67313e-05
1.1923e-05
0
0
0
0
0
0
0
0.000138182
8.55439e-05
0.000117734
0.000182532
0.000207971
9.59099e-05
0.000296378
0.000124493
0.000279967
0.000197935
0.00015325
0.000113419
0.000282098
2.64483e-05
3.52453e-05
3.95756e-05
1.52304e-05
3.46407e-05
2.96832e-05
1.94546e-05
2.79599e-05
5.2416e-06
2.97592e-05
2.86995e-05
1.95033e-05
4.73264e-05
9.74138e-05
4.85752e-05
1.61602e-05
3.65838e-05
3.42444e-05
5.29549e-05
1.27148e-05
2.98215e-05
3.39337e-05
7.92432e-05
1.04161e-05
0.000111987
3.02505e-05
2.52228e-05
4.56697e-05
3.4003e-05
5.8814e-05
5.36721e-05
6.42136e-06
5.47165e-05
1.80748e-05
2.49101e-05
4.2217e-05
3.46645e-05
1.82728e-05
4.30008e-05
0.000114473
4.58938e-05
0.00021932
6.18774e-05
0.00011715
4.79412e-05
8.75031e-05
0.000129866
9.23231e-06
8.28875e-05
4.39848e-05
7.77206e-05
0.000103694
1.38626e-05
0.00010571
9.61888e-06
3.0768e-05
9.4002e-05
8.37126e-05
1.97191e-05
6.79e-05
3.56302e-05
1.73736e-05
4.12353e-05
1.16545e-05
4.13184e-05
4.22541e-05
1.37895e-05
4.96588e-05
3.77112e-05
4.60144e-05
7.62511e-05
1.20078e-05
8.7653e-05
4.9473e-05
4.38169e-05
2.65895e-05
3.82013e-05
4.7114e-05
4.4096e-05
1.24637e-05
5.13952e-05
7.8139e-05
1.75757e-05
3.3004e-05
1.68783e-05
5.13369e-05
9.71787e-05
7.19889e-05
4.65123e-05
4.70605e-05
2.43966e-05
7.94785e-05
2.77491e-05
3.47828e-05
4.19828e-05
4.16025e-05
0.00020889
0.000104984
9.21752e-05
0.000183504
0.000321782
0.000147341
0.000210406
9.26441e-05
0.000137048
9.48663e-05
0.000109229
3.54248e-05
3.01592e-05
4.34456e-05
6.3476e-05
1.97903e-05
6.21991e-05
7.53844e-05
6.42824e-05
5.27049e-05
5.03338e-05
0.000126941
0
0
1.63201e-05
0
6.67195e-05
2.70655e-05
0
2.88272e-09
0
0
0
0
0
0
0
0
8.72752e-05
0.000145451
9.44793e-05
0.000206325
4.21597e-05
0.00021843
0.000140142
0.000130667
0.000173474
7.79936e-05
0.000256273
0.000193647
0.000143662
0.000107363
6.04503e-05
6.37856e-05
5.10839e-05
7.17365e-05
2.75875e-05
4.03052e-05
4.85359e-05
2.07115e-05
0
1.5193e-09
1.03233e-09
0
0
0
0
0
5.53939e-10
7.53802e-10
0
0
0
0
2.57506e-09
0
0
0
0
0
0
0
2.58221e-05
5.24856e-07
4.58278e-05
6.13592e-05
0.000198358
0.000109532
0.000252664
0.000200246
0.00011068
4.22604e-05
5.48629e-05
0.00021821
0.000160536
6.68568e-05
0.000131107
0.000194239
3.21291e-05
1.0768e-05
2.1024e-05
2.30862e-05
1.60402e-05
3.00924e-05
2.28594e-05
3.30601e-05
2.82945e-05
3.81779e-05
2.03247e-05
5.74731e-05
5.56076e-05
4.1353e-05
0.000110939
6.53593e-06
0.00011326
6.09271e-05
4.61322e-05
5.62621e-05
6.29417e-05
4.7636e-05
5.98684e-05
3.02829e-05
4.26574e-05
3.37725e-05
2.37884e-05
2.67953e-05
1.52198e-05
3.15475e-05
2.17001e-05
0.000110335
3.5336e-05
9.48652e-05
5.09376e-05
0.00011742
8.18507e-05
5.22169e-05
4.52962e-05
3.17349e-05
8.42942e-05
4.64905e-05
5.9677e-05
5.77291e-05
3.36937e-05
0.000107187
6.53013e-05
2.22369e-05
4.59175e-05
3.04851e-05
6.96104e-05
3.46817e-05
7.51135e-06
2.44332e-05
4.17165e-05
4.48491e-05
3.19911e-05
3.59355e-05
0.000122367
6.36847e-05
0.000142414
9.13979e-05
3.48371e-05
0.000101612
0.00010282
3.70366e-05
3.74861e-05
9.23564e-05
1.68354e-05
1.93142e-05
6.34086e-05
5.04292e-05
5.75104e-05
8.36029e-05
6.0114e-05
0.000116844
5.56231e-05
7.41856e-06
8.30631e-05
7.83036e-05
3.47212e-05
5.56979e-05
6.01468e-05
9.2741e-05
3.7616e-05
4.35507e-05
4.32775e-05
7.63207e-05
7.51068e-05
7.30489e-05
8.58411e-05
2.81163e-05
7.97022e-05
3.85731e-05
2.9136e-05
3.46201e-05
0.000106566
3.0006e-05
3.49464e-05
0.000115377
5.84426e-05
0.000111853
5.68234e-05
0.000110981
0.000220243
0.000113101
0.000167538
9.54843e-05
0.000145414
0.000220865
0.000188367
0.000151247
2.34519e-05
2.77774e-05
4.741e-05
8.52444e-05
7.15714e-05
7.19149e-05
2.30088e-06
0.000133845
6.95591e-05
6.81258e-05
9.50593e-05
2.96694e-05
6.90591e-05
1.34802e-05
7.13765e-05
0
0
0
0
5.66801e-05
3.05146e-05
0
0
0
0
0
0
0
0
0
0
0
0
0
0
0
0
0
0
0
0
1.70299e-10
0
0
3.3793e-10
1.25383e-10
2.91073e-10
0
0
0
0
0
0
0
0
0
0
0
0
0
0
0.000244402
5.60357e-05
9.65279e-05
9.02189e-05
0.000112179
4.46005e-05
0.000182121
0.000161887
0.00013866
0.000141713
0.000157022
1.15415e-05
0.000116283
0.000111011
4.13053e-05
7.5507e-05
3.34165e-05
4.84966e-05
3.38828e-05
3.06973e-05
2.4631e-05
2.98491e-05
0
0
0
0
0
0
0
0
0
0
0
0
0
0
0
0
0
0
0
0
0
0
0
0
0
0
7.53784e-09
0
0
0
7.53278e-05
0
3.37143e-05
1.21693e-05
2.76952e-05
0.000112924
4.155e-05
0.000235195
0.000250601
9.13838e-05
0.00014825
9.89335e-05
0.000107999
9.54031e-05
1.54241e-05
0.000107774
0.000144893
6.39636e-05
0
0
0
0
0
0
0
0
0
0
0
0
0
0
0
0
0
1.11218e-05
5.40595e-05
2.38398e-05
7.91254e-05
2.82133e-05
1.94529e-05
1.62313e-05
3.74367e-05
3.93367e-05
3.18937e-05
1.21469e-05
2.94913e-05
0.000117765
9.48673e-05
7.1856e-05
9.95268e-05
8.29637e-05
8.91578e-05
0.000116191
6.84172e-05
8.23032e-06
1.06054e-05
3.83289e-05
5.04161e-05
4.03083e-05
3.48339e-05
4.75766e-05
3.92833e-05
1.29058e-05
1.79154e-05
2.99654e-07
7.06437e-06
0.000115684
0.000218064
0.000209879
0.000134138
0.000180349
7.94885e-05
0.000121971
0.000146955
0.000169619
0.000206699
6.7407e-05
5.9297e-05
7.92565e-05
0.000124091
3.55327e-05
7.65591e-05
5.56645e-05
5.00866e-05
7.90889e-06
1.93561e-05
6.95122e-06
2.53964e-05
9.1652e-06
9.92564e-06
3.49048e-05
6.94284e-06
1.48745e-05
4.81475e-05
3.13767e-05
6.51398e-06
1.44107e-05
9.60866e-05
3.05264e-05
4.87379e-05
0.00013391
7.29874e-05
0.000230962
8.61077e-05
0.000321261
0.000115199
2.44989e-05
3.17599e-05
0.00013756
0.000108359
0.000113165
8.35874e-05
6.85103e-05
7.83386e-05
9.04881e-05
0.0001149
7.25828e-05
4.6599e-05
3.43902e-05
2.35369e-05
4.5103e-05
7.89777e-05
8.38722e-05
8.88527e-05
8.27722e-05
9.12184e-05
9.38735e-05
4.83884e-05
2.70994e-05
6.58266e-05
7.31137e-05
5.04055e-05
0.000122563
2.27724e-05
8.66392e-05
3.64131e-05
0.00010143
0.000147738
0.000111886
2.3037e-05
9.89622e-05
0.000179569
0.000131236
0.000202196
0.000108999
0.000151201
0.000235196
8.16023e-05
0.000206612
0.000179987
0.000302839
0.000307733
0.000297647
0.000281772
0.000272762
0.000297316
0.000276137
0.000308589
0.000375487
0.00030051
0.000281027
0.00028336
0.000308005
0.000241508
0.000292839
0.000260239
0.000239318
0.000226481
0.000246466
0.000160932
0.000243029
0.000126838
0.000186453
4.60631e-05
0.000160108
1.60605e-05
6.39227e-05
3.97034e-05
0.000101563
5.01189e-05
8.30427e-05
5.8101e-05
0.000151587
0.000133652
0.000116776
0.000177423
5.86301e-05
5.62301e-05
2.9448e-05
2.25971e-05
2.96978e-05
5.86479e-05
3.52963e-05
5.9811e-05
2.95566e-05
6.1876e-05
9.84852e-07
7.92577e-06
2.77535e-06
2.23983e-05
6.58245e-06
2.57061e-05
4.4826e-05
0.000189667
1.09666e-05
9.88702e-05
3.43012e-05
2.33728e-05
5.17625e-05
9.84739e-06
0
3.47637e-09
0
0
0
0
0
0
0
0
0
4.8155e-09
0
0
0
0
0
0
0
0
2.06563e-09
0
0
0
0
0
0
0
0
0
0
0
0
0
0
0
0
0
0
2.60362e-09
0
0
6.47087e-09
0
1.85036e-09
0
2.42698e-09
2.47966e-09
1.23613e-09
0
6.17589e-09
4.39739e-09
0
0
2.83536e-09
0
0
0
0
0
0
0
0
0
0
0
0
0
0
4.1809e-09
0
0
6.59198e-05
0.000200477
0.000257974
0.000103243
7.76943e-05
0.000261469
7.02379e-05
0.000280901
0.000124941
5.68895e-05
1.89741e-05
6.24962e-05
9.10796e-05
7.79364e-05
2.93653e-05
2.38582e-05
5.34602e-05
4.47402e-05
2.49907e-05
2.7014e-05
2.9398e-05
1.48442e-05
0
0
1.96605e-09
4.47423e-09
0
0
0
0
0
4.73745e-10
0
0
0
0
0
0
0
0
0
0
0
0
5.17849e-09
3.67621e-09
0
0
0
9.03009e-06
8.26682e-06
8.01305e-05
0.000128991
6.80639e-05
0.00018559
8.74236e-05
0.000148622
0.000107907
9.37578e-05
0.00017484
0.000107946
0.000131238
0.000148891
0.000164591
6.47535e-05
2.86811e-05
7.89349e-10
0
0
0
0
7.68421e-11
0
0
1.00514e-10
0
0
0
0
0
0
0
0
0
0
0
0
0
0
0
4.72099e-09
0
3.90866e-05
3.2745e-05
1.01731e-05
1.19365e-05
3.85846e-05
6.04729e-05
3.1571e-05
1.69435e-05
1.77362e-05
3.45044e-05
2.21727e-05
2.19934e-05
2.4489e-05
7.27705e-06
8.4454e-06
2.88723e-05
6.06954e-05
4.27127e-05
8.24381e-05
8.20346e-05
0
0
5.18341e-06
1.12265e-05
2.139e-05
2.08889e-05
0
0
0
0
1.83106e-08
0
0.000208641
0.000188184
0.000245839
0.000219296
0.000163061
8.54921e-05
0.000222615
0.000153257
0.000290594
0.000306209
0.00031676
0.000285515
0.00027127
0.000229559
0.000285631
0.000261942
0.000198655
0.000215014
8.50794e-05
0.000106209
2.40967e-05
2.79502e-05
4.6901e-05
0.000105992
0.00015122
0.000102604
0.000152101
0.000110284
0.00011293
0.00010303
5.14548e-05
2.74141e-05
0.000103823
0.000152532
9.6088e-05
1.91087e-05
0.000127085
0.000104122
5.47288e-05
6.28875e-05
6.05468e-06
3.13488e-06
5.50787e-06
3.55137e-05
2.76826e-05
1.66129e-05
4.57993e-05
3.17109e-05
7.22134e-05
2.24908e-05
2.18981e-05
1.77032e-05
1.22043e-05
1.94565e-05
1.18094e-05
1.96984e-05
0
0.000214654
0.0001048
0.00015883
9.9585e-05
0.000166643
0.000103436
8.43741e-05
7.111e-05
0.00010424
4.69975e-05
6.09444e-05
5.51614e-05
3.97497e-05
3.36612e-05
1.35097e-05
5.72796e-05
1.61147e-05
7.61241e-05
7.63016e-05
2.40588e-05
7.84931e-05
3.67644e-05
4.31718e-05
8.58047e-05
3.59554e-05
2.76906e-05
2.47005e-05
9.59718e-06
3.51498e-05
0.000100193
3.25005e-05
9.2579e-05
7.89751e-05
0.00015803
8.51696e-05
8.70326e-05
0.000116842
0.000169849
0.000147059
0.000118268
0.000165617
0.000110757
0.000160256
0.000141609
0.000247724
0.000218943
0.000406446
0.000276186
0.000246469
0.00025712
0.000363562
0.000227631
0.000266244
0.000203433
0.000188554
0.000139465
9.07454e-05
0.000125959
8.93198e-05
0.000155189
0.000200297
0.000219144
0.000128449
0.000135557
0.000233743
0.000159802
0.000137201
0.000208311
0.000135535
0.000154869
0.000229335
0.000194187
0.000186522
0.000193378
0.000241594
0.000178635
3.3223e-05
2.74785e-05
1.72367e-05
5.56007e-05
3.6098e-05
5.45231e-05
5.17025e-05
3.56917e-05
0.000167209
4.59466e-05
1.86212e-05
3.21766e-06
5.76926e-06
6.62785e-05
1.00922e-05
0
0
2.41004e-05
0
6.20069e-05
4.25819e-05
5.92075e-05
6.95886e-05
5.90414e-05
9.96479e-05
0
0
0
0
3.49795e-09
2.68049e-09
0
0
0
6.75667e-09
0
0
0
0
0
0
0
7.63957e-09
0
0
0
0
0
0
0
0
1.32141e-10
0
0
0
1.66456e-09
0
0
0
0
0
0
0
0
0
0
0
0
0
0
0
0
5.26296e-09
0
1.70454e-09
0
0
0
0
0
0
0
0
0
0
0.000157918
9.70117e-05
7.47518e-05
0.000127732
0.000147093
0.000110787
3.65996e-05
0.000146034
0.000170749
3.44184e-06
5.05605e-05
5.04825e-05
3.4494e-05
7.98613e-05
4.58486e-05
2.95836e-05
1.98608e-05
3.63913e-05
6.14515e-05
5.21206e-05
4.39125e-05
3.15775e-05
1.03664e-09
0
5.59836e-10
0
0
0
0
0
0
0
0
0
0
0
0
0
0
0
0
0
0
0
0
5.24704e-09
0
0
3.28599e-05
1.69766e-05
3.86477e-05
3.67121e-05
0.00012896
0.000121172
9.84428e-05
0.000122914
0.000107787
0.000106414
2.14816e-05
3.48695e-05
8.50128e-05
0.000109077
0.000144821
8.4116e-05
0.000158599
4.37784e-05
0
0
0
0
0
0
0
0
0
0
0
0
1.49627e-09
0
0
0
0
0
0
3.99396e-10
0
5.24681e-10
0
0
0
0
0
0
0
0
0
9.5919e-06
1.03878e-05
5.29682e-05
2.87944e-05
1.36013e-05
1.89203e-05
2.64448e-05
1.03913e-05
4.67513e-05
3.03078e-06
3.54993e-05
1.47702e-05
3.2197e-05
0
0
1.24682e-05
1.60948e-05
1.57828e-06
8.87635e-06
6.30981e-05
4.06762e-05
2.71626e-05
6.04045e-05
0
0
0
1.06843e-05
0
0
0
0
0
0
0
0
0.000241489
0.000174098
0.000239828
0.000297344
0.000255992
0.000242533
0.000224006
0.000288296
0.000202148
0.000296127
0.000191547
0.000273955
0.000103632
0.000223812
0.00025044
0.000229769
0.000187843
0.000184535
0.000247361
0.000227942
0.000206518
0.000208274
0.000263617
0.000260831
0.000218159
0.000252231
0.000203546
0.00024934
0.000290273
8.21904e-05
0.000151055
0.000154771
0.000109693
0.000192611
0.000159746
0.000259663
0.000216932
0.000242705
0.000180339
4.44269e-05
0.000174241
0.000272085
0.000193325
0.000365806
0.000324567
0.000363206
0.000324542
0.000292118
0.000251541
0.000247741
0.000175077
0.00017924
0.000138588
9.11435e-05
3.49932e-05
5.04935e-05
6.75413e-05
8.31845e-05
7.59485e-05
8.29624e-05
0.000148965
9.92329e-05
6.27706e-05
7.92966e-05
0.000114738
8.74507e-05
9.97092e-05
0.000104631
0.0001418
4.70593e-05
0.000141392
3.08119e-05
9.1947e-05
2.16149e-05
0.000303896
0.000226748
0.000274772
0.000284988
0.000203662
0.000231421
0.000268007
0.000289245
0.000261177
0.000256039
0.000244984
0.000205719
0.000248954
0.00018208
0.000253032
0.000267335
0.000187221
0.000267918
1.21313e-05
6.47074e-07
9.71736e-06
6.44187e-05
2.67132e-05
9.1521e-05
5.07256e-05
5.74279e-05
9.66174e-06
3.00502e-05
2.64318e-05
1.3103e-05
0
0
0
0
0
0
0.000138978
9.75195e-05
0
3.74083e-05
0.000139017
6.6415e-05
0.000117717
5.37239e-05
5.40062e-05
4.1256e-05
5.23256e-05
9.72256e-05
6.23666e-05
4.24294e-05
7.40777e-06
8.15673e-05
5.69977e-05
3.15609e-05
7.2424e-05
8.78345e-05
4.42623e-05
9.12405e-05
3.67993e-05
4.60704e-05
6.63551e-05
5.29747e-05
2.88484e-05
0.000114151
3.3334e-05
7.79807e-05
0.00011205
0.000106832
0.000134844
5.10286e-05
1.7327e-05
5.68225e-05
8.56841e-05
0.000156873
0.000151151
0.000100779
0.000158177
0.000166114
0.000213926
0.000346967
0.000244495
0.000250664
0.000259627
0.000357885
0.000212481
0.000281314
0.000168149
0.000195341
7.83117e-05
9.86699e-05
9.41974e-05
0.000114402
0.000182913
0.000215885
0.000238248
0.000272356
0.000206466
0.000239993
0.000247427
0.00022257
0.000252399
0.000213198
0.000243556
0.000160382
4.49147e-05
0.000100015
2.00109e-05
1.13796e-05
4.69714e-05
1.40965e-05
0.000128742
6.59106e-05
0
7.16704e-06
0
0
2.23455e-07
1.05454e-05
0
0
0
0
2.41338e-05
0
0
0
0
0
0
0
0
2.21154e-09
2.35344e-09
3.7492e-09
0
1.60078e-11
0
0
0
0
0
0
0
0
0
7.99513e-09
0
0
0
0
0
0
0
0
2.63424e-07
0
1.45337e-09
0
0
0
0
0
0
0
0
0
0
9.37152e-10
0
0
2.37707e-09
0
0
0
0
0
0
0
0
0
0
0
0
0
0
0
0
0
0
0
0
0
3.81763e-09
0
0
0
0
5.21788e-09
0.000283161
0.000302506
0.000124001
0.000249855
0.000341319
0.000322085
0.000206107
5.14931e-05
0.000158899
0.000184484
0.000199087
0.000189632
0.000116907
0.000232373
6.38998e-05
0.000119385
2.02783e-05
4.71821e-05
6.12646e-05
5.9975e-05
6.85175e-05
1.0978e-05
2.35201e-05
6.57065e-05
4.89155e-05
0
0
0
0
0
0
0
0
0
0
0
0
0
2.67966e-05
1.32001e-05
3.38997e-05
0
0
0
0
0
0
0
0
0
0
0
8.65639e-05
2.09156e-05
0.000111645
0.000120731
8.67336e-05
7.39514e-05
0.000275404
6.41477e-05
0.000153474
5.10943e-05
0.000170101
7.82249e-05
7.51594e-05
5.84345e-05
4.88829e-05
0.000141396
0
8.46532e-10
0
0
0
0
0
0
0
0
0
0
0
0
0
0
0
2.03261e-09
0
4.64279e-09
0
0
0
0
0
0
0
0
0
0
1.32346e-09
0
0
0
0
0
0
1.86949e-05
2.94309e-05
2.48042e-05
3.69407e-05
4.46906e-05
5.38842e-05
1.56624e-05
1.33776e-05
9.21951e-06
0
0
3.07296e-05
3.18323e-05
0
0
0
2.3934e-09
3.7936e-07
0
4.43655e-06
0
9.36581e-06
8.58334e-06
5.94478e-06
1.48238e-05
0
0
0
0
0
0
0
0
0
0
0
0
0.000206142
0.000251135
0.000251619
0.000183652
0.000459219
0.000296141
0.000197568
0.00045123
0.00019066
0.000243961
0.000231278
0.000265134
0.000259348
0.00020991
0.000231646
0.00021233
0.000115492
9.70044e-06
0.00011729
0.000129928
0.000189017
0.000252714
0.000316657
0.000249884
0.000168091
0.000237042
0.000188937
6.24348e-05
0.000267791
0.000282874
0.000427575
0.000316221
0.000346342
0.00039279
0.000341207
0.00020814
0.000366256
0.000430197
0.000275928
0.000219974
0.000152345
0.000126123
7.50655e-05
8.36016e-05
6.26103e-05
4.71571e-05
9.29224e-05
5.8423e-05
0.000118557
3.85592e-05
0.00015253
0.000158823
8.81156e-05
8.75377e-05
5.42334e-05
8.27094e-05
6.43972e-05
8.53015e-05
5.1905e-05
6.73728e-05
0.000168797
0.000104353
9.25224e-05
8.46456e-05
9.29961e-05
0.000326509
0.000256474
0.000264017
0.000299638
0.000238861
0.000234797
0.00030553
0.000255662
0.00027813
0.000241276
0.00025024
0.000256934
0.00026738
0.000303481
0.00019978
0.000186005
0.000285004
0.000336714
0.000301886
0.000310098
0.000274027
0.00030649
0.000292227
0.000388225
0.000303168
7.44829e-06
1.17266e-05
3.75525e-06
0
2.23813e-05
8.2657e-05
0
0
0
0
0
0
0
3.43087e-09
0
1.56753e-09
0
0
3.95634e-05
0
1.47604e-09
9.34287e-05
7.8729e-05
3.51751e-05
0.000135073
8.11468e-05
2.84896e-05
0.000137046
5.70972e-05
5.02966e-05
6.95109e-05
0.000115657
9.94509e-05
9.49242e-05
0.000134235
5.7063e-05
8.71557e-05
4.3952e-05
0.00016035
0.000108969
0.000105933
2.26957e-05
0.00010851
2.77783e-05
0.000147388
0.000165942
0.000174894
0.000113914
5.62077e-05
8.35033e-05
7.92989e-05
7.67704e-05
4.47614e-05
0.000122033
6.6237e-05
0.000178932
0.000158413
0.000205031
0.00021806
0.000219713
0.000266459
0.000225836
0.000315558
0.000185858
0.00028129
0.000224981
0.00015838
0.000121088
0.000115269
9.92609e-05
9.50545e-05
0.000163279
0.000185216
0.000255341
0.000233326
0.000311198
0.000217398
0.000209736
0.000251829
0.000220837
0.000235402
0.000234785
0
0
0
0
3.85031e-05
1.16356e-05
1.49445e-05
6.98355e-07
3.45367e-06
0
0
0
0
0
0
0
0
0
0
0
0
0
0
0
0
0
0
0
3.55022e-09
1.28658e-09
0
0
0
0
0
0
0
0
0
0
0
0
1.34918e-07
0
0
0
0
0
0
0
0
2.63556e-06
0
0
0
3.87563e-09
1.3845e-09
0
0
0
0
0
0
0
5.33119e-10
3.18567e-10
0
0
8.09629e-09
1.38997e-09
0
0
0
0
3.46637e-09
0
5.59331e-09
0
0
0
0
0
1.49628e-09
1.24599e-09
0
0
0
0
0
0
0
0
0
0
1.67259e-09
0
0
0
0
0
0
0
0
0.000294154
0.000289774
0.000274818
0.000215497
0.00029776
0.000338512
0.000357991
0.000371794
0.000263643
0.0004015
0.000147591
2.98869e-05
0.000165166
1.82529e-05
7.02957e-05
0.000204833
4.7927e-05
0.000152981
6.04221e-05
2.29784e-05
2.37014e-05
4.37388e-05
3.19298e-05
3.67126e-05
1.12214e-05
3.59625e-05
1.97203e-05
0
0
0
0
0
0
0
1.70703e-05
2.48647e-05
3.43808e-05
0
0
0
0
0
0
0
0
0
1.34535e-10
0
0
0
0
0
0.000220738
8.08579e-05
0.000141826
9.51203e-05
3.44566e-05
9.24571e-05
9.68101e-05
0.00012781
8.54048e-05
0.000200322
9.77337e-05
6.80831e-05
9.07144e-05
0.000149375
1.62902e-05
6.61419e-05
0
0
7.13577e-10
2.91189e-09
0
0
2.94348e-09
7.00095e-10
0
0
0
2.12805e-09
0
0
0
1.20429e-08
1.39393e-08
4.93937e-09
0
0
0
2.57114e-09
0
0
0
2.54849e-09
0
0
0
0
0
6.18258e-09
0
0
0
0
0
0
0
0
0
0
0
0
0
3.37962e-05
2.70067e-05
2.01713e-05
1.58193e-05
5.09022e-05
1.82275e-05
3.97753e-05
7.07656e-06
4.2777e-06
0
0
1.36973e-09
2.41345e-09
9.25994e-06
3.06935e-06
0
0
0
0
0
0
0
0
1.97354e-05
1.04868e-05
5.49376e-05
1.7442e-05
0
0
0
2.90694e-09
0
0
0
0
0
0
0
2.56749e-09
0.000198069
0.000241994
0.00021581
0.000293149
0.000367961
0.000245326
0.000495446
0.000646363
0.000740593
0.000235219
0.00016546
0.00027995
0.000178966
8.18301e-05
0.000213231
0.000269129
0.000242382
0.000305141
0.000247591
0.000312914
0.000260951
0.000339529
0.000117915
0.000138948
0.0001991
0.000210471
0.000244135
0.000223443
0.000313664
0.000345619
0.000159374
0.000200881
0.000150915
0.000209611
0.000271313
0.000243156
0.000410672
0.000336969
0.000360042
0.0003899
0.00029957
0.000141188
0.000238362
0.000353285
0.000140572
0.000180049
3.06276e-05
0.000124465
5.38487e-05
6.7309e-05
0.000120243
5.26195e-05
0.000320947
0.000388097
0.000253886
0.000159639
0.000483279
0.000386723
5.82677e-05
9.73048e-05
6.55996e-05
0.000137173
0.000140709
7.5371e-05
0.000128173
0.000166216
0.000124228
6.70007e-05
5.01912e-05
5.71637e-05
0.000224962
0.000246093
0.000229225
0.000294443
0.00027629
0.000277499
0.000256314
0.000287657
0.000309455
0.000275306
0.000207338
0.000220365
0.000228328
0.000185657
0.000239256
0.000184131
0.000306857
0.000291606
0.000239625
0.000297863
0.000235998
0.00031795
0.000249416
0.000352381
0.000248008
0
0
0
0
0
0
0
0
2.16167e-09
0
0
0
0
0
0
0
1.86679e-09
0
0
0
0
8.81879e-06
5.08983e-05
5.62953e-05
0.000149449
8.62587e-05
4.45331e-05
3.44778e-05
1.58055e-05
9.95869e-05
8.65911e-05
0.000131183
4.72475e-05
0.000110025
9.79413e-05
0.000113674
0.000202813
6.13614e-05
0.000163844
0.000100206
0.000107421
0.000147812
0.000116897
6.23086e-05
0.000112516
5.69542e-05
7.57277e-05
6.49394e-05
3.34232e-05
0.000194641
5.85194e-05
0.000178421
0.000115905
0.000196399
0.000217029
0.000159596
0.000216802
0.000256724
0.000200089
0.000248281
0.000202192
0.000269582
0.000174569
0.000219836
0.000141484
0.000148574
0.000132467
0.000126214
0.000169038
0.000133987
0.000175223
0.000240962
0.000207261
0.000198374
0.000264849
0.000200681
0.000160405
0.000249203
0.000215255
0
0
8.97833e-07
1.06812e-10
0
0
0
0
0
0
0
7.89562e-10
0
2.17339e-09
1.70084e-09
3.79284e-09
1.21374e-09
0
6.71851e-09
3.7405e-06
0
0
0
3.10761e-09
0
7.79239e-10
5.16912e-09
0
0
0
0
0
0
0
5.92606e-09
1.72152e-09
0
0
0
0
0
0
9.05439e-08
0
0
0
0
0
0
0
0
0
0
0
0
0
0
0
0
0
0
0
0
0
0
0
0
0
0
0
0
0
0
0
0
0
0
0
0
0
0
0
5.78817e-09
0
0
0
0
0
0
0
0
0
0
0
0
0
0
0
0
0
0
0
0
0
0
0
0
0
0
0
0
0
1.04875e-09
0
0
0
0
0.00031236
0.000316314
0.000154604
0.000273868
0.000348948
0.00022007
0.000219755
0.000326534
0.00032691
0.000319087
0.000299309
0.000293957
0.000297554
0.000265574
0.00060704
4.19272e-05
0.000192336
0.000280782
0.000105681
0.000131282
0.000125913
5.45373e-05
3.41283e-05
3.623e-05
3.80712e-05
3.17538e-05
3.509e-06
3.65235e-05
4.6005e-05
0
0
0
2.60198e-09
1.77751e-05
5.46899e-05
1.22106e-05
0
0
5.7704e-06
0
0
0
0
1.03357e-09
0
0
0
5.84366e-10
0
3.77267e-10
0
0
0
9.77698e-05
0.000175273
0.000160404
0.000157395
0.000175185
5.45853e-05
2.06519e-05
6.49808e-05
4.3361e-05
7.58064e-05
1.72297e-05
6.2475e-05
6.17129e-05
5.10078e-05
3.78597e-05
5.5563e-05
0
1.0339e-09
0
0
0
0
0
6.35162e-11
0
0
4.17849e-10
0
0
0
0
0
0
0
0
5.07743e-11
0
0
0
0
0
0
0
0
0
0
0
0
0
0
0
0
0
0
3.82399e-10
5.24205e-09
0
0
0
0
0
0
0
0
0
0
0
0
0
0
0
0
0
3.35033e-05
3.27438e-05
2.9043e-05
2.02757e-05
1.07728e-05
0
0
0
0
0
4.03776e-08
0
0
0
0
0
0
0
0
0
0
1.37849e-05
0.000100901
3.2859e-06
0
0
0
0
0
0
0
0
0
8.63998e-10
3.47947e-09
0
0
0
0
0
0
0.000253231
0.000141712
0.000336014
0.000384737
0.00083515
0.000369645
0.000548545
0.000168882
0.000144342
0.000524848
0.000241531
0.000217622
0.000247129
0.000265555
0.000255907
0.000276936
0.000261209
0.000310133
0.000279414
0.000196239
0.000279133
0.000177332
0.000147706
0.00018925
0.0003037
0.000201442
0.000204709
0.00033457
0.00033923
0.000206251
0.000214679
0.000195943
0.000214691
0.000302943
0.000282778
0.000349314
0.000326837
0.000396382
0.000368261
0.000217158
0.000140258
0.000287617
0.000234568
0.000106634
7.28874e-05
3.71469e-05
7.86396e-05
5.88118e-05
4.62463e-05
0.000186378
0.000288918
0.000289972
0.000182423
0.000228685
0.000253449
0.000287489
0.000207425
6.50623e-05
9.86504e-05
3.10625e-05
8.40307e-05
3.34644e-05
4.76364e-05
0.0001517
0.000156853
6.8087e-05
9.31733e-05
0.000109867
3.15046e-05
6.57685e-06
4.34039e-05
1.72264e-05
0.000243542
0.000196872
0.000195386
0.000293228
0.000340152
0.000200599
0.00017581
0.0003201
0.000303466
0.000301362
0.000190726
0.000281464
0.000276918
0.000193181
0.000295741
0.00022026
0.000208313
0.000280922
0.000213165
0.000269749
0.000260446
0.000185804
0.000228872
0.000307488
0.000231099
0.000224191
0
0
0
0
0
2.20403e-09
4.47494e-09
0
0
0
0
4.28841e-09
2.21729e-09
0
0
0
0
0
0
0
0
3.37651e-05
2.01463e-05
4.52137e-05
2.77636e-05
0.000103601
5.6669e-05
3.62659e-05
4.53119e-05
9.62765e-05
8.09315e-05
6.59873e-05
9.19179e-05
0.000113887
0.000149158
6.11107e-05
4.09894e-05
0.00018243
5.9178e-05
0.000121512
0.00015646
9.12915e-05
4.18606e-05
6.71645e-05
5.506e-05
8.1678e-05
0.00014781
2.3383e-05
0.000131054
0.000103627
0.000154197
0.000156308
0.000170212
0.000169157
0.000232091
0.000163607
0.000165265
0.000266988
0.000171066
0.00027161
0.000179025
0.00020378
0.000178909
0.000155969
0.000126328
0.000197381
0.000193147
0.000139641
0.000139002
0.000200943
0.000166868
0.000204022
0.000143396
0.000181621
0.000200104
0.000176489
0.000206124
0.000210661
0
0
3.55523e-09
0
0
0
0
9.57271e-09
0
3.94114e-09
0
0
0
1.55471e-09
3.59589e-09
3.83394e-09
2.82083e-09
1.6236e-09
4.64809e-09
0
0
0
0
0
0
0
0
0
0
0
0
0
0
0
0
4.48034e-09
0
0
0
3.44546e-07
0
0
0
0
0
0
0
0
0
0
0
0
0
0
0
0
0
0
1.97296e-07
0
0
0
0
0
9.33954e-10
2.34136e-10
1.1903e-09
0
0
0
0
0
0
0
0
0
0
0
0
0
0
0
0
0
0
0
0
0
0
0
0
0
0
0
0
0
0
0
0
0
0
0
0
0
0
0
1.16436e-09
0
8.81012e-09
0
3.26669e-10
0
0
1.01369e-09
4.18616e-09
0
0.000256572
0.000128057
0.000318328
0.000337701
0.000142395
0.00035078
0.000177606
0.000277107
0.000285432
0.000326241
0.000334719
0.000295308
0.000356659
0.000218724
0.000145702
0.0003473
9.50557e-05
0.000209433
0.000306463
1.93359e-05
0.000153429
8.85981e-05
6.72532e-05
2.62142e-05
7.43227e-06
7.50019e-05
3.67676e-05
2.69713e-05
1.58362e-05
2.88775e-05
3.44851e-05
1.23081e-05
3.31818e-05
0
0
7.58046e-05
5.56577e-05
2.03361e-05
0
0
3.0218e-06
1.80287e-06
0
0
0
0
0
0
0
0
5.14437e-09
0
0
3.53703e-09
0
0
0
4.66084e-05
8.41487e-05
0.000100319
4.40009e-05
3.1899e-05
5.85499e-05
6.84433e-05
4.17855e-05
4.8489e-05
6.59715e-05
5.17388e-05
8.28935e-05
3.09969e-05
0
0
0
0
0
0
1.68443e-09
1.96344e-09
0
0
1.32154e-09
0
0
0
0
0
0
3.55845e-07
0
0
0
0
0
0
0
0
0
0
1.94765e-08
0
0
0
0
0
0
0
0
0
0
0
0
0
0
0
0
0
0
0
0
0
0
7.52462e-09
0
0
0
0
0
0
0
0
0
0
0
1.86067e-05
1.13735e-05
3.35346e-05
2.85079e-07
1.06992e-07
0
0
0
7.7473e-07
0
0
0
0
0
0
0
0
0
0
0
0
0
0
0
3.50625e-07
0
0
0
5.15992e-07
3.86408e-05
1.08195e-05
0
0
0
2.04858e-09
0
0
0
0
0
0
0
0
0.000634276
0.000359843
0.000443016
0.000193748
0.00127075
0.000559279
0.000267743
0.000115988
0.000173586
8.16372e-05
0.000131195
0.000135226
0.000124209
2.53822e-05
0.000244352
0.000224663
0.000269122
0.000293113
0.000309879
0.000323508
0.000571969
0.000262257
0.000154815
0.000142205
0.000221709
6.46834e-05
0.000127415
0.000124764
0.000404261
0.000344099
0.000249619
0.000302212
0.000237716
0.000155035
0.000238141
0.000393057
0.000355164
0.000362874
0.000413693
0.000423045
0.000153067
0.000185866
0.000276138
0.000290966
5.19069e-05
0.000146956
1.6844e-05
0.000157083
0.00029014
0.000353694
0.000536808
0.000672756
0.000412531
0.000498473
9.73613e-05
0.000202329
7.2767e-05
0.000101576
5.91218e-05
1.52326e-05
6.00933e-05
3.41406e-05
6.50149e-05
8.92519e-05
0.000128204
9.54755e-05
6.79099e-05
8.38655e-05
5.73444e-05
5.00934e-05
5.63387e-05
2.13942e-05
0.000236777
0.000220677
0.00035881
0.000225429
0.000272701
0.000228434
0.000319029
0.00028493
0.00028633
0.000214993
0.000287725
0.000229597
0.000300703
0.000327278
0.00023259
0.000195773
0.000266953
0.00011917
0.00023172
0.000197011
0.000182871
0.00024877
0.000294638
0.000290096
0.000183463
0
0
0
0
0
0
0
0
0
4.90744e-09
0
0
0
0
0
0
4.42497e-09
0
0
0
0
1.27321e-05
1.00098e-05
7.76422e-05
8.67842e-06
3.62996e-05
6.89243e-05
2.20367e-05
1.04154e-05
2.6566e-05
8.42009e-05
0.000152737
9.16082e-05
0.000146487
0.000113283
1.25308e-05
0.000102905
5.9391e-05
0.000200288
4.65101e-05
0.00011134
0.0002014
6.29864e-05
3.88971e-05
1.45312e-05
0.000149907
0.000169291
1.48532e-05
0.000158238
0.000102546
0.000161531
0.000237014
0.000138653
0.000204116
0.000199805
0.000234078
0.000249972
0.000210011
0.000195262
0.000237283
0.000112603
0.00020364
0.000221811
8.35587e-05
0.000197574
0.000171529
0.000116157
0.000181501
0.000157893
0.000141103
0.000201877
0.000160628
0.000139063
0.000214066
0.000251569
0.000173841
0.000239523
0.000233587
0
0
0
0
0
0
0
0
0
0
0
0
0
0
0
0
0
1.05949e-08
0
0
1.84505e-08
0
0
0
1.56131e-10
0
0
0
0
0
1.30894e-10
0
0
0
0
0
0
0
0
0
0
0
0
0
0
0
2.19452e-09
5.43148e-09
9.09192e-10
0
0
0
0
1.05351e-09
0
0
1.33563e-09
0
0
0
0