/*--------------------------------*- C++ -*----------------------------------*\
  =========                 |
  \\      /  F ield         | OpenFOAM: The Open Source CFD Toolbox
   \\    /   O peration     | Website:  https://openfoam.org
    \\  /    A nd           | Version:  8
     \\/     M anipulation  |
\*---------------------------------------------------------------------------*/
FoamFile
{
    version     2.0;
    format      ascii;
    class       volScalarField;
    location    "18060";
    object      alpha;
}
// * * * * * * * * * * * * * * * * * * * * * * * * * * * * * * * * * * * * * //

dimensions      [0 0 -1 0 0 0 0];

internalField   nonuniform List<scalar> 
526318
(
0.000170219
0.000303173
0.00021157
0.00021746
0.000249622
0.000195612
0.00021444
0.000277543
0.000229925
0.000244619
0.000422767
0.000275711
0.000455568
0.000221953
0.000244221
0.000283048
0.000449712
0.000135133
0.000216595
0.000114895
6.8079e-05
0.000218438
0.000115191
0.000122168
0.000202592
0.000245352
0.00015591
0.000212374
0.000188745
0.00018473
0.000186238
0.000160805
0.000117844
0.000301136
0.000223526
0.000331458
0.000253214
0.000191738
0.000184005
6.77522e-05
0.000264579
0.000343083
0.000325443
0.000105229
0.000112464
0.000270418
0.000481041
0.000362711
0.000270978
0.000391099
0.000284618
0.000402993
0.000290947
0.000465684
0.000568913
0.000124805
0.000422623
0.000145748
0.000166013
0.000105501
0.00025498
0.000238761
0.000234201
8.07668e-05
8.28577e-05
0.000113887
0.000123465
0.000303622
0.000221777
0.000215478
0.000232908
0.00023907
0.000331776
0.000227039
0.000422572
0.000258046
0.000299959
0.000289873
0.000336698
0.000386745
0.000306188
0.000364495
0.000320721
0.000330429
0.000396222
0.000248733
0.000356802
0.000353112
0.000364163
0.000275881
0.000368234
0.000290703
0.000310786
0.000275126
0.00044749
0.000327733
0.000441645
0.000261888
0.000355554
0.000302945
0.00148853
0.00191177
0.00173155
0.000779752
0.000743039
0.00176843
0.000291789
0.000495017
0.000209924
0.000125077
0.000135638
8.81488e-05
7.54719e-05
0.000135019
0.000152352
0.000127759
0.000137665
7.03001e-05
0.000133765
0.000314675
0.000312173
0.00031526
0.000285597
0.000300229
0.000273807
0.000316296
0.00031939
0.000299292
0.000302095
0.000321399
0.000321625
0.000293586
0.000296303
0.000270251
0.000283576
0.000256459
0.000277512
0.000271234
0.000282718
0.000237289
0.000261695
0.000268557
0.000257291
0.000208379
0.000240451
0.000240823
0.000257072
0.000293676
0.000231
0.000274336
0.000234758
0.000233093
0.000301933
0.000272711
0.00029901
0.000256002
0.000373629
0.000186602
0.0002517
0.000291073
0.000345425
0.000300199
0.000298539
0.000181545
0.000139758
0.000251592
0.000127084
0.000433419
0.000327509
0.00030456
0.000418808
0.000367813
0.00048455
0.000423768
0.000374365
0.00055575
0.000417027
0.000435514
0.000580542
0.000366588
0.000341726
0.000287966
0.000347161
0.000361134
0.000325024
0.000341355
0.000369673
0.000305922
0.000331676
0.000290098
0.000294604
0.000271428
0.000286382
0.000232583
0.000251688
0.0002695
0.000198609
0.000240979
0.000310969
0.000320384
0.000287767
0.000333886
0.000295256
0.000310804
0.000327745
0.000260561
0.000339825
0.00033659
0.000297019
0.000312978
0.000167392
0.000335737
0.000170894
0.000180835
0.000123996
7.66815e-05
0.000123224
0.000474791
0.000369274
0.000714649
8.06838e-05
0.000670065
0.000261723
0.000272335
0.000632468
0.000704356
0.000403917
0.000319635
0.000772644
0.00112598
0.000907255
0.000196903
0.000623873
0.00599
0.0184317
0.00492367
0.00218198
0.00305496
0.00183269
0.000202636
0.000227977
0.000128768
7.85488e-05
0.000133991
0.00015195
0.000241945
0.000277867
0.00028245
0.000227563
0.000321489
0.000237673
0.000291358
0.000302635
0.000285794
0.000257677
0.000324394
0.000246938
0.000351447
0.000326883
0.000364134
0.000277081
0.0162814
0.0869403
0.0041592
0.00775438
0.00137236
0.00236669
0.00196951
0.000814437
0.000222824
0.000653832
0.000147227
0.000105283
0.000128073
0.000128507
6.72768e-05
8.49329e-05
0.000158971
6.01239e-05
0.000186109
0.00021658
0.000312899
0.000298497
0.00029146
0.000291091
0.000277422
0.000299442
0.000245273
0.00028018
0.000251101
0.000241714
0.000256099
0.000240052
0.000352498
0.000345135
0.000454084
0.00036869
0.000372367
0.000431731
0.000436459
0.00045571
0.000424366
0.0003667
0.000373549
0.000359911
0.00039473
0.000238694
0.000299964
0.000309137
0.000267564
0.000283685
0.00030174
0.000338388
0.000342955
0.000328421
0.000333337
0.00045597
0.000408746
0.000510023
0.000446103
0.00021552
0.000246094
0.000343044
0.000354652
0.000342794
0.000458975
0.000469643
0.000265264
0.000470436
0.000427978
0.000565678
0.000592172
0.000525007
0.000704598
0.000407077
0.000506456
0.000484
0.000322455
0.000414294
0.000424063
0.000380842
0.00040917
0.000328488
0.000358921
0.000280399
0.000282091
0.000309832
0.00026534
0.000243264
0.000270583
0.00023054
0.000205064
0.000269851
0.000182071
0.000217621
0.000323618
0.000256595
0.000304216
0.00028688
0.000269658
0.000280333
0.000260637
0.000296632
0.0002933
0.000282642
0.000289124
0.000305987
0.000326882
0.000401883
0.000397123
0.000363008
0.000325428
0.00034429
0.000398413
0.000411399
0.000418348
0.000375483
0.000325706
0.000290372
0.000623376
0.000326806
0.000234461
5.44933e-05
0.000145895
0.0001177
0.000199894
0.000487708
0.000315943
9.29622e-05
0.00068209
0.00130274
0.00100945
0.00036432
0.000296955
0.000911498
0.000283843
0.000730315
5.02674e-05
0.00057872
0.00077482
0.00171375
0.00132595
0.00105388
0.000745013
0.00127497
0
0.0436536
0.294013
0
0
0.0402667
0.011352
0.00380575
0.00382811
0.00341144
0.000169499
0.000188411
0.00013604
0.000123607
0.000206788
0.000116595
0.00016158
0.000230428
0.000254284
0.000331805
0.000186538
0.00025714
0.000299918
0.000327613
0.000272098
0.000304128
0.000308207
0.000249021
0.000255611
0.000305036
0.000302175
0.000332494
0
0.00224315
0.000226751
0
0
0
0
0.000332521
0.00211615
0.00161401
0
0
0
0
0
0
1.47596
0.0357094
0.0275344
0.00452157
0.00178053
0.00174613
0.0011284
0.00152947
0.000731517
0.00149589
0.000564406
0.00014156
7.56692e-05
0.00011062
0.000151958
7.91717e-05
8.53502e-05
0.000148941
0.000122508
0.000128326
7.52043e-05
0.000185581
0.000296378
0.000296514
0.000250359
0.000291424
0.000277873
0.000234375
0.000225019
0.000261245
0.000248734
0.000268997
0.00031097
0.000305163
0.000378538
0.000361764
0.000402697
0.000496977
0.000383753
0.000658114
0.000551975
0.000489166
0.000486598
0.000320481
0.000305427
0.000355056
0.00030947
0.000367215
0.000267799
0.000362543
0.000224227
0.000257889
0.000378026
0.00045355
0.000437364
0.00049189
0.000479895
0.000496252
0.000433831
0.000426216
0.00043246
0.000449774
0.000369702
0.000417803
0.000432848
0.000456486
0.000599712
0.000465234
0.000440433
0.000345932
0.000227129
0.00049172
0.000398584
0.000336242
0.000442999
0.000499064
0.000340271
0.000662892
0.000393277
0.000799941
0.000642252
0.000692847
0.000489565
0.000516969
0.000491818
0.000474526
0.00052062
0.000559142
0.000450818
0.000386718
0.000328178
0.00025529
0.000287124
0.00024558
0.000333724
0.000238135
0.000290301
0.00021751
0.00025127
0.000233239
0.000174977
0.00018786
0.000298106
0.000317278
0.000224703
0.000285057
0.000238885
0.000258037
0.00027763
0.000235156
0.000264879
0.000279547
0.000296375
0.000292643
0.000267036
0.000334494
0.000320378
0.000331602
0.000351183
0.000337079
0.00032951
0.000388773
0.00043667
0.000404342
0.000383201
0.000368635
0.000374422
0.0003282
0.000482151
0.000711318
0.00027045
0.00012241
0.000192668
0.000547591
0.000157362
0.000502324
0.000201492
0.000303714
0.000712063
0.00154589
0.000471375
0.0012586
0.000355435
0.000940965
0.000268434
0.000403119
0.000923815
0.000860066
0.000511271
0.00214982
0.00351167
0.00208141
0.00211624
0.00223049
0.000423102
0
0
0
0
0.453062
0
0.0051496
0.0318647
0.00493578
0.00489611
0
0
0
0
0
0
0
0
0
0
0.00691514
0
0
0.00230109
0.00279065
0.00735318
0
0
0
0
0
0
0
0
0
0
0
0
0
0
0.000152032
0.000160106
0.000161928
0.000111121
0.000268304
0.000126295
0.000227946
0.000195393
0.000303102
0.000323178
0.0002605
0.000290521
0.00025977
0.00025936
0.000237891
0.000241278
0.000263809
0.000240939
0.000282253
0.000214349
0.000256492
0.000289183
0
0
0
0
0
0
0
0
0
0
0
0
0
0
0
0
0
0
0
0
0
0
0
0
0
0.171682
0.00630434
0.0053701
0.00463069
0.00155057
0.00091689
0.000993407
0.000485683
0.00118122
0.000463256
0.000856434
4.40869e-05
0.000381112
6.57934e-05
8.32992e-05
2.88731e-05
0.000122181
0.000125989
5.39015e-05
0.000119219
5.30507e-05
0.000193741
0.000105003
0.0025549
0
0
0
0
0
0
0
0
0
0
0
0
0
0
0
0
0.000274592
0.000219407
0.000258535
0.000202411
0.000208615
0.000261672
0.000247453
0.000295436
0.000317755
0.000342044
0.000367851
0.000346097
0.000419053
0.00042267
0.0004574
0.000383146
0.00070796
0.000546274
0.000579356
0.000669143
0.000364102
0.000482475
0.000484177
0.00039824
0.000310368
0.00030956
0.000304288
0.000278084
0.000254384
0.000410675
0.000496098
0.000405205
0.000356795
0.000388861
0.000362194
0.000385763
0.000373903
0.000419997
0.00036485
0.0003486
0.000341342
0.000358919
0.000468323
0.000477399
0.000502535
0.000400346
0.000409484
0.000461874
0.000522629
0.000423667
0.000606752
0.000510937
0.000313181
0.000752474
0.000230543
0.000384525
0.000554346
0.000553305
0.000352742
0.000282174
0.000104102
0.000514024
0.000708909
0.000822901
0.00103488
0.000702997
0.000490599
0.000739873
0.000523604
0.00056359
0.000574106
0.000505916
0.000413111
0.000372419
0.000252816
0.000368744
0.000363563
0.000222926
0.000229125
0.000296505
0.000299141
0.000222348
0.000207283
0.000184307
0.000163387
0.000252233
0.000303517
0.000218686
0.000249178
0.000309929
0.000248603
0.000278998
0.000233921
0.000269565
0.000244294
0.000231207
0.000299337
0.000329428
0.00025186
0.000313205
0.000331828
0.000334102
0.000362243
0.000373256
0.000338319
0.00034982
0.000371737
0.000364593
0.000315438
0.000334636
0.000320147
0.000364471
0.000354955
0.000323617
0.000362359
0.000316463
0.000365589
0.000364266
0.000348435
0.000409685
0.000325824
0.000341124
0.000270888
0.000271122
0.000271494
0.000221796
0.000202617
0.000281351
0.000203478
0.000219801
0.000179301
0.000156062
0.000155656
0.000173941
0.000135682
0.000122658
0.000123361
9.87489e-05
0.000104367
7.70119e-05
8.06332e-05
8.09225e-05
6.7623e-05
7.54327e-05
7.35263e-05
8.21014e-05
8.3466e-05
7.12693e-05
8.07454e-05
8.54416e-05
8.94028e-05
8.6403e-05
7.76921e-05
0.000988301
0.000931087
0.000681643
0.000461051
0.000620425
0.000421392
0.00038986
0.000234629
0.000328659
0.000241325
0.00105285
0.00128221
0.000972134
0.00227189
0.000493848
0.0017545
0.000332747
0.000628024
0.00125087
0.00118339
0.000979449
0.00104766
0.001609
0.00571369
0.00460774
0.00233734
0.00419096
0.000755638
0.0045737
0
0
0
0
0
0
0.260733
0.0017842
0.00834645
0.0178288
0
0
0
0
0.00819211
0
0
0
0
0
0
0
0
0
0
0
0
0
0
0
0
0
0
0
0
0
0
0
0.00618036
0
0.00586918
0.00861196
0
0.00606008
0.00497673
0.0050983
0
0
0
0
0
0
0
0
0
0
0
0
0
0
0
0
0
0
0
0
0.000136476
0.000163878
0.000175403
0.000210066
0.000239046
0.000269619
0.000217483
0.000214985
0.000282711
0.000239023
0.000260863
0.000243286
0.000261723
0.000265495
0.00020369
0.000230559
0.000171092
0.000249087
0.000170962
0.00016501
0.000249495
0.000195153
0
0
0.00393685
0.00288348
0
0
0
0
0.00693203
0
0
0
0
0
0
0
0
0
0
0
0.00866328
0.016202
0.00298697
0.00313213
0.00116376
0.00130729
0.000240986
0.000684458
0.000751864
0.000441254
0.000502047
0.000300046
0.000288866
5.96144e-05
0.000103862
5.39337e-05
0.000100379
8.60632e-05
0.000154444
2.48847e-05
0.00013786
0.000139573
0.00014292
8.65508e-05
0
0
0
0
0
7.15142e-05
0
0
3.55379e-05
0
0
0
0
0
0
0
0
0
0
0
0
0
0
0
0.539489
4.91652
0.000174865
0.000244938
0.000199113
0.000242976
0.000256518
0.00026867
0.000288645
0.000312711
0.000358636
0.000266751
0.000370698
0.000206973
0.000423146
0.000528913
0.000649197
0.000593593
0.000585671
0.000689571
0.000620494
0.000600047
0.000488753
0.000451265
0.000474798
0.000518754
0.000400648
0.000222728
0.000442992
0.00039524
0.000569291
0.000440324
0.000419626
0.000540039
0.000400783
0.000355161
0.000363697
0.000404743
0.00039127
0.000405922
0.000353172
0.000352888
0.0003563
0.000295306
0.000371143
0.000413384
0.000257043
0.000283528
0.000243896
0.000191419
0.000109636
0.000131143
8.94251e-05
9.67385e-05
9.76609e-05
8.87518e-05
9.95389e-05
9.00603e-05
9.4296e-05
9.56541e-05
8.73364e-05
8.1025e-05
9.22451e-05
0.00010464
0.000493561
0.000562153
0.00046918
0.000408073
0.000544496
0.000430394
0.000561167
0.000385912
0.000621988
0.000589694
0.00121899
0.000871976
0.00038283
0.000257927
0.000223057
0.000260772
0.000166797
0.000327467
0.000395168
0.000700209
0.000990806
0.00104458
0.00108489
0.000743193
0.000567272
0.000986909
0.000804439
0.000456815
0.000442741
0.000249674
0.000535151
0.000263175
0.000237603
0.000384901
0.000245152
0.000357955
0.000343907
0.000236851
0.000212355
0.000181567
0.000149572
0.000222112
0.000265632
0.000199629
0.000254601
0.000284342
0.000278995
0.000269486
0.000241582
0.000255353
0.000225922
0.000268754
0.000249668
0.000216265
0.000335236
0.000292344
0.000269249
0.000320441
0.000298505
0.000332389
0.000383421
0.000379488
0.000369921
0.000330651
0.000362115
0.00033445
0.000348506
0.00032725
0.000330079
0.000349998
0.000306919
0.000334252
0.000306961
0.000283989
0.000340827
0.000277953
0.000205026
0.000204206
0.000151613
0.0001472
0.000112242
0.000114737
9.64717e-05
0.000102757
8.74917e-05
7.50837e-05
6.42256e-05
7.58691e-05
8.11556e-05
6.95186e-05
7.42605e-05
8.73432e-05
8.64053e-05
7.95204e-05
9.70465e-05
0.000103453
9.36705e-05
0.000107311
8.58792e-05
9.47343e-05
0.000110467
0.000112151
9.96724e-05
0.00124569
0.00119087
0.00145633
0.000940101
0.00116649
0.000803714
0.000781212
0.000321865
0.000789397
0.00125799
0.000406305
0.00155015
0.00028551
0.0014312
0.00144713
0.00363947
0.00153129
0.000700526
0.00248921
0.00104666
0.00149714
0.00195751
0.0011927
0.00151144
0.00176089
0.0147943
0.0167406
0.0119074
0.00432748
0.00191564
0.0058581
0
0
0
0
0
0
0
0
0.22976
0
0
0.0113494
0
0
0
0
0
0
0
0
8.35833e-05
0
0
0
0
0
0
0
0
0
0
0
0
0
0
0
0
0
0
0
0
0
0
0
0
0
0
0
0
0
0
0
0
0
0.000141656
0.000154441
0.000190073
0.00027002
0.000222188
0.000266456
0.000309458
0.000267211
0.000306986
0.000216923
0.000217718
0.00026054
0.000217304
0.00016691
0.000122417
0.00020965
0.000154876
0.000175187
0.00011297
0.000220823
0.000150246
0.000154776
0.00235853
0
0.000296398
0
0
0
0
0
0
0
0
0
0
0
0
0
0
0
0
0
0.0118267
0.00286807
0.00125671
0.000907421
0.000193543
0.000554545
0.00019966
0.00053908
0.000471189
0.000422035
0.00040655
0.000217868
0.000259758
9.57566e-05
9.07697e-05
9.14438e-05
0.000133043
7.40696e-05
1.13691e-05
0.000145181
4.70085e-05
9.92515e-05
0.000102645
0.000149822
0
0
0
0
0
0
0
0
0
0
0
0
0
0
0
0
0
0
0
0
0
0
0.499885
0
0
0
0
0
0
0
0
0.000201104
0.000220445
0.00019881
0.000257022
0.000304705
0.000208241
0.000212567
0.000332657
0.000116537
0.000196481
0.00016578
0.000348121
0.000171197
0.000201838
0.00034765
0.000564863
0.000623698
0.000729923
0.000651284
0.000627869
0.000693206
0.000630864
0.000681765
0.000492816
0.000524155
0.000663181
0.000598093
0.000373692
0.000350251
0.000546694
0.000369245
0.000443223
0.000604672
0.000671467
0.000556902
0.000121219
0.000137393
0.000125751
0.000125715
0.000149993
0.000131053
0.000137784
0.000131679
0.000155128
0.000151303
0.0001643
0.000165204
0.00017218
0.000158033
0.000116602
0.000113556
0.000106003
0.000101021
0.000128153
0.000113337
0.000117633
0.000112035
0.000116283
0.000124026
0.000125854
0.000126002
0.000106828
0.000140535
0.000121881
0.000104045
9.15818e-05
9.67519e-05
0.000110542
0.000111295
9.94211e-05
0.00041734
0.000375412
0.000354635
0.000378324
0.000413243
0.000381196
0.000388167
0.000325702
0.000350051
0.000331687
0.000429022
0.000361197
0.000284219
0.000263458
0.000194764
0.000151542
0.000133135
0.000108634
0.000124487
0.000104041
0.000122064
0.000102127
0.000119421
0.000103852
0.000112023
9.71275e-05
0.000120917
0.000108292
0.000477815
0.000529919
0.000656612
0.00069969
0.000538047
0.000424431
0.000448658
0.000458887
0.000344404
0.000411368
0.000724018
0.000110147
9.81336e-05
0.000114623
0.000118519
0.000107706
0.000118362
0.000124184
0.000121754
0.000131913
0.000140728
0.000128939
0.000146104
0.000153502
0.000159897
0.000176672
0.000158553
0.000184838
0.000175213
0.00104276
0.0010069
0.00147163
0.000674989
0.000667168
0.000431931
0.00042406
0.000458411
0.000688988
0.000744453
0.000784569
0.00100373
0.000865252
0.00130305
0.001113
0.000586671
0.000318779
0.000582205
0.000356044
0.000336391
0.000397436
0.000249897
0.000376742
0.000293672
0.00025072
0.000343161
0.000255268
0.000194604
0.000229693
0.000123396
0.000150047
0.000245704
0.000223313
0.000265551
0.000254931
0.000266081
0.000227314
0.000277794
0.000226553
0.000238379
0.000245528
0.000317155
0.000176817
0.0002769
0.000318419
0.00029208
0.000298156
0.000336723
0.000296064
0.000331403
0.000338899
0.000347531
0.00033059
0.000329861
0.000343236
0.000333353
0.000363504
0.000376885
0.00029868
0.000354395
0.000300975
0.000304294
0.000352695
0.000288503
0.00021703
0.00020767
0.000148067
0.000148961
0.000104563
0.000104455
9.32873e-05
7.89062e-05
7.8633e-05
8.99416e-05
7.70682e-05
7.49468e-05
8.34269e-05
6.46728e-05
7.14597e-05
8.97858e-05
9.53322e-05
7.68029e-05
0.000102535
8.0991e-05
8.99015e-05
0.000916661
0.0011639
0.000403694
0.00132208
0.000544718
0.00197179
0.00201629
0.000664185
0.000874674
0.00182789
0.000773357
0.000239355
0.00196696
0.00172823
0.000905949
0.00243095
0.00220907
0.00377614
0.00250441
0.00149487
0.00194103
0.00323974
0.00118208
0.0049932
0.00745212
0.0128903
0.0109753
0.015736
0.374399
0.501293
0.00732425
0.0131049
0.00462439
0.00681352
0
0
0
0
0
0
0
0
0.547293
0
0
0
0
0
0
0
0
0.195351
0
0
0
0
0
0
0
0
0
0
0
0
0.000199049
0
0
0
0
0.0299419
0
0
0
0
0
0
0
0
0
0
0
0
0
0
0
0
0
0
0
0.0021022
0
0
0
0
0.0023194
0.000173769
0.000178883
0.000157758
0.000171291
0.000182661
0.000185407
0.000114097
0.000242751
0.000152811
0.00013287
0.000238076
0.000147002
0.000273771
0.000209855
0.000233708
0.000228742
0.000324962
0.000175609
0.000113005
5.79346e-05
8.81599e-05
0.000173233
0.000120926
0.000127038
0.000108612
0
0
0
0
0
0
0
0
0
0
0
0
0
0.000175074
0.000234744
0.000432822
0
0
0
0
0.0205067
0.0618158
0.00426814
0.00219909
0.000562243
0.00185692
0.000226028
0.00029753
0.000406408
0.000296073
0.000281372
0.000224485
5.91989e-05
0.00014738
0.000238706
0.000136154
0.000106914
0.000161228
6.80744e-05
0.000190582
0.000116425
0.000219405
0.000164479
0
0.000992883
0
0
0
0
0
0
0
0
0
0
0
0
0
0
0
0
0
0
0
0
0
0
0
0
0
0
0
0
0
0
0
0
0
0
0
0.000126648
9.61724e-05
0.000182163
0.000220976
0.000168906
0.000281652
0.000169272
0.000355706
0.000223841
0.00022147
0.000314543
0.000210501
0.000180817
0.000248076
0.000220325
0.00030918
0.00030977
0.000708331
0.000857872
0.000726546
0.000877551
0.00063904
0.000760559
0.000769337
0.000652066
0.000731958
0.000798693
0.00099549
0.000733049
0.000451921
0.000427273
0.000655336
0.000543372
0.000781553
0.000699977
0.000897779
0.00091542
0.000134195
0.000129528
0.000157175
0.000149333
0.000125542
0.000172257
0.000147278
0.000164471
0.000108451
0.000112085
0.00011622
0.000120706
0.00011992
0.000121082
0.000130728
0.000142676
0.00010121
0.000117865
0.000121029
0.000103489
0.000105293
0.000117259
0.000448736
0.00039612
0.000355292
0.000337395
0.000384581
0.000422874
0.000326122
0.000398111
0.000343163
0.000290199
0.000367774
0.000436784
0.000326511
0.000214898
0.000323134
0.000388639
0.000294
0.000203491
0.000138335
0.000157789
0.000126136
0.000148992
0.00012454
0.000122789
0.00013824
0.00012298
0.000133723
0.000112362
0.000125837
0.000133041
0.000125561
0.000654468
0.000611185
0.000543248
0.000454048
0.000665978
0.000586815
0.000446878
0.000429985
0.000474954
0.000631437
0.000751384
0.000511323
0.000117816
0.000116044
0.000100239
0.000119936
0.000106011
0.000114693
0.000122364
0.000124855
0.000120848
0.000134722
0.000127351
0.000142069
0.000142116
0.000154365
0.000170061
0.00018273
0.00018677
0.000192214
0.000188663
0.000125066
0.000122243
0.000127519
0.00019223
0.000196485
0.000192993
0.000855926
0.000925868
0.00161538
0.00138638
0.000679401
0.000834427
0.000994697
0.00100657
0.000961421
0.00120614
0.00145006
0.00102992
0.00132464
0.000488745
0.000409392
0.00064314
0.00020521
0.000432718
0.00041684
0.000496961
0.000277674
0.000350525
0.000349963
0.000373383
0.000127525
0.000228714
0.000192835
0.00024653
0.000269106
0.000115947
0.000271513
0.000184039
0.000244063
0.000271715
0.000240693
0.000272171
0.00026511
0.000201878
0.000301269
0.000180406
0.000351777
0.000276409
0.000370623
0.000247223
0.000300113
0.000334793
0.000335691
0.000294726
0.000331984
0.000353551
0.000310207
0.000305831
0.000327702
0.000309423
0.000337511
0.000350239
0.000351787
0.000299074
0.000250457
0.000347604
0.000332199
0.000218486
0.000211948
0.000144079
0.000139009
9.50011e-05
9.77232e-05
6.65502e-05
7.44506e-05
7.92265e-05
5.7599e-05
6.20662e-05
8.05024e-05
6.48555e-05
8.25475e-05
6.7806e-05
9.37023e-05
0.000101115
7.59393e-05
0.000107377
8.02488e-05
9.17846e-05
0.00991422
0.000970049
0.00834598
0.00500417
0.00146366
0.00192727
0.00383652
0.00274602
0.00404857
0.00367683
0.00104532
0.000823788
0.00492362
0.00101776
0.00341454
0.00165545
0.00230257
0
0
0.00812383
0.0070245
0.00751282
0.0190259
0.0319245
0.039183
0
0
0
0.452192
0
0
0.138079
0.802
0.0288744
0.249859
2.92228
0
0
0
0
0
0
0.283686
0
0
0
0
0
0
0
0
0.699574
0
0
0
0
0.00329797
0
0
0
0
0
0
0
0.00337659
0.00491793
0
0
0.020982
0.0123663
0
0
0
0
0.00550404
0
0.00719689
0
0
0
0
0
0
0
0
0
0
0
0
0
0
0
0
0
0.00361274
0
0
0
0
0
0
0
0
0.000153921
0.000214877
0.000169644
0.000171876
0.000180856
0.000166792
0.000200342
0.000212137
0.000201011
0.000196893
0.000144248
0.000185559
0.000149234
0.000208735
0.000163802
0.000246427
0.00019297
0.000348559
0.000138381
2.89437e-05
0.000221374
0.000118459
7.69967e-05
5.87231e-05
0.000153683
6.4751e-05
9.16323e-05
0
0
0
0
0
0
0
0.000207451
0.000307748
0.000219333
0
0
0
0
0.000212832
0.000289114
0
0
0
0.0342329
0.00354072
0.00784024
0.000401234
0.00123273
0.00109736
3.7665e-05
0.000148127
0.000177362
0.000209472
0.000312014
0.000193754
0.000273966
0.000198287
5.08644e-06
0.000166644
0.000190563
0.000119109
0.000197005
0.000109048
6.917e-05
6.96359e-05
0
0
0.000938992
0
0
0
0
0.000186559
0
0
0
0
0
0
0
0.00342581
0
0.0037073
0.00876211
0
0
0
0
0
0
0
0
0
0
0
0.0106676
0
0
0
0
0
0
0
0
0
0
0
0
0
0.00749778
0.000122165
0.000176301
8.9195e-05
0.000175346
0.000221531
0.000267565
0.000275794
0.000298753
0.000324899
0.000306637
0.000238329
0.000221976
0.000147953
0.000340531
0.000275833
0.0002758
0.000272275
0.000447531
0.000511207
0.000808456
0.000956194
0.000881996
0.000758889
0.000732147
0.000807627
0.000666694
0.000873191
0.000765959
0.00101438
0.000989432
0.000676846
0.000637117
0.000585024
0.000738068
0.000736059
0.00079123
0.000804354
0.000786275
0.000763299
0.000102562
0.000133177
0.000150297
0.000147772
0.000164015
0.00023844
0.000265267
0.000204921
0.000315825
0.000141011
6.2398e-05
0.000112489
0.000204104
8.11829e-05
0.000117365
0.000112207
0.000124816
0.000120921
0.000127839
0.00012661
0.000124136
0.000118057
0.00011585
0.000129339
0.000113877
0.000130185
0.0001292
0.000114732
0.000453704
0.000402511
0.000352885
0.000326218
0.000412878
0.000359001
0.00033424
0.000383233
0.000378275
0.000356997
0.000364492
0.00044611
0.000297836
0.00019858
0.000285817
0.000392714
0.000156504
0.000206605
0.000150842
0.0001777
0.000161567
0.000145554
0.000150089
0.000142403
0.000140743
0.000144806
0.000136316
0.000127511
0.000139581
0.000143004
0.000617293
0.00060507
0.000521744
0.000460467
0.000529085
0.000573632
0.000412353
0.00046014
0.000576002
0.000524388
0.00049984
0.000705289
0.000115926
0.0001029
0.000116894
0.000119963
0.000105974
0.000111078
0.000127747
0.000121712
0.000132787
0.000133739
0.0001315
0.000149847
0.000144726
0.000157296
0.00016457
0.000180546
0.000177699
0.000189322
0.000204227
0.000205753
0.000200875
0.000134381
0.000130899
0.000207582
0.00021108
0.00142247
0.000941771
0.00346275
0.00102335
0.00211661
0.00168328
0.00198245
0.00167919
0.00165897
0.00200966
0.00226311
0.001448
0.000604853
0.00176597
0.000636626
0.000584076
0.000330207
3.29067e-05
0.000325098
0.000407833
0.000265999
0.000331405
0.00031283
0.000248435
0.000294834
0.000127109
0.00028136
0.000175965
0.000200751
0.000329015
0.000312064
0.000230605
0.00031186
0.000278743
0.000244232
0.000265633
0.000256591
0.00022457
0.000378172
0.000236162
0.000343112
0.000308988
0.000330615
0.000374485
0.000353132
0.000320631
0.000304314
0.000330227
0.000328327
0.000321338
0.000311617
0.000298486
0.00029845
0.000284922
0.00027398
0.000319401
0.000314623
0.000221329
0.000251257
0.000190052
0.000165677
0.000130346
0.000106503
8.88426e-05
6.71242e-05
6.40845e-05
4.59666e-05
6.03429e-05
6.60917e-05
4.38834e-05
5.13902e-05
7.47748e-05
6.42947e-05
8.7985e-05
7.68876e-05
0.000103982
0.000121747
8.27152e-05
8.98118e-05
0
0
0.223127
0
0.026894
0.00872784
0.0247287
0.00389639
0.00227915
0.0080815
0.00437524
0.00396226
0.00814893
0.00158745
0.00611352
0.00244994
0.00494836
0.00675728
0.00115115
0.122833
0
0
0
0
0
0
0
0
0
0
0
0
0
0
0
0.253072
0
0
0
0
0
0
1.10074
0
0
0
0
0
0
0
0
0
0
0
0
0
0
0
0
0
0
0
0
0
0
0
0
0
0
0
0
0
0
0
0
0
0
0
0
0
0
0
0
0
0
0
0
0
0
0
0
0
0
0
0
0
0
0
0
0
0
0
0
0
0
0
0
0
0
0
0
0
7.5907e-05
0
0
0
0
0.000210591
0.000207932
0.00020757
0.000193184
0.0002267
0.000219376
0.000214588
0.000191186
0.000160327
0.000161259
0.000159393
0.000185488
0.000224644
0.000255015
0.000131107
0.000256388
0.000104701
0.000118516
3.39208e-05
7.3932e-05
0.000230894
0.000170584
8.45106e-05
0.000110631
9.32759e-05
7.75613e-05
7.14184e-05
5.43942e-05
0.000150685
0
0
0
0
0.000239017
0.000337156
0.000210184
0
0
0.00012629
0.000250462
0
0
0
0
0.00113401
0.000348067
0
0
0.0226689
0
0.000569524
0.00494486
0.000494618
0.000199161
8.8146e-05
1.88631e-05
4.01983e-05
0.00015878
0.000210944
0.000366975
0.000211771
0.000328846
0.00025154
0.000186761
0.000193651
0.000217462
0.000208684
0.000248106
0.000167335
0
0.00330872
0
0
0
0
0
7.93404e-05
0
0
0
0
0
0
0
0
0
0
0
0
0
0
0
0
0
0
0
0
0
0
0
0
0
0
0
0
0.00401195
0
0.00918057
0
0
0
0
0
0
0
0
0
0
0
0
0
0
0
0
0
0
0.000107007
0.000162957
0.000215866
0.000214237
0.000209389
0.000288928
0.00030919
0.000308796
0.000343095
0.000265122
0.000257217
0.000326781
0.000201552
0.000255396
0.000380621
0.000307447
0.000279458
0.000330697
0.000624229
0.000481817
0.000340868
0.000812121
0.000678751
0.000917
0.000916968
0.000992852
0.00092431
0.00113666
0.000980811
0.0007712
0.00108648
0.000980411
0.00125721
0.000647618
0.000649343
0.000954713
0.000692164
0.000840374
0.000797111
0.00121943
0.00107135
0.000160284
0.000232085
7.55792e-05
0.000307834
0.000441385
0.00028847
0.000215004
0.000305632
9.90856e-05
0.000347153
0.000231367
0.000225886
0.000262138
0.000116206
0.000126951
0.000120675
0.000125362
0.000132144
0.000142155
0.000213969
0.000152637
0.000140035
0.000127757
0.000126286
0.0001432
0.000140951
0.000126359
0.000447409
0.000390523
0.000346218
0.000319059
0.0003392
0.000397496
0.000375861
0.000342287
0.000384035
0.000371471
0.000441378
0.000373347
0.000283132
0.000196488
0.000391803
0.0002787
0.000207959
0.00017874
0.000172383
0.000184672
0.000172262
0.000163495
0.000161013
0.000158858
0.000153846
0.000154771
0.000141312
0.000146303
0.000151814
0.000153347
0.000578088
0.000554691
0.000456916
0.000463133
0.000503914
0.000445478
0.000459432
0.000400885
0.000540204
0.00052905
0.000490735
0.00061237
0.000775513
0.000719146
0.000599015
0.000120096
0.000115076
0.000121165
0.00011132
0.000111653
0.000136506
0.000126271
0.000128076
0.000142048
0.000132504
0.000143197
0.000154913
0.000158369
0.000160777
0.000174517
0.000176342
0.000190869
0.000202435
0.000202612
0.000199987
0.000208844
0.000207131
0.000144008
0.000148603
0.000222135
0.000214811
0.00434531
0.00282755
0.00679004
0.00216251
0.00387514
0.00224759
0.00154694
0.00213489
0.00181111
0.0027189
0.00206688
0.00147519
0.00135108
0.000536656
0.000455772
0.000656878
0.000395685
0.000470724
0.000274485
0.000347395
0.0003405
0.000234919
0.000260301
0.000261157
0.000266102
0.000224288
0.00032437
0.000319931
0.000365836
0.000265109
0.000260992
0.000371411
0.000339281
0.000273823
0.000251995
0.000266352
0.000269603
0.000267644
0.000272481
0.000306254
0.000294612
0.000307125
0.000285897
0.000318491
0.000331416
0.000323938
0.000320474
0.000328095
0.000287201
0.000279142
0.000273766
0.000310958
0.000274467
0.000265825
0.000225235
0.000271417
0.000249118
0.000226262
0.000190913
0.000133082
0.000118623
8.38576e-05
7.63335e-05
5.43801e-05
4.76315e-05
4.07286e-05
5.22295e-05
2.85378e-05
3.2651e-05
6.22228e-05
4.8866e-05
7.74602e-05
6.83816e-05
9.49709e-05
0.000113525
8.27958e-05
0.000123108
9.1422e-05
0
0
0
0
0
0
0
0.122346
9.53326
0.00692276
0.011413
6.45418
0.0724826
0.00937709
0.0072426
0.00691184
0.0036954
0.00564215
0.00257387
0.00175904
0.00570271
0
0
0
0
0
0
0
0
0
0
0
0
0
0
0.243238
0
0
0
0.0183763
0
0
0
0
0
0
0
0
0
0
0
0
0
0
0
0
0
0
0.0136862
0
0
0
0
0
0.00196541
0.00237469
0.00409921
0
0
0
0
0
0
0
0
0
0
0
0
0
0
0
0
0
0
0
0
0
0
0
0
0
0
0
0
0
0
0
0
0
0
0
0
0
0
0
0
0
0.00569696
0
0.0028432
0
0.0103553
0
0
0
0.000220656
0.000223907
0.000217239
0.000199607
0.000226577
0.000192219
0.000212884
0.000201748
0.00015483
0.000201516
0.000209157
0.00019536
0.000170368
0.000201843
0.000191808
0.000125704
0.000138129
0.000174399
0.000179871
0.000151985
7.68207e-05
0.000120741
0.000130946
7.77901e-05
4.69013e-05
0.000139301
0.000129872
6.79124e-05
3.97612e-05
5.11725e-05
5.92692e-05
5.94571e-05
0.000145069
0
0
0.000186615
0.000308178
0.000280698
0
0
0.000236317
0.000168123
0
0
0.000722992
0.00019657
0
1.03382
0
0
0.00092684
0.000419611
0.619696
0.0900347
0.0233927
0.00429066
0.000344266
0.000167121
0.000100393
0.000184892
0.000199731
0.00034259
0.000214663
0.000245144
0.000308044
0.000171271
0.000153069
0.000171376
0.000219706
0.000196499
0
0
0
0
0
0
0.016821
0.0473678
0
0
0
0.0949672
0.207387
0.0675331
0.0192676
0.0142094
0.0216931
0.00456021
0.0122819
0.0150155
0.0097411
0.00410475
0.0152458
0
0
0.00354425
0
0
0
0
0
0
0
0
0
0
0
0
0
0
0
0
0
0.0782579
0.0135876
0.00506693
0
0
0
0.00499103
0.013562
0.0052481