/*--------------------------------*- C++ -*----------------------------------*\
  =========                 |
  \\      /  F ield         | OpenFOAM: The Open Source CFD Toolbox
   \\    /   O peration     | Website:  https://openfoam.org
    \\  /    A nd           | Version:  8
     \\/     M anipulation  |
\*---------------------------------------------------------------------------*/
FoamFile
{
    version     2.0;
    format      ascii;
    class       volScalarField;
    location    "18060";
    object      H;
}
// * * * * * * * * * * * * * * * * * * * * * * * * * * * * * * * * * * * * * //

dimensions      [0 1 0 0 0 0 0];

internalField   nonuniform List<scalar> 
526318
(
1.66163
1.61756
1.68827
1.60002
1.66474
1.63842
1.64049
1.56704
1.61952
1.50297
1.47904
1.59267
1.54509
1.58107
1.54706
1.56957
1.54318
1.7452
1.64576
1.69805
1.68684
1.64545
1.41599
1.6538
1.5262
1.39432
1.67297
1.66709
1.67658
1.68228
1.72197
1.75567
1.74111
1.6269
1.6256
1.60913
1.61673
1.70237
1.61728
1.55356
1.61765
1.6044
1.2688
1.3099
1.21031
1.27646
1.2396
1.36819
1.55748
1.43721
1.53765
1.53465
1.49186
1.43686
0.951938
1.17861
1.19319
0.972217
1.70247
1.712
1.73288
1.67796
1.63595
1.75879
1.75368
1.72273
1.70836
1.70401
1.61037
1.60004
1.71681
1.4867
1.54673
1.43451
1.39263
1.38109
1.48501
1.47387
1.39539
1.43339
1.51282
1.51248
1.46822
1.41891
1.45543
1.51848
1.51365
1.48949
1.44578
1.51708
1.42067
1.37126
1.36935
1.29273
1.29389
1.29481
1.2986
1.29748
1.29347
1.29024
0.733578
0.667966
0.754917
0.783364
0.862347
0.640644
1.20885
1.00823
1.32689
1.2859
1.33147
1.44789
1.67657
1.56299
1.66941
1.68457
1.75496
1.72835
1.7676
1.28488
1.28497
1.28869
1.29662
1.2473
1.28941
1.19798
1.23925
1.14813
1.19878
1.14946
1.14872
1.1385
1.1154
1.10472
1.13284
1.07456
1.12866
1.07991
1.09865
1.04393
1.0502
1.07122
1.09943
1.0866
1.04369
1.04431
1.05957
1.04944
1.04376
1.04993
1.06489
1.05027
1.05632
1.0531
1.05654
1.02142
1.05627
1.05359
1.02012
0.977101
1.05375
1.00459
1.06159
1.54994
1.63892
1.59327
1.58141
1.38221
1.45072
1.37953
1.38324
1.3855
1.37885
1.40409
1.37997
1.31565
1.2885
1.25446
1.1968
1.2527
1.3003
1.29817
1.29431
1.18492
1.23305
1.1235
1.12994
1.13962
1.13021
1.13212
1.13627
1.12455
1.1268
1.12275
1.11244
1.0944
1.11742
1.11095
1.0812
1.05918
1.09012
1.07287
1.06576
1.08303
1.0746
1.07518
1.03908
1.05863
1.08947
1.08744
1.54295
1.54577
1.58908
1.5811
1.53521
1.54918
1.54979
1.40976
1.47102
1.20955
1.17319
1.1823
1.30768
1.43615
1.31592
1.34697
1.36047
1.29901
1.28111
0.791085
0.580458
0.917488
1.13349
0.382475
0.216938
0.515859
0.6167
0.576674
0.593941
1.75406
1.73562
1.78147
1.77894
1.74088
1.732
1.64178
1.72898
1.57445
1.51999
1.51521
1.5169
1.51478
1.5183
1.50544
1.50108
1.42273
1.48559
1.30207
1.35883
1.28922
1.30411
0.105518
0.0261143
0.484795
0.264915
0.771316
0.71302
0.768629
0.922272
1.30148
1.11252
1.35233
1.34969
1.46136
1.55654
1.68021
1.69081
1.71562
1.69505
1.76598
1.79638
1.26566
1.26614
1.22894
1.19681
1.09482
1.13425
1.05815
1.06985
1.06029
1.05311
1.04315
1.04901
0.975815
0.999574
1.0337
1.07035
1.12787
1.09279
1.05763
1.05117
0.986982
0.978144
1.02717
1.08322
1.00517
1.0432
1.0439
1.01333
1.00861
0.978089
0.973669
0.93521
0.93534
0.940222
0.92757
1.0517
1.08941
1.05093
1.09254
1.45019
1.42442
1.31093
1.40192
1.31898
1.3748
1.38842
1.36686
1.38588
1.38044
1.29638
1.20442
1.13537
1.1201
1.19587
1.13723
1.12208
1.23468
1.12511
1.17527
1.11467
1.11267
1.12284
1.11406
1.12618
1.12473
1.12215
1.12336
1.12303
1.12216
1.1321
1.12568
1.13859
1.13584
1.13758
1.11604
1.13079
1.11189
1.08996
1.08657
1.11193
1.1449
1.13737
1.11491
1.09862
1.12095
1.16489
1.16301
1.17338
1.13643
1.17053
1.18793
1.22402
1.17406
1.18101
1.20372
1.23946
1.36612
1.43022
1.3543
1.37595
1.44802
1.52219
1.43312
1.29422
1.41325
1.31369
1.33409
1.06806
1.02343
1.04258
1.03785
1.15115
1.27547
1.20665
1.27388
1.27142
1.29867
1.27256
0.551872
0.69357
0.847371
0.686456
0.928589
0.811179
0.000412515
0.104197
0.0438227
8.84466e-11
2.07237e-25
0.114494
0.339243
0.567185
0.465714
0.486062
1.7753
1.76765
1.80022
1.79296
1.7629
1.73471
1.66876
1.58832
1.51523
1.52736
1.51007
1.50736
1.48328
1.4884
1.46664
1.46647
1.41656
1.4569
1.38272
1.32619
1.27112
1.22612
0.000943112
0.00107252
0.00107252
0.000663073
0.000634992
0.000731205
0.000580766
0.00107253
0.00107258
0.00107253
0.000990966
0.00100984
0.000550093
0.00100942
0.000114328
5.74401e-05
0.00279263
0.0931428
0.118746
0.269758
0.731841
0.527538
0.83739
0.809735
1.00486
0.853058
1.21418
1.37159
1.38671
1.47506
1.69913
1.58941
1.7123
1.70877
1.71838
1.76432
1.78184
1.801
1.1879
1.18508
1.13835
1.16755
1.10638
1.0675
1.05891
1.06072
1.05356
1.05941
1.01052
1.00553
0.955548
0.967507
1.02278
0.994807
0.968526
1.01404
1.00886
1.02905
0.937818
0.92685
0.950578
0.95958
0.96279
0.918154
0.924342
0.918717
0.925043
0.90796
0.905613
1.20706
1.17945
1.18025
1.18052
1.2007
1.3081
1.26561
1.24625
1.12934
1.17244
1.15805
1.16057
1.06063
0.997661
1.17548
1.29217
1.17181
1.18241
1.16302
1.2469
1.22136
1.30531
1.33379
1.25615
1.23633
1.26802
1.14644
1.11726
1.12028
1.11851
1.03505
1.09039
1.01516
0.966775
0.947099
1.06568
1.06749
1.11447
1.11309
1.11713
1.11468
1.11596
1.11839
1.11651
1.12689
1.11907
1.1388
1.13129
1.13824
1.13855
1.16195
1.14839
1.17224
1.17646
1.12867
1.10862
1.17518
1.1561
1.14814
1.16313
1.14606
1.1363
1.18551
1.16462
1.26597
1.27129
1.2259
1.26514
1.2756
1.24115
1.33419
1.30608
1.37388
1.39458
1.41947
1.32837
1.33385
1.33379
1.31143
1.28924
1.26632
1.34698
1.19798
1.17381
1.21833
1.23594
0.916925
0.96114
1.0489
1.16081
1.1978
1.23248
1.13998
1.10212
1.06425
1.01168
0.376063
0.45193
0.739038
0.528124
0.843099
0.919322
0.000993891
0.000234006
0.00100979
0.000545241
0.016262
4.62226e-07
0.405167
0.155995
0.314105
0.321455
0.000766556
0.000551352
0.000138864
0.000388285
0.00097475
0.00101
0.000140036
0.000999779
0.000887408
0.000424352
0.00113673
0.000775516
0.000976645
0.00113656
0.00113656
0.00113657
0.000918987
0.000999494
0.0009727
0.000201819
9.59135e-05
0.000989075
0.000892979
0.0009482
0.00100959
0.000881287
0.00100965
0.000996543
2.65749e-05
0.000931251
1.77545
1.78793
1.80641
1.79156
1.77432
1.70255
1.51261
1.60599
1.48794
1.49242
1.46227
1.4659
1.45901
1.45648
1.45437
1.45389
1.39729
1.36624
1.27064
1.31067
1.16517
1.20799
0.000902499
0.000636742
0.000948563
0.000967574
0.000969466
0.000982262
0.000984193
0.000870723
0.00101
0.000942443
0.000677989
0.000965569
0.000971308
0.000759356
0.000380116
0.000991326
0.000690401
0.00100737
0.000803925
0.000839513
0.000369052
0.000975289
0.000889611
0.00040325
0.000977785
0.0308062
0.197326
0.173694
0.246468
0.420552
0.873775
0.681234
0.894884
0.89193
1.18668
1.02236
1.39391
1.35795
1.42193
1.52796
1.63105
1.71376
1.72638
1.70909
1.75128
1.78978
1.76611
1.76618
0.00113898
0.000875368
0.000886173
0.00022207
0.000685543
0.000987943
0.00081396
0.000938934
0.000890554
0.000725685
0.000975785
0.00092383
0.000794854
2.99799e-07
0.000880516
0.00101
0.000170373
1.16735
1.16483
1.16734
1.12991
1.05149
1.08786
1.01189
1.00376
0.968828
0.961456
0.916272
0.916684
0.949012
0.946365
0.906382
0.939514
0.934655
0.983516
0.964815
0.964787
0.887598
0.857727
0.85984
0.902741
0.909438
0.906327
0.883202
0.888376
0.84843
0.837623
0.800012
0.808101
1.40646
1.37318
1.41417
1.42374
1.37265
1.32832
1.49738
1.51845
1.58236
1.59183
1.13872
1.17936
1.23018
1.31462
1.13612
1.08349
1.117
1.11844
0.956706
1.00855
1.05662
0.951047
1.16306
1.16735
1.16162
1.16236
1.18813
1.15877
1.17167
1.19603
1.06714
1.06247
0.96322
1.04712
1.03954
1.00203
0.950047
0.972456
0.912233
0.933429
0.915234
1.00121
1.06322
0.997339
1.06492
1.1133
1.11193
1.11603
1.11642
1.11762
1.13834
1.13212
1.1496
1.14443
1.16424
1.15892
1.17997
1.17833
1.1812
1.17842
1.19182
1.18371
1.22325
1.19668
1.16437
1.16282
1.23031
1.19584
1.20339
1.24261
1.28465
1.28378
1.28416
1.28408
1.31675
1.36929
1.43203
1.45141
1.46073
1.43809
1.5803
1.51771
1.64491
1.68497
1.67564
1.7149
1.77044
1.63395
1.72199
1.74513
1.82014
1.86908
1.89506
1.91551
1.94521
1.88836
1.9449
1.90158
1.98236
1.98267
2.03102
1.99913
2.06212
2.0914
2.08147
2.02972
2.09597
2.11835
2.08636
2.08166
2.14792
2.12524
2.15516
2.09672
2.0956
2.16068
2.12689
2.08128
2.08029
2.11178
2.1454
1.13219
1.10049
1.27378
1.26373
1.23338
1.22307
1.2195
0.985257
1.12679
0.828666
0.863145
0.960734
0.952116
0.824413
0.903545
0.889674
1.06169
0.966959
0.963827
0.87643
0.873652
0.889903
0.90183
0.442681
0.311301
0.716593
0.487461
0.70923
0.655267
0.00101
0.000966006
0.000995857
0.000384139
0.000456522
0.000309416
0.0280395
0.26697
0.174502
0.206805
0.000261953
0.00069126
0.000943677
0.000831092
0.00137565
0.000458648
0.00012748
0.000146108
0.000949
0.000431299
6.93167e-06
1.61879e-05
0.000990101
0.00093513
0.00100829
0.000659607
0.000911134
0.000410555
0.0010095
0.00099926
0.000895735
0.000988794
0.000682483
0.00100665
0.000974989
0.000926586
0.00101
0.00057983
0.00102575
0.000915542
0.00102593
0.00102637
0.000973026
0.0010268
0.00102725
0.0010266
0.000468901
0.000535555
0.000993933
0.000773625
0.000877713
0.00099375
0.000922247
0.000776475
0.0010078
0.000994205
0.000136415
0.000956593
0.000950381
0.000921886
0.000915695
0.000919934
0.000616217
0.00101
0.000623175
0.000968314
1.76539
1.75604
1.7235
1.71658
1.63642
1.71459
1.53096
1.47154
1.46076
1.45931
1.45901
1.45932
1.39606
1.40311
1.24688
1.20807
1.16617
1.34129
1.33639
1.28854
1.29007
1.2884
0.00081225
0.000380651
0.00115075
0.00115073
0.000962471
0.000414864
0.00093308
0.000410365
0.00115074
0.00091491
0.000161511
0.00100893
0.000972717
0.000941946
0.000297472
0.000985833
0.000726155
0.00091818
0.000127626
0.000386057
0.256784
0.0827782
0.303459
0.289834
0.536786
0.346671
0.741199
0.890295
1.01861
0.894926
1.18783
1.35672
1.38377
1.41709
1.49504
1.60776
1.67724
1.64389
1.68949
1.62805
1.68128
1.71789
1.67439
1.67949
0.00101
0.000865295
0.00100993
0.000849207
0.000924318
0.0011919
0.000759989
0.000801856
0.0011919
0.000964874
0.000981161
0.000996251
6.93906e-06
1.51015e-05
0.00101
0.000411253
2.35938e-14
0.00072123
0.00101
0.000253336
0.000277025
0.000765241
0.00096459
0.000879022
0.00220918
0.00100961
1.13909
1.14125
1.05962
1.07823
0.955322
0.977523
0.914491
0.915799
0.914265
0.913479
0.889882
0.886742
0.86391
0.864736
0.840083
0.878742
0.956831
0.917148
0.955935
0.956082
0.776659
0.800236
0.841595
0.820581
0.829276
0.828815
0.776387
0.768586
0.752798
0.767459
0.778765
0.771903
1.62693
1.62625
1.45605
1.37009
1.35778
1.34436
1.62459
1.53688
1.78174
1.85919
1.75496
1.6774
1.87286
1.85289
1.91951
1.96983
2.00044
1.99853
2.02832
1.99995
2.0549
2.08196
2.0769
2.07741
2.09375
2.08025
2.08088
2.12707
2.07087
2.06581
1.18831
1.11669
1.2589
1.33193
1.11513
1.06408
1.1158
1.11663
0.945353
0.998603
0.842386
1.0058
0.889134
1.16159
1.10183
1.17419
1.16377
1.15996
1.05014
0.959829
0.878465
0.861607
0.879177
0.916108
0.844173
0.82939
0.754161
0.847949
0.927151
0.925368
0.837945
0.945209
1.01027
0.957525
1.06028
1.01082
1.05249
1.10335
1.14102
1.11987
1.15388
1.15329
1.165
1.15584
1.1883
1.19732
1.19612
1.21082
1.21602
1.2174
1.25173
1.26141
1.25229
1.24724
1.2498
1.24317
1.26133
1.27572
1.32259
1.31604
1.28571
1.31673
1.31264
1.34405
1.37931
1.44071
1.47097
1.47173
1.48199
1.55045
1.63313
1.70607
1.72007
1.84651
1.72032
1.77129
1.92113
1.9454
1.94519
1.98225
2.03167
2.08017
2.09235
2.09424
2.12365
2.14995
2.17752
2.17563
2.17546
2.17726
2.17706
2.15745
2.09507
2.15902
2.12555
2.08002
2.08117
2.1118
2.14516
2.15514
2.0815
2.142
2.10197
0.925381
0.916049
0.989285
1.06616
0.956348
1.0271
1.16287
1.09634
1.12977
0.961839
0.856052
0.83246
0.822224
0.923418
0.918159
0.583698
0.689711
0.872948
0.759123
0.868525
0.87087
0.879731
0.876615
0.891495
0.905231
0.115206
0.248442
0.340423
0.542742
0.561419
0.558111
0.00086849
0.000172666
0.000348616
0.00101
0.000720911
0.000542222
0.0001541
0.00022864
0.0103984
0.00089849
0.000505163
0.00137543
0.000928609
0.00101
0.000879084
0.000660221
0.000998234
0.000701989
0.000938544
0.000874495
0.00105183
0.000943205
0.000791252
0.000751098
0.000990039
7.57449e-05
0.00099613
0.000976554
0.000151024
0.000607103
0.000544652
0.000936558
0.000852461
0.000989886
0.000971053
0.001002
0.000978339
0.000944855
0.000974885
0.00092222
0.000207016
0.000979907
0.000919067
0.00101
0.000732523
0.00100962
0.000641972
0.000367709
0.000916152
0.000960434
0.000965326
0.000892128
0.000581577
0.000479733
1.66588
1.66287
1.64806
1.65667
1.59457
1.65289
1.45604
1.52202
1.42287
1.42027
1.35912
1.34459
1.28795
1.29121
1.20426
1.10156
1.07639
1.24595
1.29078
1.28865
1.28681
1.28769
0.00115082
0.000970242
0.00115082
0.000748196
0.000973634
0.000973647
0.00094649
0.000972052
0.00100548
0.000830393
0.000135327
0.000443538
0.00093376
0.000997208
0.00060297
0.00100999
0.00098232
3.53596e-05
0.000244696
0.000405479
0.146676
0.2982
0.365023
0.31106
0.522204
0.703363
0.858237
0.888588
1.08305
0.921101
1.22762
1.35547
1.33173
1.44452
1.60924
1.50642
1.5871
1.58886
1.57453
1.6045
1.67091
1.66335
1.66488
1.63763
0.000769413
0.000922585
0.000563688
0.000958878
0.000712787
0.000933944
0.000627141
0.000452485
0.000820867
0.000879841
0.000957505
0.000856862
0.000968979
4.99988e-21
0.000922039
0.000873917
0.00096514
0.000987798
0.000743529
0.00100999
0.000468733
1.59312e-09
0.00206908
0.000901385
0.00101
0.000860782
0.000668131
0.000489708
0.000136748
2.7554e-18
0.00098545
1.01476
1.01665
0.979779
0.958629
0.916277
0.935669
0.901226
0.903973
1.0587
1.00238
0.978749
0.834892
0.839311
0.770745
0.777726
0.840953
0.84169
0.831257
0.872671
0.931931
0.883097
0.919596
0.903044
0.80031
0.776587
0.792956
0.813695
0.739938
0.737294
0.737638
0.748382
0.765767
0.7508
0.713483
0.72522
2.19963
2.20946
2.2374
2.21354
2.25878
2.2425
2.26751
2.25792
2.31447
2.30137
2.27045
2.3201
2.27786
2.33901
2.1691
2.12184
2.14123
2.19065
2.172
2.14162
2.14333
2.19678
2.20171
2.17624
2.1579
2.2092
2.19392
2.19996
2.22575
2.08039
2.08086
2.08081
2.07987
2.09941
2.11964
1.67333
1.61688
1.51539
1.41878
1.33094
1.40838
1.6095
1.59069
1.8283
1.85414
1.73842
1.82209
1.85999
1.90995
1.95681
1.99974
1.9965
1.99876
1.99475
2.02537
2.03785
2.06409
2.05112
2.05374
2.0579
2.06744
2.04536
2.04432
1.23848
1.16694
1.10911
1.09928
1.15693
1.33258
1.30912
1.03864
1.09606
0.969193
0.901853
2.18547
2.20786
2.22257
2.22982
2.23542
2.24587
2.2501
2.27657
2.26253
2.27979
2.27881
2.32732
2.35179
2.37231
2.37456
2.37917
2.39033
2.41256
0.883887
0.826278
0.8346
1.08841
0.982289
1.15152
1.04423
0.971608
0.86599
0.862188
0.865628
0.864139
0.72003
0.792799
0.644584
0.671577
0.75649
0.667807
0.933905
0.868678
0.760901
0.959652
0.956576
0.956775
1.00893
0.970166
1.09364
1.04388
1.12945
1.09373
1.12868
1.15592
1.17784
1.20114
1.22246
1.22313
1.23131
1.22524
1.28208
1.27009
1.26328
1.26045
1.31351
1.28755
1.35758
1.31843
1.29969
1.34202
1.38748
1.37897
1.40328
1.43901
1.43997
1.38491
1.49271
1.52256
1.49289
1.48113
1.56437
1.6471
1.72013
1.78743
1.73521
1.75154
1.88045
1.93961
1.98206
1.96334
2.02824
2.05902
2.10001
2.11676
2.11131
2.12882
2.18557
2.16851
2.17735
2.18822
2.17894
2.17525
2.17523
2.17683
2.17528
2.17695
2.17701
0.905811
0.903193
0.929145
0.84804
0.867961
0.887817
0.826273
0.964599
0.872697
0.80922
0.817368
0.798283
0.70302
0.809923
0.82468
0.600795
0.591993
0.555365
0.670179
0.87628
0.758836
0.766972
0.770889
0.559804
0.45276
0.252996
0.265351
0.201281
0.0109383
0.0106244
0.559533
0.391461
0.54257
0.548941
0.000776109
0.00096702
0.000896738
0.000998449
0.00026155
0.000888291
0.00100984
0.000894905
0.00638908
0.000924973
0.000398457
0.000668916
0.00101
0.000330569
0.000740386
1.47884e-19
8.43475e-13
0.00240917
0.000379096
0.000850418
0.000694792
0.000545923
0.000997667
0.0003892
0.00100993
0.000972649
0.000977525
0.000963111
0.000999516
0.000744424
0.00101025
0.000936304
0.000732792
0.000959349
0.000651337
0.00101428
0.00089779
0.000955844
0.000631827
0.000258775
0.000726704
0.000964465
0.000941166
0.000838222
0.00101
0.000334973
0.000769708
0.000685233
0.000978177
0.000925692
0.000935309
0.000880161
0.00091709
0.000695524
0.000567275
0.00214794
0.000167059
0.000674617
0.000835469
0.000897448
0.0021479
2.37011
2.33269
2.30084
2.40582
2.44547
2.43924
1.65503
1.65134
1.65075
1.64483
1.56005
1.63073
1.45619
1.37942
1.3071
1.31741
1.28712
1.28755
1.28468
1.29269
1.16639
1.086
1.17447
1.25355
1.25215
0.00093523
0.000755853
0.000875173
0.000890082
0.000922295
0.0009764
0.000965395
0.000493094
0.000931051
0.000554111
0.00100943
0.000959595
0.000969088
0.854095
0.889658
0.914843
0.00100998
0.000498781
0.000543763
0.000915723
0.14326
0.0258039
0.319273
0.351018
0.515512
0.374464
0.686288
1.06022
1.20096
1.31726
1.31175
1.62213
1.54719
1.56484
1.34864
1.44278
1.53022
1.58398
1.58346
1.58074
1.60071
1.63315
1.62078
0.000689119
0.0011712
0.000627531
0.000982796
0.000704864
0.000720222
0.00100904
0.000845157
0.00071885
0.000865554
0.000823186
0.000932446
0.000763197
0.000831138
0.000896425
0.000478007
0.000627663
0.00100504
0.000978863
0.000935387
0.000938185
0.000682923
0.000770427
0.000937995
0.000997599
0.000978674
0.000347723
0.000953032
0.000978459
0.000973622
0.00101
0.000984843
0.000871643
0.000978065
0.000827832
0.000967231
0.000811322
1.01327
1.04909
1.04063
0.979804
0.980168
0.952133
0.970757
0.841141
0.865659
0.777332
0.782564
0.986801
0.972409
0.738064
0.731267
0.735138
0.738959
0.792363
0.772774
0.810852
0.754973
0.879195
0.828423
0.876751
0.887808
0.71964
0.671904
0.700982
0.730227
0.706116
0.705366
0.648102
0.683254
0.661938
0.643734
0.62002
0.618001
2.19868
2.21295
2.23822
2.25497
2.26855
2.26709
2.31825
2.27606
2.13384
2.1334
2.11696
2.13613
2.16844
2.13248
2.17335
2.15107
2.06738
2.05627
2.0556
2.0855
2.11426
2.0899
1.67913
1.6004
1.49469
1.58646
1.4344
1.34264
1.5975
1.59974
1.8357
1.83945
1.85464
1.75129
1.82946
1.94239
1.88711
1.82972
1.87212
1.9736
1.98738
1.97792
1.98412
1.99217
2.01503
2.0422
2.03264
2.04214
2.04338
2.04199
2.04364
2.04381
2.04182
1.08174
1.08634
1.22486
1.30785
1.08433
1.16723
1.32258
1.34132
1.0761
1.01816
0.929632
0.996933
2.21636
2.17506
2.19588
2.24057
2.23978
2.24155
2.25119
2.27364
2.29572
2.3071
2.30598
2.31119
2.33472
2.3743
2.35812
2.37469
2.39338
2.43886
2.41478
2.24718
2.25902
2.2747
2.44352
2.44252
2.44227
0.831012
0.834813
0.827801
0.8057
0.895028
0.917989
0.70961
0.753255
0.784522
0.67164
0.711076
0.715911
0.641886
0.648981
0.651061
0.645427
0.678292
0.713321
0.811854
0.740281
0.73962
0.884186
0.959719
0.874429
1.0289
1.06159
0.989989
1.03349
1.09624
1.05696
1.18732
1.12591
1.19792
1.21319
1.22146
1.21093
1.26121
1.30002
1.33789
1.33682
1.34185
1.32911
1.35422
1.3372
1.38632
1.38979
1.41192
1.41352
1.39142
1.3932
1.51258
1.55879
1.45742
1.52106
1.56797
1.52962
1.63068
1.67604
1.77399
1.8138
1.78991
1.88199
1.93613
2.03561
2.02122
2.0801
2.05436
2.14959
2.15478
2.1477
2.17819
2.20657
2.20358
2.26046
2.22344
2.25185
2.21306
2.21201
2.24956
2.17899
2.21734
2.18055
0.278191
0.612212
0.279387
0.557851
0.847004
0.82534
0.818549
0.802625
0.817883
0.69191
0.571965
0.570007
0.475039
0.669867
0.549007
0.573118
0.687567
7.10071e-09
0.00055729
0.349569
0.470346
0.443938
0.239785
0.13244
0.132373
0.000761643
3.85998e-08
9.08568e-06
0.00454697
0.000177594
0.000971001
0.0772732
0.0168103
0.256737
0.0360769
0.00264166
0.0010004
0.000112849
0.00044385
0.000919656
1.98073e-15
0.000297927
0.00222807
6.13242e-14
0.000984734
0.000746997
0.0009581
0.000364482
0.00101
0.000172236
0.00098314
0.0021996
0.000989574
0.000134455
0.00096781
0.00100982
0.00134728
0.00035746
0.00100983
0.000979813
0.000465046
0.000983408
0.00101
0.000808151
0.00101062
0.0010102
0.000896998
0.000916639
0.00101264
0.00101194
0.000955402
0.000813073
0.000711032
0.000919589
0.0016597
6.5716e-05
0.0016596
0.000759213
0.00098702
0.000966821
0.00099923
0.00100984
0.00101
0.00100994
0.000799141
0.000805878
0.000827454
1.20946e-05
9.12481e-06
0
0.00090453
0.000799517
0.000430028
0.000835336
0.00134723
0.000898711
0.00100958
0.00100997
0.000736688
0.000998553
0.000946811
0.000914726
0.00101
2.34692
2.3287
2.34157
2.34432
2.37071
2.48301
2.45928
2.46622
2.48938
2.43123
1.56047
1.54991
1.47619
1.47687
1.44438
1.4679
1.3841
1.33442
1.32061
1.2956
1.26167
1.26196
1.17639
1.18482
1.05461
1.09614
1.09543
0.000529692
0.000965684
0.000913493
0.00101
0.000949844
0.000924031
0.000585991
0.887137
1.02673
0.889409
0.000919443
0.000220381
0.000959565
0.000979614
0.75279
0.590079
0.000944012
0.000973661
0.000720775
0.0579862
0.348623
0.210328
0.387641
0.391299
0.419754
1.43381
1.4329
1.47114
1.17326
1.30951
1.3116
1.34741
1.47042
1.54206
1.50117
1.40864
1.48559
1.51479
1.51484
1.44612
1.47457
0.000957717
0.000980323
0.00117124
0.00101
0.000641283
0.000823908
0.00101
0.00117355
0.000945463
0.000977724
0.000160682
0.000986054
0.000875008
0.000936631
0.000510229
0.00103983
0.000977056
0.00104024
0.00104042
0.00101
0.000771965
0.000895476
0.000833864
0.000976221
0.00092185
0.00100577
0
0
0
0.000680742
0.0011077
0.000996852
0.00100563
0.000944429
0.000473953
0.000911195
0.000978965
0.000968087
0.00097325
0.000338297
0.000895901
0.000914242
0.000926795
0.000861204
0.00104039
1.03037
1.0451
1.05211
0.918332
0.942833
0.900401
0.898196
0.823718
0.817599
0.732214
0.740133
0.733117
0.732617
0.832339
0.827287
0.679708
0.679519
0.644419
0.621553
0.722855
0.717632
0.739128
0.795423
0.873016
0.83542
0.904161
0.854589
0.659415
0.627444
0.693528
0.715744
0.588252
0.588392
0.564122
0.581643
0.619623
0.602186
0.618913
0.627189
2.2073
2.1617
2.24125
2.19363
2.21275
2.23762
2.23954
2.29038
2.24199
2.31508
2.29094
2.27249
2.32338
2.31548
2.10075
2.09881
2.09035
2.10219
2.1169
2.12693
2.12923
2.13627
2.04194
2.04363
2.06504
2.05174
2.08179
2.08801
1.6823
1.60396
1.52137
1.60047
1.39201
1.48785
1.59993
1.60772
1.8283
1.82834
1.83187
1.7601
1.91681
1.96389
1.87427
1.82793
1.96958
1.96995
1.98361
1.9701
2.00769
2.03019
2.03976
2.03965
2.0398
2.03858
2.04374
2.04146
2.03944
2.03888
1.0806
1.0744
1.24234
1.32131
1.22259
1.13928
1.37872
1.3189
1.05229
1.07644
1.04849
0.964047
2.21604
2.25319
2.23521
2.26058
2.28071
2.2701
2.30426
2.31723
2.29358
2.30703
2.29683
2.30705
2.31219
2.33309
2.35778
2.37281
2.37395
2.42673
2.40386
2.45447
2.45969
2.33018
2.34361
2.45933
2.47088
0.577358
0.73065
0.592566
0.698406
0.630043
0.601312
0.552556
0.521676
0.548514
0.581726
0.476837
0.531372
0.534983
0.42171
0.476417
0.627543
0.741812
0.655224
0.748045
0.746783
0.736786
0.808222
0.955088
0.862703
1.05155
1.04589
1.01531
0.963074
1.08128
1.13095
1.18698
1.1713
1.19713
1.18486
1.30567
1.25389
1.3561
1.34614
1.37243
1.37682
1.35285
1.40859
1.45076
1.42426
1.41004
1.43817
1.48801
1.47221
1.4552
1.49881
1.583
1.58171
1.57679
1.59637
1.72504
1.64213
1.81249
1.83612
1.83854
1.90348
1.98119
2.05589
2.06482
2.07586
2.12391
2.17067
2.20837
2.20661
2.2447
2.22087
2.27288
2.28563
2.28724
2.28535
2.28633
2.28511
2.25282
2.28581
2.25387
0.000575098
3.62829e-06
0.00399026
0.00081177
0.244024
0.535239
0.225537
0.703704
0.554344
0.559744
0.431902
0.436205
0.467803
0.439577
0.462232
0.429947
0.417337
0.419853
0.438081
0.00358673
0.000984633
0.000890086
6.12883e-21
3.75442e-22
0.000344384
0.000893012
0.000633111
0.000451392
4.65658e-05
0.000218202
0.000993637
0.000687571
1.29741e-11
1.78862e-08
0.00101
0.00224414
5.86176e-05
0.000959982
0.00100986
0.000887496
0.000962023
0.000987843
0.00188065
0.000982825
0.000146754
1.36216e-05
0.000607696
0.00096357
0.000988249
0.000479144
0.000826696
0.000961729
0.00100941
0.00031059
2.43631e-05
0.000987756
0.00100992
0.000817418
0.000560979
0.000649921
0.00101
0.000799183
0.000970777
0.000279366
0.000905419
0.000941315
0.000861489
0.0010008
0.000939674
0.000880492
0.000886752
0.00100949
0.00097168
0.000773375
0.000984106
0.000952799
0.000473894
0.00098992
0.000934564
0.000964099
0.000974876
0.000974485
0.00101
0.00099424
0.000905098
0.000464111
0
0
0
0
0
0
0
0
0
0
0
0
0
0
0
0
0
0
0
0.00099334
0.000879764
0.000937661
0.000812305
0.000919349
0.000434354
0.000930589
0.00106314
0.000325168
0.000811332
0.00080061
0.000885277
2.50895
2.50284
2.51634
2.50553
2.53282
2.52406
2.35028
2.35529
2.43828
2.39712
2.46796
2.51707
2.46769
2.36942
2.3498
1.42518
1.4242
1.4274
1.41817
1.42499
1.34565
1.39482
1.18978
1.24274
1.10748
1.10711
1.05486
1.05383
1.05448
4.53839e-05
0.000725317
0.000495047
0.000982711
0.859395
1.05161
0.88751
0.000948865
0.000967043
0.838655
0.732999
0.000977274
0.00068049
0.000970402
0.000977458
0.429933
0.570436
0.000938556
0.000802162
0.10289
0.000118634
0.391638
0.246948
0.397474
1.41832
1.42626
1.4207
1.42564
1.43347
1.13937
1.25344
1.19767
1.31693
1.37342
1.40363
1.33612
1.42001
1.37284
1.37186
1.35395
0.000954778
0.00107968
0.000925232
0.000970576
0.000973219
0.000935143
0.000639631
0.00101448
0.000148851
0.000884426
0.00100994
0.000895487
6.13197e-05
0.000674784
0.000959044
2.92015e-05
0.00098678
0.000543763
0.000858937
0.000774087
0.000453247
0.000992999
0.000740767
0.000908685
0.000621516
0.00100955
0.000627569
0.000973579
0.000348921
2.15212e-05
0
0
0
0
0
0.000833646
0.00110744
0.000978274
0.00110721
0.000988902
0.000872265
0.000778917
0.00086771
0.00098805
0.000779721
0.00093197
0.000953825
0.00094717
0.000104407
0.000536475
0.000980926
0
0
0
0
0
0
1.02852
0.957783
0.949035
0.87836
0.867386
0.786768
0.771098
0.762527
0.758652
0.752832
0.759536
0.691996
0.704956
0.629398
0.610358
0.763981
0.766738
0.555136
0.548089
0.552506
0.562713
0.834136
0.900354
0.816802
0.715762
0.697496
0.772096
0.701232
0.7844
0.626355
0.596109
0.656592
0.61174
0.563885
0.563417
0.5575
0.577354
0.571797
0.545345
0.535034
0.518574
2.1562
2.14563
2.17939
2.19072
2.16594
2.22166
2.26241
2.22311
2.23844
2.2116
2.30797
2.27253
2.25541
2.08904
2.08972
2.11584
2.1047
2.12591
2.12892
2.15508
2.13541
2.0434
2.04846
2.07165
2.05718
2.07199
2.07911
1.7218
1.64377
1.56428
1.60256
1.54846
1.45281
1.63947
1.60294
1.83437
1.83218
1.79633
1.83898
1.9235
1.97058
1.83534
1.87973
1.97325
1.97043
1.99402
1.9745
2.01658
2.03486
2.03572
2.03461
2.03646
2.03485
2.03815
2.03823
2.03632
2.03438
1.07269
1.13386
1.32176
1.29681
1.21905
1.30396
1.32204
1.39966
1.06857
1.06374
1.05968
0.976469
0.814795
0.857382
0.940411
2.28545
2.2893
2.31654
2.30904
2.33395
2.3455
2.34509
2.34593
2.38201
2.36236
2.37379
2.33993
2.37058
2.3815
2.40617
2.42476
2.43606
2.43485
2.48591
2.48848
2.51266
2.48941
2.40223
2.40657
2.52677
2.52241
0.353304
0.417659
0.293651
0.519944
0.44697
0.521958
0.519432
0.508342
0.438294
0.375529
0.306726
0.312496
0.334208
0.399618
0.560367
0.472168
0.443923
0.649579
0.795785
0.759859
0.607853
0.848774
0.891269
0.908605
0.89321
0.993262
1.06812
0.945684
1.17091
1.10361
1.17631
1.18259
1.27234
1.21098
1.33353
1.36609
1.36176
1.36614
1.49017
1.45446
1.42346
1.47869
1.50147
1.49508
1.4902
1.48183
1.49636
1.4955
1.57746
1.62076
1.65751
1.61498
1.65854
1.68459
1.82301
1.75846
1.85164
1.83596
1.91955
1.99236
2.08139
2.0746
2.11236
2.14758
2.22353
2.21483
2.23556
2.24337
2.27151
2.2787
2.299
2.28966
2.30192
2.29647
2.28627
2.29889
2.28532
2.2865
0.000985788
0.000862298
0.00101
0.00067133
0.000643094
2.88941e-18
0.000509168
0.0678786
0.00100427
0.42306
0.473528
0.000992256
0.153024
0.469003
0.423374
0.446852
0.430477
0.420397
0.43136
0.357967
0.263681
0.00100986
0.000648283
0.000938422
0.000788581
0.00100179
0.000616531
0.000997704
0.000180038
0.000954666
0.000624923
0.00101
0.000209386
0.000613088
0.00100863
0.00198077
0.000993335
0.000918269
0.000980183
0.00364576
3.72391e-05
0.000210438
0.00024578
0.00100938
0.00081657
6.4021e-09
0.000999408
0.00100983
0.000216502
0.000848872
0.00100647
0.000131712
0.00100976
0.000959372
0.000155711
0.000986414
0.000975827
0.000989973
0.00363632
0.000980885
0.000655599
0.00098777
0.000776699
0.000636978
0.00129389
0.00129382
0.00129384
0.000900202
0.000946957
0.000832782
0.000987787
0.000948013
0.000941776
0.000961192
0.000871734
0.000897996
0.000947049
0.000951887
0.000925848
1.67713e-05
0.000881191
0.00092376
0.0003855
0.000414352
0.00098456
0
0
0
0
0
0
0
0
0
0
0
0
0
0
0
0
0
0
0
0.000870426
0.000943785
0.00101
0.000948967
0.00156376
0.00065291
0.00107656
0.000896143
0.001063
0.000904168
0.000737601
0.000991424
2.53545
2.55912
2.56604
2.51979
2.52815
2.51605
2.51749
2.41078
2.42298
2.44301
2.46384
2.45465
2.48617
2.51832
2.35482
2.40553
2.32155
2.35611
2.35673
1.41318
1.40892
1.32257
1.2817
1.38429
1.32173
1.32076
1.18717
1.22003
1.08246
1.05497
1.05362
1.05649
1.03261
0.000942215
0.000660908
0.971213
1.07812
0.857189
0.000952845
0.000974084
0.812847
0.808151
0.000671453
0.000632291
0.549293
0.683203
0.00069782
0.00101713
0.000701445
0.000783485
0.406487
0.419074
0.00740851
0.0339749
0.089691
0.184531
0.34269
1.3806
1.42959
1.39618
1.37076
1.13974
1.14347
1.16648
1.23334
1.35893
1.35527
1.305
1.34628
1.35413
0.00100999
0.00060532
0.000473483
0.000951636
0.000983083
0.000986817
0.00112051
0.00112079
0.000324535
0.000835793
0.000599435
0.0132925
0.011695
0.0255558
0.0610775
0.101657
0.0587643
0.142085
0.106352
0.0560414
0.0996172
0.101202
0.101
0.000995064
0.000851732
0.00110746
0.000570634
0.00039799
0.00101
0.000989429
3.7271e-05
0.000733696
0
0
0
0
0
0.000500823
0.000891535
0.000776104
0.000527497
0.000235529
0.000537112
0.0342629
0.0604382
0.124618
0.000559957
0.000330188
0.000180619
0.220286
0.102141
0.144212
0.172918
0
0
0
0
0
0
0
0
0
0
0.944606
0.867036
0.861943
0.8026
0.805319
0.778082
0.792916
0.765218
0.803117
0.729744
0.735192
0.643754
0.657475
0.562631
0.564713
0.535976
0.534143
0.689185
0.660699
0.54573
0.535153
0.540722
0.530917
0.759398
0.802411
0.644534
0.615643
0.684717
0.80458
0.863556
0.819094
0.545989
0.502112
0.570549
0.595653
0.497705
0.479184
0.471175
0.442156
0.467217
0.442724
0.464087
0.483238
2.20606
2.19013
2.12858
2.21519
2.14608
2.20564
2.23085
2.22681
2.23305
2.28412
2.22485
2.31615
2.28185
2.34709
2.07136
2.09246
2.08986
2.11085
2.09465
2.12034
2.12653
2.10773
2.03753
2.04521
2.05298
2.06168
2.06121
2.0615
1.77538
1.69635
1.58355
1.60264
1.50326
1.59555
1.60861
1.66525
1.83939
1.8411
1.84113
1.81958
1.92942
1.97411
1.89531
1.85072
1.97599
1.97538
1.98329
2.00238
2.0344
2.0224
2.0351
2.03546
2.03614
2.03507
2.03417
2.0354
2.03474
2.03569
1.15512
1.06156
1.3299
1.33092
1.24311
1.33657
1.33367
1.43501
1.05808
1.05837
1.03864
1.0204