/*--------------------------------*- C++ -*----------------------------------*\
  =========                 |
  \\      /  F ield         | OpenFOAM: The Open Source CFD Toolbox
   \\    /   O peration     | Website:  https://openfoam.org
    \\  /    A nd           | Version:  8
     \\/     M anipulation  |
\*---------------------------------------------------------------------------*/
FoamFile
{
    version     2.0;
    format      ascii;
    class       surfaceScalarField;
    location    "17700";
    object      phi;
}
// * * * * * * * * * * * * * * * * * * * * * * * * * * * * * * * * * * * * * //

dimensions      [0 3 -1 0 0 0 0];

internalField   nonuniform List<scalar> 
788991
(
-0.0271583
-0.0262772
-0.0573682
-0.0307571
0.0522281
-0.0359272
-0.061122
0.0217907
-0.0292812
0.0695077
0.00508165
0.0387057
0.0216145
-0.0297592
-0.0151063
-0.0423537
-0.00406697
-0.0142369
-0.0175201
0.0327328
0.0216354
0.0224443
-0.0205225
0.0388944
-0.0454809
0.0196438
-0.00149992
0.0296859
-0.0327458
-0.000171867
0.00664194
0.0109847
0.0280378
-0.00523059
0.0536536
-0.00307139
-0.0209617
-0.0179886
-0.0563574
-0.000376264
-0.0885483
0.0582625
0.0489649
-0.0435937
0.0614571
0.0329699
-0.00576679
0.0503153
-0.0392713
-0.0374537
-0.1662
0.0993866
-0.00325549
0.0231491
0.0771491
0.0548819
0.011334
0.0239104
0.050271
0.0569831
0.000481332
-0.0151368
-0.0942052
0.0251241
-0.018684
0.015286
-0.00862382
-0.0208194
0.0597917
-0.0296075
-0.0149183
0.0293711
-0.0221293
0.047042
0.0411314
-0.0244501
0.0473518
-0.0412091
0.0568151
-0.000148702
0.0792593
-0.119756
0.077469
-0.0268854
0.00741437
-0.0612567
0.0126973
-0.031732
-0.0230665
-0.0457192
-0.0052841
-0.0327718
-0.0520481
-0.0455448
0.0299016
-0.0114785
-0.042222
0.0479571
-0.0462413
-0.0420399
-0.00370441
-0.0463629
-0.0500422
-0.0403092
-0.0502454
-0.0279709
-0.0657643
0.0285506
-0.0394188
0.050012
-0.0214458
-0.0705991
-0.045778
-0.0520598
-0.0881649
-0.0415063
-0.0830947
-0.0491783
-0.0369398
0.0731247
0.0554415
-0.100343
0.0638093
-0.00657817
-0.0662497
-0.10943
0.0263469
-0.0457979
-0.0463346
0.0772338
0.0369871
0.0114917
-0.0993021
-0.0468065
0.0246184
-0.02764
0.0230253
0.0425418
0.00234369
0.0354703
-0.00312368
-0.0123416
0.0132236
0.029727
-0.00685146
-0.0321892
0.0115521
-0.00768194
0.00146273
0.00392329
-0.037558
-0.022278
-0.0356221
-0.0217893
0.00876226
0.00666615
-0.0313791
-0.04235
-0.080418
0.0520408
-0.0471312
0.0867226
-0.0312632
-0.0743736
0.0340297
-0.0420817
0.0693876
-0.023273
-0.0809238
0.0457107
-0.0417068
0.0710718
-0.0135474
-0.0711654
-0.0499144
-0.0491366
-0.0687593
0.00681405
-0.0729043
-0.0630407
-0.0626381
0.0575873
0.0147941
-0.0628152
0.0727712
-0.0726836
0.0527669
0.0111478
-0.0551725
-0.0668059
-0.0696733
-0.0442358
0.0118643
-0.045251
0.0559146
-0.0539683
0.0319379
0.00646937
-0.0387194
0.0557845
-0.0487832
-0.0448122
-0.00258706
-0.0547122
-0.0697873
-0.062314
0.0685369
0.0724346
-0.0839089
-0.0405948
-0.0717965
-0.0415977
-0.023128
-0.0456184
0.0249428
-0.0283293
0.0623816
0.0174102
0.00804875
-0.0471425
0.0357657
-0.0226933
-0.0545216
-0.0276002
-0.0158173
-0.0658961
-0.0429536
-0.0375098
-0.0577253
0.0409776
-0.0438749
-0.0773905
-0.0367864
-0.0272171
-0.0970415
0.0544348
-0.0636505
-0.0811146
-0.0503587
0.010975
-0.0388095
-0.0526651
-0.0357747
-0.0728667
0.038228
-0.0397541
-0.0824946
-0.0473165
-0.0219906
-0.0731075
0.0375702
-0.0143629
-0.0734926
0.0507651
0.00403893
-0.0758225
0.0618445
0.0108514
-0.0636197
-0.066729
0.00912466
-0.049752
0.0599495
0.00936412
-0.0411759
-0.0548468
0.00421517
-0.0441977
0.0603278
-0.0162896
0.0350835
-0.0433166
-0.0735844
-0.0612688
0.050562
-0.0824113
-0.0828839
-0.0231198
-0.0457268
0.0577302
-0.0801927
-0.0321411
0.0656637
0.046112
0.0226923
-0.0260172
-0.0610936
-0.0546417
0.0623435
-0.0254745
-0.049607
-0.0437052
0.0619853
0.0238548
0.053726
-0.00267916
0.0475734
0.0762861
0.00644389
-0.0436292
-0.0383805
-0.00773402
0.0418872
0.0317295
-0.000460349
0.0281732
0.0201554
0.000627931
0.0345653
0.0285392
-0.044377
0.0566096
0.0495699
-0.00551954
-0.023102
-0.00471627
0.0899097
0.0512005
0.152541
-0.0182338
0.00543079
-0.0923345
0.0519304
-0.031184
-0.0188724
-0.0201825
-0.0299617
0.0218095
-0.0482744
-0.0388675
-0.0627083
-0.0383516
0.00784427
-0.0264192
0.0479146
0.0281483
-0.00926086
-0.0616164
0.0226494
-0.039733
-0.0586686
0.0273696
-0.0447184
-0.0688082
0.0294769
-0.0573679
0.0732784
0.0490563
-0.0478989
0.102291
0.0425384
-0.0576294
0.0928502
0.033033
-0.054233
0.0832388
0.0959364
-0.378072
-0.0391646
0.0459766
0.0611026
0.0507379
0.137536
-0.00913045
0.0200821
0.0919963
0.0155874
-0.000974811
0.0558102
0.00605488
0.00991573
0.00522106
0.00132714
0.0252883
-0.0201699
-0.0291255
0.0238318
0.00560492
-0.0207403
-0.0571419
-0.0239307
0.0271627
0.0311521
-0.00285836
-0.0695503
0.0290859
-0.0441273
0.0786948
0.0207098
-0.0381168
-0.0637762
0.0137395
-0.0455082
0.0641983
-0.00751242
-0.0564456
0.0552645
-0.0197657
-0.0683552
-0.0499253
-0.0173504
-0.0696856
0.0436231
-0.071494
-0.0810143
-0.00813736
0.0883133
-0.0132812
-0.000954652
-0.110726
-0.0924536
-0.0970963
0.0700033
-0.0844392
-0.0825484
0.0150759
-0.0166212
0.0868805
0.00939258
-0.0873968
-0.0154792
-0.0549678
-0.0280047
-0.00886529
-0.0440109
0.0366036
-0.00401168
-0.0545635
0.0562434
-0.0374547
-0.0674873
0.0479141
-0.0809946
-0.00134645
-0.0816513
-0.0979044
-0.107555
-0.0976418
0.0970747
0.00752055
-0.0381995
-0.0522876
-0.0581669
0.0286313
0.00112372
-0.0517685
-0.0124045
-0.0378739
-0.0458452
-0.0284148
-0.0299674
0.0574953
-0.0210575
-0.0551915
0.0246236
-0.0373255
-0.0741091
-0.0279356
-0.0474351
-0.0841699
0.039348
-0.0251731
-0.088941
0.0500863
-0.0648045
-0.0743158
0.0572994
0.0151174
-0.030707
-0.0525124
-0.0436311
-0.0737049
-0.050514
-0.0298327
-0.0720033
0.036273
-0.0226256
-0.0715655
0.0452848
-0.0131462
-0.0718632
-0.051952
0.00535962
-0.0750799
0.0618708
0.0112213
-0.056486
0.0603155
0.00765821
-0.0422446
0.0535359
0.00262674
-0.0415164
-0.0564806
0.00897203
-0.0534931
-0.0680504
-0.0365189
0.0333791
-0.0751353
-0.0584041
0.0378155
0.075692
-0.0246282
0.0689652
0.0780823
-0.0416325
0.0573547
-0.0759382
0.0856161
-0.0101959
-0.0824088
0.012617
-0.102253
-0.00340236
0.0968855
0.000995256
0.104919
-0.0856246
0.0769742
-0.104031
-0.0371179
0.000370391
0.109251
-0.0769584
0.00101438
-0.0473217
0.019753
-0.108544
0.020632
-0.0507111
-0.0451001
-0.00515668
0.00344204
0.0459346
-0.0299434
-0.0395702
0.0589422
-0.0543215
-0.00385817
0.0509998
0.0264395
0.0206941
0.0365266
0.0109077
0.00287897
-0.00721275
0.034514
-0.00852438
0.0118503
-0.0286397
-0.00893077
0.0333239
-0.0025563
-0.010666
-0.0148931
0.0128405
-0.0398647
-0.078245
0.031997
0.0148742
0.0414889
0.0246735
-0.022731
0.0185868
0
-0.112189
0.256594
0
0
-0.297073
0
0.184267
0.00192859
-0.0580656
0.0485908
-0.0156059
-0.0776946
0.10476
-0.0348765
0.0085086
-0.0238467
-0.0173483
0.0248894
-0.0435293
0.0246173
-0.0275626
-0.0374422
0.0118622
-0.00889745
-0.0487507
0.0192329
-0.054133
0.0573168
0.021878
-0.0393535
-0.0862237
0.0345502
-0.0485977
0.0779003
0.0370522
-0.0572192
-0.0889862
0.0331555
-0.0588224
0.0827476
0.0345658
-0.0428308
-0.0876528
0.0288394
-0.0445919
-0.0754755
-8.90778e-07
0
2.13041e-05
0
0
2.85641e-06
8.17768e-06
-2.26063e-05
1.60089e-05
9.54683e-08
2.26249e-06
0
0
0
0
0
0
0.221189
0
0
-0.00633427
0.0301207
0.155225
0.00908909
0.0418032
-0.0308428
-0.00070113
0.0347812
0.0537504
0.0214938
0.0366575
0.0739177
-0.0154452
0.00453245
0.0504603
0.00192414
0.008633
-9.30575e-05
-0.0102404
0.0412497
0.0041084
0.0207355
0.0422146
0.00113993
-0.0606694
0.0552503
-0.00616179
-0.0331219
-0.00236622
-0.03295
-0.0534284
0.0169894
-0.0402666
-0.0629743
0.0108091
-0.0388026
0.0553728
-0.0056572
-0.0482898
-0.0469248
-0.019335
-0.0623126
0.0483803
-0.0200716
-0.0668838
0.0471259
-0.0213975
-0.0595791
-0.0318899
-0.0721555
-0.0719329
-0.00192862
-0.0761194
-0.0103066
0.0964403
-0.0756631
0.0165864
-0.0918254
-0.108084
0.0920829
-0.010761
-0.0807307
-0.0706157
0.0631687
0.0022502
-0.0159113
-0.043476
-0.0287962
-0.0145911
-0.0468517
-0.0419792
-0.028099
-0.0623195
-0.0459255
-0.0133201
-0.0778507
0.0580617
-0.0766371
-0.113165
-0.0357265
-0.122305
-0.0472815
-0.043493
0.117051
-0.120421
-0.119997
-0.000387509
-0.0680799
-0.101504
-0.0381333
-0.0671567
-0.106289
-0.0483932
-0.106614
-0.0676557
0.0393501
-0.034302
-0.0158945
-0.0619007
0.0182206
-0.0191454
-0.00741806
0.0235652
0.0149842
-0.0784035
0.0105881
-0.030447
-0.0349491
-0.034517
-0.0613336
0.0225807
-0.0589693
-0.0714028
0.024523
-0.0496334
-0.076272
-0.0248156
-0.0376568
-0.071637
-0.0355317
-0.020953
-0.0778258
0.0497004
-0.0629544
-0.0731231
-0.0573739
-0.0115715
-0.0292588
-0.0542051
-0.0301799
-0.0673004
-0.044571
-0.0302303
-0.0696523
0.0450564
-0.0164314
-0.069405
0.0444045
-0.00901869
-0.0710197
0.0567975
0.0102048
-0.0703944
0.0606263
0.0126866
-0.0513369
0.0583304
0.00608818
-0.0429174
-0.0578501
0.00409069
-0.0493398
0.0647435
0.0137851
-0.0575787
0.0723102
-0.0368189
0.0426543
-0.0748291
-0.0553797
0.0457068
-0.074689
-0.0148523
0.0699072
-0.0753296
-0.0291717
0.0629949
0.072109
0.0850205
-0.00277302
0.0810037
0.0132434
0.102182
-0.0950998
0.00559786
0.10384
-0.0860788
0.0821529
0.00063791
-0.115512
0.0795063
-0.0378095
0.118353
0.121106
-0.000525549
-0.0441436
0.119907
0.0273642
0.00874113
-0.0706896
-0.0370645
0.169311
0.0576455
0.0336168
0.137829
0.00638589
-0.0212842
0.0787671
0.0183757
-0.0298425
-0.00798073
-0.0223225
0.00626303
0.0423004
-0.0240663
-0.0203046
0.00637286
-0.0135951
-0.0250524
0.0318357
-0.0243499
-0.0507652
-0.008404
-0.0396172
0.0357249
-0.0467045
-0.0483299
0.00385814
0.047494
0.0226557
-0.0478621
-0.00133002
0.011371
-0.0394373
0.00609205
0.000841741
0.0730383
0
0
0
0
0
0
-0.247844
0
0
0.0731766
0.0846285
-0.033082
0.0965701
0.022009
0.155013
0
0
0
0
0
0
0
0
0
-1.96679e-05
0
-9.6561e-06
0
-1.79082e-05
-1.72309e-05
-1.07782e-05
0
1.06608e-05
-3.9833e-05
1.09023e-05
0
1.72203e-05
0
0
0
0
0
0
0
0
0
0
0
0
0
0
0
0
0
-0.00625102
0.0406723
0.0495612
-0.0160755
0.0137862
-0.0405057
0.0416554
-0.0203754
-0.0420855
0.00204023
-0.0571919
0.0550057
0.0236567
-0.0376359
0.060354
0.0216371
-0.0696661
-0.0753016
0.0360894
-0.0503033
0.0934033
0.0390276
-0.0507572
0.0830213
0.0301363
-0.0464504
-0.0733768
0.0269128
-0.0439445
0.0686908
0.0196718
0.060997
-0.0323171
0
0
0
0
0
0
0
0
0
-5.03828e-07
0
0
0
0
0
0
0
0
0
0
0
0
0
0
0
0
0
0
0
0
0
0
0
0
0
0
0
0
0.126886
0.028818
0.0737397
0.0594304
0.144178
-0.0192748
0.038356
-0.0453296
0.0209767
0.0844773
0.0126032
-0.014597
0.054095
0.044354
0.00914092
0.0212186
0.0433103
0.0141351
0.0501482
0.0110612
-0.0137146
0.0302877
-0.00498776
-0.0266155
0.0410507
-0.00634458
0.0384445
0.0249037
-0.0203469
-0.0383965
-0.00885093
-0.0356233
0.0318066
1.81696e-05
0
0
-4.8046e-05
-1.51802e-06
0
0
2.10921e-05
0
0
0
0
0
0
0
0
0
0
0
0
0
0
0.00840835
-0.0380871
-0.0507788
-0.00823566
-0.0434551
-0.037757
-0.0172686
-0.0563065
0.0412365
-0.0190037
-0.0665879
0.0494823
-0.0204241
-0.0629927
0.0426824
-0.0164224
-0.0464044
-0.0344571
-0.0636952
-0.0651074
0.00911866
-0.0214731
-0.0832442
-0.0591266
-0.0839292
-0.0865335
-0.0158828
-0.0654106
-0.104362
0.0398281
-0.0658033
-0.071866
0.00834422
-0.0585857
-0.0720533
-0.00880341
-0.016252
-0.0413483
0.0375702
-0.0230441
-0.0589105
-0.0443216
-0.0232136
-0.0763046
0.0497466
-0.0654654
-0.0751867
-0.016773
-0.119467
0.153981
-0.000128068
-0.119551
0.0287598
-0.113849
-0.144183
-0.0236239
0.0349714
-0.1095
0.141155
-0.11392
0.0292372
-0.121449
-0.114211
-0.00197584
-0.13662
-0.115741
0.0240461
-0.0582741
-0.103907
0.0471759
-0.111567
-0.105068
0.00952892
-0.104623
-0.055276
-0.0457824
0.0111215
-0.00705723
0.0249244
-0.0800198
-0.0514007
-0.0819628
-0.0297157
0.0203387
-0.0407774
-0.0290105
-0.033143
0.0500821
-0.0588067
-0.0605334
-0.0195308
-0.0644645
-0.0793015
-0.0155259
-0.0458824
-0.0744138
-0.0157411
-0.0369185
-0.0652858
0.030052
-0.0229031
-0.0785718
0.0468982
-0.0621584
-0.0777937
-0.0522106
-0.0161925
-0.0257505
-0.0514444
-0.0320514
-0.0661603
0.0455499
-0.0235476
-0.0698111
-0.0411535
-0.0146084
-0.0729467
0.0499051
-0.00325075
-0.0696185
-0.0571983
0.0134172
-0.0676306
0.0605776
0.0136073
-0.0512884
-0.060477
0.00919365
-0.0459491
0.0642968
0.0118622
-0.0514552
-0.071442
0.0241553
-0.0563276
-0.0751803
-0.0271561
0.0511726
-0.0722241
-0.0484466
0.0526556
0.0721643
-0.00622199
0.0771291
-0.0774765
-0.0200396
0.0726004
-0.0745874
0.089822
0.00348645
-0.0811404
0.0153583
0.108851
-0.104805
0.00875258
0.114061
-0.0932147
0.0802115
-0.00202135
-0.114336
0.073126
-0.0392767
-0.11509
0.124313
-0.0449151
-0.118908
0.14949
0.00176517
0.109523
0.129676
0.0300951
0.0317047
-0.0992698
0.0867873
-0.102468
0.113856
-0.027162
0.0254858
0.0915959
0.0223078
0.110702
0.0225871
-0.0721619
0.0686016
-0.0718701
-0.0133509
0.0199347
-0.054511
0.0733191
-0.0558881
0.0246559
0.0147379
-0.0459469
0.0760805
-0.0488586
0.0374182
0.0263504
0.0391171
-0.063812
-0.0404207
0.0266157
0.0373005
-0.0313749
0.0539802
-0.0362141
0.0197155
0.0321032
-0.0287401
0.0499164
-0.0350342
-0.0143804
0.0250311
-0.0259065
-0.0333907
0.052209
-0.0205112
0.0269575
0.0242452
0.0133398
-0.0137544
-0.0334999
0.0563017
-0.0538967
0.0459289
-0.0238617
-0.0993717
0.0479863
0.0152804
-0.0274256
0.0402457
-0.00404506
0.046645
0.0342861
0.0331659
-0.0465424
-0.0453493
0.011559
0.0253065
0.0452639
0.0137283
0.037909
0.0115815
-0.0464086
-0.017665
-0.0202364
0.0342385
-0.0624449
-0.0653352
-0.0179273
-0.0282483
-0.0641357
0.0383772
-0.0631459
0.00993046
-0.0517879
-0.0667398
0.0591634
-0.0622754
0.0714011
0.0294654
-0.0191031
0
0
0
0
0
0
-0.116622
0
0
0.0732058
0
0.0991711
-0.0160158
0.0771512
0.171669
0
0
0
0
0
0
0
9.90242e-05
1.56979e-05
0
0
0
0
0
0
0
0
0
0
0
0
-5.86064e-05
0
0
0
0
0
0
0
0
0
0
0
0
0
0
0
0
0
0
-1.52671e-05
0
-2.95993e-05
-0.000141834
-0.000233699
2.70652e-05
1.98741e-05
0
-0.000273255
0.000160737
0
-3.63899e-05
0
-0.00011065
0
0
0
0
0
0
0
0
0
0
0
0
0
0
0
0
0
0
0
0
0
0
0
0
-0.0173643
0.00307219
-0.057407
-0.0186781
0.0187701
0.0414564
0.0233908
-0.035474
0.057243
0.0348209
-0.0149572
-0.0926148
0.0345203
-0.0382963
-0.0957463
0.0363662
-0.0572981
0.0916119
0.034258
-0.0555919
0.0777515
0.0176036
0.0106533
-0.0471545
-0.0324784
0.0253158
-0.052718
0.0734478
0.0307638
-0.030253
0.0549045
0.0486865
-0.0346429
0
0
0
-2.74281e-05
2.80146e-05
5.36426e-05
0
0
0
0
0
0
3.97749e-05
0
-1.51817e-05
0
0
0
0
0
0
0
0
0
0
0
0
0
0
0
0.00252182
0.0736928
-0.0398303
0.0883791
0.0387235
-0.0226121
0.00910254
0.0253696
0.020427
0.0584694
-0.0156014
-0.0381442
0.077792
0.00430993
0.0346823
0.0358279
0.0218992
-0.0117632
0.0357268
0.0105496
-0.0120892
0.0302342
0.0230041
-0.0493636
0.0142165
-0.00278665
0.024308
-0.00268445
-0.00627915
0.0613726
0.0416042
0.0069341
-0.0534114
0.0618785
-0.044076
0.0116909
0
0
0
0
0
0
0
-5.51335e-07
0
3.14138e-07
0
-5.89772e-07
-5.84588e-08
0
0
0
0
0
0
0
0
0
0
0
0
0
0
0
0
0
0
0
0
0
0
0.00491094
0
0.0123488
-0.00910577
-0.0415371
0.0343167
-0.0187696
-0.0505547
0.0316902
-0.0174295
-0.0610145
0.0415764
-0.0171207
-0.0614899
-0.0433407
-0.00996219
-0.044953
0.0405314
-0.0101078
-0.0370087
0.0386059
-0.0329463
-0.0712799
0.0305077
-0.0814128
-0.0735539
-0.0102059
-0.0660294
-0.0925677
0.0298147
-0.0527686
-0.0962968
-0.0444551
-0.0631625
-0.073935
-0.0105679
-0.0456717
-0.0674082
0.0248364
-0.0168344
-0.0553648
0.0452444
-0.0189839
-0.0698768
0.0494388
-0.047021
-0.0694727
-0.0276025
-0.0542273
-0.0669428
0.0165107
-0.108059
-0.132142
-0.0302587
-0.11747
-0.144754
-0.0234083
-0.111096
-0.136567
-0.0145966
-0.138779
-0.111295
-0.0279119
-0.0868549
-0.0859291
0.0141919
-0.100192
-0.103183
-0.0204683
-0.0799724
-0.0737252
-0.0195057
-0.0861157
-0.0590419
0.0395838
-0.0671901
-0.0457462
-0.0215891
-0.0560411
-0.0447268
-0.0112765
-0.0510457
-0.0433879
0.00913577
-0.0536225
-0.0420064
0.0128584
-0.0313723
0.0256902
0.0219421
-0.0556878
0.0274883
-0.0394708
-0.0594064
-0.0228433
-0.141736
-0.117133
-0.0282188
-0.124225
-0.107023
0.0128613
-0.0925013
-0.0926557
0.0188907
-0.142723
-0.0283087
-0.109049
-0.0957718
-0.0722722
-0.0315726
-0.00355505
0.0458047
-0.036314
0.0589754
-0.00711588
-0.0371789
0.0522089
0.0108156
-0.0512935
-0.0596786
-0.0533137
0.0265264
-0.0804349
-0.094657
-0.01187
-0.0668055
-0.0805406
0.00153144
-0.035585
-0.0560313
-0.00777921
-0.0393064
-0.0624139
0.0319879
-0.0319505
-0.0988699
-0.0456319
-0.062381
-0.0803247
0.0414403
-0.021224
-0.026833
-0.0439129
-0.028636
-0.0624192
0.0383549
-0.0268519
-0.0737865
0.0434334
-0.0109374
-0.0785254
-0.0491738
-0.0036253
-0.0723418
0.0589183
0.0128324
-0.0695815
-0.0621257
0.0162443
-0.0513592
0.0620786
0.0158949
-0.0432193
-0.0666654
0.0190934
-0.047802
0.0732531
0.0315039
-0.0518725
-0.0751579
-0.0215207
0.0562103
-0.0702632
-0.0443951
0.057119
0.0713869
0.000898015
0.0854199
0.076997
-0.0147753
0.0780751
-0.0742813
0.095698
0.00849917
-0.0824906
0.0156838
0.113503
-0.110077
0.00865343
0.122929
0.100161
0.0774419
-0.000736375
-0.113375
0.0736849
-0.0371877
0.115508
0.116408
-0.0441695
-0.106443
0.126476
0.00368001
-0.0933053
0.0858759
0.028325
0.095118
0.11339
0.0260805
0.0743045
0.0724384
0.0193336
-0.0550814
0.0605981
0.0172744
-0.0432618
0.065621
0.0195541
-0.0376129
0.0687753
0.0291977
-0.0305409
0.0601589
0.0402357
-0.0233499
0.0545262
0.0386443
-0.0193052
0.0505479
0.0397409
0.017769
0.0505588
0.0290869
-0.0155115
0.0537134
0.0350671
0.0408837
-0.0108068
0.0513999
-0.0166172
0.0381839
0.0412235
0.00615842
-0.0496688
-0.0121015
0.0422868
-0.00143752
0.0452059
-0.0309104
-0.061874
-0.0571084
0.0574046
0.0327002
0.0331124
-0.053408
0.0992032
0.0871182
0.0189976
0.101194
0.069336
0.022426
0.0900405
0.0386238
-0.0354157
0.0815531
0.049592
-0.0114107
-0.0239201
-0.0265261
-0.0265455
0.0725793
0.0566598
-0.0637311
0.0140869
0.0183946
0.055764
-0.0801835
-0.025285
0.0309905
-0.0628965
-0.0339301
-0.0459745
-0.0158786
-0.0539908
0.0210141
-0.131378
0.00412614
-0.039317
0.0961733
-0.0901105
0.0200299
0.210417
-0.00572395
0.0303053
0
0
0
0
0
0
0
0
0
-0.051752
0
0
-0.0929026
0
0
0
9.7151e-06
0.000144313
0
0
0
0
7.04089e-05
0
0
0
0
0
0
0
0
-1.50364e-08
-6.36403e-07
0
0
0
0
0
0
0
0
0
0
7.8279e-06
0
0
0
0
3.71243e-05
0
0
-8.34338e-05
0
0
0
0
0
0
0
0
0
0
0
0
0
0
0
0
0
0
0
0
0
0
0
0
6.21752e-07
0
0
0
0
-0.0381881
0.00717543
-0.0552537
-0.0175363
0.0535505
0.0455829
0.0395975
0.00797461
0.0588936
0.0120792
-0.081723
0.0709274
0.0355857
-0.0530087
0.0871257
0.0313949
-0.0521158
-0.0904454
0.034784
-0.0422788
-0.0596232
0.00913175
-0.00833714
-0.0298465
-0.0354134
0.0167305
0.0348549
0.0252363
0.0177113
-0.0445404
0.0493437
0.0374363
-0.0189585
-3.10737e-05
0
-9.6969e-06
6.53718e-05
-9.82767e-06
-1.03061e-06
0
0
0
0
0
0
0
0
0
0
0
0
0
0
0
0
0
0
0
0
0
-0.0590358
0
0.0595314
0.00948624
0.289223
0.0844237
-0.00368682
-0.0263845
-0.0452201
0.0158915
0.00288431
-0.0213748
0.0607712
-0.0475358
0.00145428
0.0588706
-0.000132546
0.0380425
0.0462033
0.0266003
-0.0353065
0.0263077
0.0286982
-0.0313667
0.0614792
0.0180686
0.0443729
0.0567126
0.0353779
-0.0614298
0.0381721
-0.00178338
-0.0394661
0.0610979
0.0427885
-0.0503927
0.00743253
0.0333503
0.0421148
0
0
0
0
0
0
0
0
0
0
2.87809e-07
0
0
0
0
0
0
0
0
-0.00750191
0
0
0
0
0
0
0
0
0
0
-0.0092778
0
0.00280353
0
0
0
0
0
0
0
0
0
0
-0.00649582
0
-0.0177394
-0.0419355
0.0265683
-0.0145492
-0.0470807
-0.0288564
-0.00854515
-0.049018
0.0302395
-0.00240598
-0.0427478
-0.035244
-0.00960572
-0.0327106
-0.0126717
-0.0173925
-0.00599599
-0.0387281
0.0370233
-0.0181754
-0.0596917
-0.0394333
-0.0690192
-0.0735031
0.0110397
-0.0707626
-0.0847987
-0.0211669
-0.0551183
-0.0931909
0.0390653
-0.0613891
-0.0997349
0.0374692
-0.0442618
-0.0623565
0.0302684
-0.0663083
-0.0760807
-0.0153666
-0.0241589
-0.0669594
0.0361433
-0.0394327
-0.0566426
-0.0173556
-0.0371842
-0.0601502
0.0223054
-0.0390327
-0.0651531
-0.0336232
0.0057675
0.00881582
0.0353586
-0.0195896
0.0170626
-0.0298724
0.0131237
0.0364417
0.0299316
0.0217229
-0.0369875
0.0406025
-0.0370599
-0.0034889
0.0339749
0.0295063
-0.0452635
-0.00786587
0.0452397
-0.00131907
0.0453341
-0.0410028
0.0441963
-0.00699296
-0.00256924
0.0427092
-0.0351269
0.0456319
-0.0087243
0.00435473
-0.0439783
0.0424329
-0.020038
-0.0324996
0.00576274
0.0395565
-0.0546045
-0.0263125
0.029531
-0.0547516
-0.023057
-0.0354602
-0.0552523
-0.0186015
0.0433243
-0.111627
-0.123477
-0.0205678
-0.11301
-0.138493
-0.0207943
-0.113324
-0.130943
0.00967328
-0.134373
-0.109649
-0.0155628
-0.0825243
-0.0925553
0.0165551
-0.102068
-0.100741
0.00551376
-0.0983684
-0.0777978
0.0450716
-0.0659011
-0.0528002
0.0108973
-0.055988
-0.0544674
0.00114925
-0.0521134
-0.0533642
-0.00127934
-0.056539
-0.0509406
0.00807748
-0.0661149
-0.0485636
0.0213509
-0.036318
-0.0578529
0.0244892
-0.0456244
-0.0649377
0.023064
-0.107148
-0.120951
-0.0092304
-0.134796
-0.106156
-0.1183
0.00408783
-0.122588
-0.106802
-0.00492478
-0.0953681
-0.0290225
-0.0621458
-0.0982532
-0.0299162
0.044719
0.04163
0.0458966
0.0482318
0.00667531
0.0350511
0.046486
-0.00932467
0.0327543
0.0432751
0.015243
0.0302577
0.0462619
0.0179533
0.0210968
0.0497769
0.021993
-6.02991e-05
0.0343346
0.0334314
-0.00449769
0.0292982
0.0422914
0.0431574
-0.00546987
0.0407759
0.0480805
0.0368571
0.0543659
-0.0211324
0.0247734
-0.0146464
-0.00195661
0.0138126
-0.02661
-0.0323848
-0.0949216
-0.0664233
-0.0108636
-0.0743422
-0.0995358
-0.00178091
-0.0362513
-0.0505035
-0.00371139
-0.0195914
-0.037179
0.0124831
-0.0443393
-0.0707202
-0.0485306
-0.0371482
-0.0943298
0.0431322
-0.0520733
-0.0631457
0.0367547
-0.0158375
-0.0226063
-0.0374241
-0.0302111
-0.0622229
-0.0409102
-0.031447
-0.0825069
0.0437657
-0.0135279
0.0484582
-0.0846531
-0.00501851
-0.0667571
0.0594684
0.0130607
-0.0683318
-0.0594927
0.0221418
-0.0460631
-0.0607615
0.0243798
-0.0389785
0.0659393
0.0263504
-0.0410242
0.0718016
0.0314348
-0.0468939
0.0770916
-0.0137111
0.0636041
-0.074626
-0.0474279
0.0638627
-0.0680183
0.0056815
0.0855613
0.0773779
-0.0064559
0.0827599
-0.0775436
0.100269
0.00817514
-0.0893117
0.0167329
0.116038
-0.106551
0.00741473
0.121603
0.099504
0.0777943
0.00293576
0.109746
0.0672237
-0.0331125
-0.110689
0.100275
-0.0422541
-0.086564
0.0863152
0.0106942
0.100255
0.0959827
0.0102574
0.0804402
0.0712302
0.0196212
-0.0566456
0.0595759
0.0158502
-0.041769
0.0558781
0.0178462
-0.0335582
0.0597879
0.0231285
0.0287721
0.0645185
0.0351209
-0.0223798
0.0602381
0.0452632
0.0153204
0.0557078
0.0496188
0.0112626
0.0518561
0.0426604
-0.00911436
0.0509645
0.0527735
0.00545558
0.0484363
0.0402746
0.00203239
-0.00290183
0.0491275
-0.0957438
0.00852944
0.0342747
0.03872
-0.0375304
-0.0897765
-0.0554304
0.0298712
0.0263357
-0.00277255
0.0403913
0.0536305
0.0404477
0.0562862
0.0346672
-0.0648439
0.0587752
0.0308829
0.0270309
0.0151754
0.0508392
0.0277504
-0.0370332
0.0162996
-0.0515583
0.0819494
0.0975643
-0.124005
-0.0717181
0.0206998
-0.0707965
-0.0504862
0.0351173
-0.0578773
0.00578643
0.00674496
-0.0461617
-0.00100861
0.315056
0.195793
-0.119242
0
0
0.00520853
0.109071
-0.0547609
-0.100111
0.240918
0.029787
0.0451559
0
0
0
0
0
0
0
0
0
0
0
0
0
0
0
0
0
0
0
0
0
0
0
0
0
0.00325572
0.00206897
0
0
0
0
0
0
0
0
0
0
0
0
0
0
0
0
0
0
0
-2.38635e-06
5.0129e-06
0
0
0
0
-3.37753e-05
9.28037e-05
0
0
0
0
0
0
0
0
0
0
0
0
0
0
0
0
0
0
0
0
0
0
0
0
0
0
0
8.19058e-06
0
-3.65693e-05
0
0
0
-6.94137e-06
0
1.43701e-05
0.0443028
0.0379099
-0.0329431
0.022099
0.038402
-0.0570299
0.0347901
-0.017969
-0.00324887
0.0406419
0.0417829
0.0145218
0.0309711
-0.045427
0.0176656
-0.0523005
0.0855857
0.0425782
-0.0164413
-0.0902835
0.0293564
-0.0621293
0.0757638
0.0175956
-0.05329
0.0535882
0.0231526
-0.0206412
-0.0401541
0.00264353
0.018776
-0.0253284
0.00794657
0.0212554
0.0175326
-0.0255369
0.0237928
3.49519e-06
0
0
0
0
0
0
0
0
0
0
0
0
0
0
0
0
0
0
0
0.0194902
0.045011
-0.0469513
0.000190692
0
0
0
0
0
0
0.237085
0
-0.0376294
-0.0106045
0.098514
0.00632459
-0.0136033
0.0221569
0.00253941
0.0239615
0.0144619
0.0459795
0.00767425
-0.033769
0.0516046
0.0147957
0.0272015
0.00824048
-0.00134038
-0.0230981
-0.00181619
0.0695837
0.0188297
-0.0269251
0.0572986
0.0168884
-0.0330136
0.0814173
0.0177196
0.0365832
0.0322562
-0.0207401
-0.0114726
0.0393171
-0.024763
0
0
9.15363e-06
8.12892e-07
0
0
0
0
0
0
0
0
0
0
0
0
0
0
0
0
0
0
0
0
0
0
0
0
0
0
0
0
0
0
0
0
0
0
0
0
0
0
0
0
0
0
0
0
0
0
0
0
0
0
-0.0128535
-0.0149226
-0.023949
0.00549989
-0.00839267
-0.0323046
0.0188586
-0.002679
-0.0317177
0.0168056
0.00219565
-0.0304418
0.0234561
-0.00127118
-0.0328164
-0.0307013
-0.0219272
-0.00714211
-0.00544101
-0.0147837
-0.0547907
0.0368134
-0.0233913
-0.0604981
-0.0289184
-0.0704832
-0.0898667
0.0182414
-0.063604
-0.0975549
0.0324904
-0.0667019
-0.0998615
0.0286411
-0.0511704
-0.098843
-0.0406625
-0.0719171
-0.0824556
0.0227467
-0.071797
-0.101145
-0.0227802
-0.0435278
-0.0508316
-0.00691878
-0.0394405
-0.0515558
-0.0111611
-0.0368698
-0.073358
0.0333589
-0.073107
-0.0885237
0.0238886
-0.0217855
0.0121713
0.0296467
-0.0169648
0.0138956
0.0448815
0.0063878
0.0222171
-0.0482173
-0.024438
0.0209474
-0.0579912
-0.046554
-0.0108547
-0.0427873
-0.0406811
-0.00507823
0.0426706
-0.0313071
0.00379177
-0.041885
-0.0111753
0.0132699
-0.0407639
-0.0605025
-0.0340606
-0.0294115
-0.0627376
-0.0301616
0.0399721
-0.0550621
-0.0228702
-0.0391501
-0.119016
-0.115307
0.00192726
-0.112689
-0.12486
0.00475509
-0.118611
-0.121848
0.00411558
-0.12084
-0.117458
-0.00687899
-0.0984272
-0.122755
0.0455162
-0.0379206
-0.1148
-0.0640991
-0.0229826
-0.0772054
-0.0621524
0.00219729
-0.0868787
-0.0758991
0.00179383
-0.05359
-0.0623624
-0.00995496
-0.0524401
-0.0621253
-0.0104335
-0.060622
-0.0604926
0.000680971
-0.0730842
-0.0570578
-0.0187955
-0.0715747
-0.0529201
-0.0220644
-0.0423599
-0.0655243
-0.0268984
-0.0507664
-0.0733869
0.0273668
-0.113202
-0.0883723
0.00347356
-0.109372
-0.11512
0.00539509
-0.113376
-0.125776
0.00968307
-0.116092
-0.111609
-0.00841499
-0.0679091
-0.0941645
-0.00640298
-0.0862745
-0.0779728
-0.00135361
0.0394514
0.0445748
0.0479021
-0.0102761
0.035305
0.0505286
-0.0136616
0.0281563
0.0152356
0.0471904
0.0281013
0.0453963
0.0204748
0.0231307
0.0472521
-0.0258618
0.00409285
0.0486998
0.0271896
-0.00702464
0.0358706
-0.0362911
-0.00962839
0.0248472
0.0486938
-0.0190454
0.0356741
-0.0532766
0.0295277
0.0491787
0.0223268
0.0236147
-0.0320802
0.0299559
0.0383409
0.0568214
0.0255027
0.0391247
0.0784432
-0.0608124
-0.00197251
0.0549256
0.0560897
-0.0806692
0.0272512
-0.113734
-0.0761631
0.0359144
-0.0516059
-0.0750851
-0.0170248
-0.0197407
-0.0108324
0.00621032
-0.0161012
-0.0370553
-0.0334098
-0.0482494
-0.0664287
0.0535473
-0.0235561
-0.0777892
-0.0313271
-0.0474954
-0.0407474
0.0494651
-0.00392098
-0.0244456
-0.0384172
-0.0403868
-0.0716392
0.0428676
-0.0362579
-0.00606245
-0.0514486
-0.0922724
0.0158663
-0.0471229
-0.00462169
-0.0565184
0.0575984
0.0151337
-0.0607378
0.0557609
0.0272251
-0.0439031
-0.0595972
0.0333619
-0.0357582
0.064097
0.0349677
-0.0358314
-0.0700168
0.022718
-0.037249
-0.0828798
-0.0037993
0.0751579
0.0820742
-0.0610372
0.0814037
0.0854921
0.00815716
0.0902959
-0.0829849
-0.00730521
0.0882431
0.0820978
0.104631
0.00780616
-0.0948702
0.0175318
0.108339
-0.0982285
0.00769928
0.113016
-0.094732
0.0774386
0.00772302
-0.0968441
0.0504179
-0.0184414
-0.0959236
0.0845934
-0.044307
0.0928468
0.0397279
-0.0788257
0.0762625
0.0144172
-0.0560128
0.0535672
0.0178741
-0.0372423
0.0482043
0.0128443
0.027691
0.0498819
0.019318
-0.0217397
0.0562092
0.0277971
0.0169649
0.0611146
0.0409882
-0.011823
0.0583793
0.0509307
-0.00605875
0.0590716
0.053931
-0.00134619
0.0524569
0.0636573
0.00242372
0.0479521
0.0423132
-0.00192684
-0.00710445
0.0589164
-0.0729424
0.072404
0.0323487
-0.173022
-0.164927
-0.0732283
0.0115511
-0.00444414
-0.176621
0.0383657
0.0681738
0.0584204
-0.0210228
0.116495
0.0266842
-0.135367
0.091598
0.0260241
0.0887235
0.0190214
0.0524566
-0.000217801
-0.074355
0.0457603
0.0967418
-0.149709
0.00428853
0
-0.131212
0.194855
0.37032
-0.0709572
0.194109
-0.212466
0.0488064
-0.014157
0.0427923
-0.302323
-0.0865026
0
0
0
0
0
0
-0.279115
0
0.0203071
-0.267669
-0.339242
0.537832
-0.174659
-0.0665508
-0.0862482
0
0
0
0
0
0
0
0
0
0
0.00379222
-0.00312002
0
0
0
0
0
0
0
0
0
0.00459258
0
-0.00203351
0
-0.00276976
0
0
0
0
4.89344e-06
0
-2.82776e-05
0
0
0
0
0
0
0
0
0
-2.60516e-05
-1.37478e-05
-4.16989e-05
0
-8.72337e-06
0
-3.37008e-06
-9.18274e-05
9.83394e-05
0
-0.000131892
0
0
0
0
7.76889e-06
0
-5.57975e-05
0
-9.61625e-06
-1.74567e-05
0
0
0
0
0
0
0
0
0
0
0
0
0
0
0
0
0
0
0
0
0
-4.08918e-06
0
5.98677e-06
0
0
0
-3.7403e-05
0
0
0
0
0
0
0
0
0.0536717
0.0126938
0.0593777
0.0114339
0.0525141
0.0424761
-0.0224391
0.0693589
0.0353972
0.0696403
-0.0317006
-0.0351057
0.04945
0.0235882
-0.0364201
0.0174228
-0.0562581
-0.0296963
0.0202348
0.0269552
0.0251466
-0.0177464
0.0544362
0.0119535
-0.0679791
-0.05903
0.0285726
-0.00863729
-0.0429505
-0.00190663
-0.0453294
0.0205838
0.00579091
-0.00922274
0.0163613
-0.00302616
0.00487375
0.0201313
-0.0130168
0.0106814
0
0
0
0
0
0
0
0
0
0
0
0.025869
0.0427169
0.0394554
0.00541902
0
0
0
0
0
0
0.0109225
0.0326836
-0.0106557
0
0
0
0
0
0
0.0246261
0.136696
-0.0481295
0.00736685
0.0054257
-0.0456967
0.00999567
0.0204935
0.0531218
0.0303355
0.0405783
-0.00882435
0.0534572
0.0171074
-0.0395887
0.0461213
0.0270521
-0.0387558
0.0555837
0.0223963
-0.0116943
0.0269613
0.0241679
0.0460267
0.0100865
0.0162305
-0.03507
0.0131851
0.0306439
0.0446821
0.0394104
0.0331463
-6.025e-08
0
0
7.08452e-07
0
-7.69494e-06
0
0
0
0
2.19724e-09
0
-1.61888e-06
0
1.62444e-06
0
0
0
0
0
0
0
6.53609e-05
0
1.36418e-05
-4.91627e-05
1.73317e-05
2.95715e-05
0
0
0
0
0
0
0
0
0
0
0
0
0
0
0
0
-2.51721e-05
5.78369e-05
0
0
0
0
0
0
0
0
0
0
0
0
0
0
0
0
0
-1.87467e-05
0
2.0246e-05
-0.0203625
-0.0187305
0.018912
-0.00604449
-0.0136893
-0.0134636
-0.00314497
-0.00745641
-0.0215166
0.00451567
-0.00706632
-0.015488
-0.00941428
-0.0122571
-0.0223462
0.0125757
-0.0236012
-0.0439531
0.0212751
-0.0164222
-0.0171871
0.0050577
-0.0363232
-0.0569965
0.0233292
-0.0529603
-0.0487257
-0.00936385
-0.0659014
-0.0981087
0.0269143
-0.073168
-0.0958438
-0.0201909
-0.0598987
-0.0932138
0.0342455
-0.0891732
0.00451028
-0.0946426
-0.0783284
-0.101994
0.0386051
-0.0677003
-0.0970603