/*--------------------------------*- C++ -*----------------------------------*\
  =========                 |
  \\      /  F ield         | OpenFOAM: The Open Source CFD Toolbox
   \\    /   O peration     | Website:  https://openfoam.org
    \\  /    A nd           | Version:  8
     \\/     M anipulation  |
\*---------------------------------------------------------------------------*/
FoamFile
{
    version     2.0;
    format      ascii;
    class       volScalarField;
    location    "14760";
    object      alpha;
}
// * * * * * * * * * * * * * * * * * * * * * * * * * * * * * * * * * * * * * //

dimensions      [0 0 -1 0 0 0 0];

internalField   nonuniform List<scalar> 
526318
(
0.000371177
0.000344104
0.000310535
0.000164358
0.000212971
0.000380081
0.000358434
0.000302045
0.000187483
0.000527076
0.000470792
0.000322942
0.000686372
0.000444537
0.000219196
0.000179979
0.000407966
0.000187412
0.000205716
0.000232944
0.000342686
0.000264387
0.000833814
0.000242973
0.000900723
0.000502651
0.000109936
0.000324767
0.000164072
0.000271271
0.000183503
7.32148e-05
0.000278759
0.000577666
0.000337211
0.000459581
0.000537921
5.83656e-05
0.0004625
0.000283459
0.00016815
0.000398548
0.00109479
0.00192824
0.000949267
0.00133992
0.000558887
0.000554571
0.000137633
0.000517459
0.000255992
0.000564068
0.000369759
0.000454417
0.00542476
0.00173371
0.00142009
0.00306211
0.000189113
0.000380106
0.000150008
0.000167397
0.000512489
0.000241464
0.000396752
0.000164442
0.000297039
0.000240695
0.000302911
0.000314032
9.85956e-05
0.000161662
0.000373966
8.11503e-05
0.00035257
0.00043288
0.00039625
0.000320891
7.49485e-05
0.000165512
0.000169379
0.000393443
0.000251942
0.000213936
0.00031434
0.000188049
0.00049454
0.00025809
0.000500208
0.000425833
0.00018713
0.000383984
0.000420226
0.000495419
0.000942922
0.00056168
0.000422308
0.000899481
0.000811054
0.000905926
0
0
0
0.0688888
0.00902977
0
0.00217629
0.00244333
0.00133154
0.000482499
0.00141229
0.00122193
0.000368914
0.000687608
0.000252767
0.000217215
0.000148365
9.77328e-05
0.000362866
0.00110887
0.00104018
0.00132822
0.000896243
0.00129591
0.00113028
0.00194193
0.00163301
0.00227806
0.00170462
0.00207633
0.00263325
0.0025323
0.0022293
0.00287345
0.00199691
0.0030535
0.0025257
0.00264916
0.0026201
0.0035281
0.00333694
0.00314482
0.00299275
0.00303738
0.00338125
0.00408966
0.0025826
0.00407643
0.00281012
0.003014
0.00348964
0.00306706
0.00303807
0.00362651
0.00362349
0.00359997
0.00330773
0.00343856
0.00419822
0.00475747
0.00227049
0.00419076
0.00292437
0.000523848
0.000109764
0.000462858
0.00014196
0.000430202
0.000157156
0.000236912
3.38509e-05
0.00011662
0.00012016
0.000272914
0.000250342
0.000233281
0.00045542
0.0006359
8.44512e-05
0.000545388
0.000395015
0.000207791
0.000996396
0.00227664
0.00140065
0.00338183
0.00228828
0.0019394
0.00275134
0.00218151
0.00249527
0.00252221
0.00268057
0.00250576
0.00205452
0.00211623
0.00248558
0.00276565
0.00282831
0.00278231
0.00265308
0.00307799
0.00322431
0.00275344
0.00196204
0.00239149
0.0027079
0.00273124
0.00293375
0.00190155
0.000407713
0.000631538
0.000516687
0.000353938
0.000988814
0.000141651
5.07697e-05
0.00022177
0.000352173
0.00137754
0.000696568
0.000313653
0.000143627
0.000381083
0.000654915
9.07129e-05
0.000142712
0.00033756
0.000439955
0
0
0.00823197
0.00300076
0
0
0
0
0
0
0.000262353
0.000333815
0.000298488
0.000266073
0.000259955
0.0001883
0.00017676
0.000350838
0.000513749
0.000370079
0.000339314
0.000198381
0.000527446
0.000345221
0.000388913
0.000359677
0.000582057
0.000512059
0.00110061
0.000747419
0.00107069
0.00094895
0
0
0
0
0
0
0
0.00370042
0.00095576
0.0011692
0.00134783
0.000614619
0.000983491
0.000994471
0.000714209
0.000444002
0.000114631
0.000425425
0.000222453
7.4526e-05
0.00101198
0.00110742
0.00129292
0.00118413
0.00264978
0.00174566
0.00312295
0.00201983
0.00320872
0.00307788
0.00339567
0.00311098
0.00319606
0.00429462
0.00159391
0.00148489
0.00104472
0.00183743
0.00144425
0.000686267
0.001001
0.00354265
0.00238212
0.0011499
0.0029356
0.00246291
0.00342164
0.00338506
0.00339207
0.00408267
0.0042856
0.00671099
0.00801383
0.00493632
0.00272995
0.00243694
0.00045435
0.00103672
0.0015532
8.27208e-05
0.000348493
0.000364404
0.000573909
0.000358819
0.000628629
0.000284504
0.000474338
0.00018064
0.000240905
0.000327989
0.000732975
0.00126222
0.000262528
0.000795427
0.000850341
0.000893187
0.000698586
0.00142594
0.00141882
0.0027804
0.00252156
0.00195626
0.00345088
0.00229636
0.002636
0.00272819
0.00249712
0.00240085
0.00250288
0.0023865
0.00242412
0.00226109
0.00252669
0.00214
0.00238824
0.00159564
0.00145923
0.00281378
0.00249376
0.00165584
0.00181957
0.00130516
0.0019699
0.00284082
0.0014584
0.00140942
0.00143667
0.000861558
0.000429975
0.000930519
0.00133517
0.000914427
0.000926314
0.00065585
0.000499392
0.000865209
0.000342121
0.000539226
0.000670522
0.00045727
0.00111242
0.000335711
0.000359036
0.000157297
0.000464472
0.000448999
0.000452954
0.00166735
0.00174926
0.00297442
0.00589476
0.00107018
0.000390927
0.000920259
0.000531134
0.000789494
0.000453785
0.000503333
0
0
0.0246996
0
0.0118514
0.0567592
0
0
0
0
0
0
0
0
0
0
0.000287828
8.30575e-05
0.000218119
4.98658e-05
0.000288416
0.00020363
0.000292935
0.000343562
0.000260818
0.000392958
0.000517232
0.00032641
0.000467826
0.000539475
0.000675567
0.00048633
0.000701366
0.000513122
0.000759085
0.000918447
0.00112901
0.00122221
0
0.00257303
0.000354089
0
0
0
0
0.000104648
0.00265026
0.00224175
0
0
0
0
0
0
0
0
0
0
0
0
0.12387
0.0459958
0.00418117
0.0275715
0.00145105
0.000854407
0.000852614
0.000828214
0.00064417
0.000420543
0.000659803
0.000342039
0.000340243
0.000282841
0.000180924
6.21505e-05
0.00137462
0.00113923
0.00122872
0.00119062
0.00149008
0.0024095
0.00273408
0.0019542
0.00274923
0.00251355
0.00261996
0.00380317
0.00412456
0.00462283
0.00194595
0.000821411
0.00468844
0.00117742
0.00377584
0.00268327
0.00494968
0.0101663
0.00238587
0.00420608
0.00363959
0.00674628
0.00578308
0.000733144
0.00893089
0.0065086
0.00776148
0.00079644
0.000520036
5.35061e-05
0.000747311
0.000349235
0.000292105
0.000350516
0.000455251
0.000940256
0.000338239
0.00130447
0.000506348
0.00204226
0.000301705
0.000345432
0.00051105
0.000952309
0.000734786
0.000638474
0.000259527
0.000661633
0.000398398
0.000156494
0.000674659
0.000286046
0.000522376
0.000804926
0.00144482
0.00159647
0.00196506
0.00141965
0.00212102
0.00304066
0.00387327
0.00454904
0.00354204
0.00373327
0.00257761
0.00236622
0.00319301
0.00254623
0.00263467
0.00256371
0.00265238
0.00264522
0.00283188
0.00214446
0.00252127
0.00217163
0.0023344
0.00171769
0.0019148
0.0015121
0.00169136
0.00246746
0.00217725
0.00217986
0.00203854
0.0019752
0.00154205
0.0020679
0.0020297
0.00121934
0.00142997
0.000922488
0.000723582
0.000733489
0.00079075
0.000674415
0.000404607
0.000229501
0.000221983
0.000200202
0.000289016
0.000353129
0.000159941
0.000450817
0.000214491
0.000504822
0.00106754
0.000879545
0.00127173
0.000518179
0.00132039
0.000291637
0.000297619
0.0122023
0.00437463
0.001396
0.00136117
0.00114839
0.000535322
0.000521125
0.000594558
0.000292781
0.00125497
0
0
0
0
0.0226285
0.00599187
0
0
0
0
0
0
0
0
0
0
0
0
0
0
0
0
0
0
0
0
0.00706845
0
0
0
0.00280412
0.00641933
0
0
0
0
0
0
0
0
0
0
0
0
0
0
0.000187208
0.000147697
0.000135393
0.000230838
7.49174e-05
0.000380983
0.000279251
0.0001065
0.000409249
0.0007587
0.00050635
0.000335639
0.00044059
0.000625585
0.000363492
0.000583279
0.000655662
0.000626291
0.000876892
0.000873536
0.00134815
0.00125461
0
0
0
0
0
0
0
0
0
0
0
0
0
0
0
0
0
0
0
0
0
0
0
0
0
0
0
0
0
0
0.00795461
0
0.0337678
0.0137163
0.00154425
0.00401331
0.000516647
0.00087527
0.000553425
0.000563956
0.000378091
0.000502922
0.000321641
0.00048346
0.00019873
0.000125352
0.000221467
0.000165159
0.00301957
0
0
0
0
0.0339382
0
0
0
0
0
0
0
0
0
0
0
0.00121775
0.00115986
0.000963942
0.00148422
0.00238298
0.00144809
0.00275214
0.0027992
0.00316081
0.00357672
0.00263757
0.00647115
0.00889996
0.00523916
0.000969149
0.002116
0.00557775
0.00209754
0.00350249
0.00223681
0.00991551
0.0114987
0.0170998
0.00523871
0.00602044
0.00367929
0.00726933
0.00313864
0.0114626
0.016965
0.0575316
0.0842557
0.000306433
0.000415451
0.000258642
0.000333505
0.000217724
0.000560462
0.000416466
0.000480739
0.000490923
0.000263504
0.000709113
0.000689305
0.000498763
0.000224459
0.000626413
0.00161124
0.000640146
0.00116066
0.00312488
0.000901654
0.00197955
0.00166541
0.000663205
0.00106872
0.000694778
0.000856834
0.000194005
0.00105943
0.000765824
3.78879e-05
0.0015078
0.000278459
0.00197438
0.00182416
0.00201773
0.00497292
0.00268844
0.00585336
0.0307538
0.00894933
0.0125093
0.00816345
0.00273921
0.010587
0.00307535
0.00209022
0.00258783
0.00206365
0.00248091
0.0025008
0.00181775
0.0020945
0.00195192
0.00192058
0.00184055
0.00205486
0.00166775
0.00191618
0.00184985
0.00182107
0.00167265
0.00182172
0.00155811
0.00155288
0.00139226
0.00149944
0.00105641
0.00149945
0.00100227
0.000991948
0.000669935
0.000560781
0.00102616
0.000312055
0.000151054
0.000477867
0.000344542
0.000269211
0.000430976
0.000340013
0.000410782
0.000422496
0.000243202
0.00022401
0.000261778
0.00024905
0.000242807
0.000256074
0.000248255
0.000233639
0.000202959
0.000207915
0.000143831
0.000219009
0.000175689
0.000178869
0.000146721
0.000199202
0.000246989
0.00020311
0.000172213
0.000243316
0.000240336
0.000198136
0.000184565
0.000271674
0.000172654
0.000171091
0.000227983
0.000255543
0.000177077
0.000228283
0.000170415
0.000260564
0.000243684
0.000159567
0.000150589
0.000257007
0.000282726
0.000217367
0.000209283
0.00154946
0.00100278
0.000380671
0.00101876
0.000830057
3.16161e-05
0.000787548
0.000905382
0.000378208
0.0174227
0.00796341
0.00182105
0.00290003
0.0210274
0.0117276
0.0138759
0.00163544
0.00146498
0.00502288
0.00452487
0.0053338
0.0158007
0.00185433
0
0
0
0
0
0
0
0
0
0
0
0.00586335
0
0
0
0
0
0
0
0
0.0109711
0
0
0
0
0
0
0
0
0
0
0
0
0
0
0
0
0.00785172
0
0
0
0
0
0
0.00652288
0
0.00432695
0
0
0
0
0
0
0
0
0
0
0
0
0
0
0
0
0
0
0
0
0
0
0
0
0
8.56692e-05
0.000228008
0.000171726
0.000271415
0.000135874
4.34411e-05
0.000416234
0.000494487
0.000273321
0.000291236
0.000344968
0.000617268
0.000361281
0.000507438
0.000693567
0.00085037
0.00103312
0.000268964
0.00071179
0.0004676
0.000701348
0.000665108
0
0
0.0052049
0.00445208
0
0
0
0
0.00903057
0
0
0
0
0
0
0
0
0
0
0
0
0
0.00844337
0.007155
0
0
0
0.0286214
0.00174003
0.0178937
0.00170844
0.000595444
0.000643022
0.000582567
0.000312896
0.000481294
0.000439234
0.000284385
0.000249985
0.00049691
0.000270569
6.06334e-05
0.000106245
7.82366e-05
0.00237297
0
0
0
0
9.72955e-05
0
0
3.62179e-05
0
0
0
0
0
0
0
0
0
0
0
0
0
0
0
0.528852
3.26691
0.00110656
0.000885341
0.00192746
0.00128511
0.00402688
0.00288644
0.00639811
0.00537417
0.00421461
0.00684184
0.00321307
0.00746139
0.00971527
0.00440398
0.0131698
0.00376193
0.00502019
0.00649669
0.00733683
0.00160774
1.45554
0.0450108
0.0180436
0.0344384
0.025015
0.0122494
0
0
0
0
0.0847155
0
0.000323206
6.36046e-05
0.000227168
0.000383067
0.000209198
0.000865631
0.000445597
0.00064512
0.000291246
0.000227591
0.000278139
0.000239515
0.000314378
0.000265753
0.000286246
0.00029894
0.000289335
0.000325567
0.000329821
0.00033795
0.000338354
0.000305609
0.000355633
0.00031899
0.000211484
0.000294757
0.000255689
0.000203005
0.000318851
0.000376854
0.00057651
0.000769096
0.000490975
0.00016879
0.000918356
0.000743145
0.00074429
0.00081556
0.00328821
0.00145435
0.00398723
0.00175075
0.00179744
0.00103255
0.000341906
8.85163e-05
0.00024635
0.000996722
0.000571106
0.00329016
0.00638349
0.0110209
0.00147771
0.00844631
0.0149382
0.0369228
0
0.173569
0.0129534
0.0211617
0.0865229
0.0122784
0.0031735
0.00683916
0.0032984
0.00277191
0.00244572
0.00264623
0.00165904
0.0019815
0.00167513
0.00158386
0.00169588
0.00197837
0.00171913
0.0019701
0.00141994
0.00160221
0.00139646
0.00154565
0.00111184
0.00151307
0.00140924
0.00149624
0.00110909
0.000935683
0.00116999
0.00113925
0.000773765
0.000365152
0.000667229
0.000323315
0.000419678
0.000543377
0.000429638
0.000325521
0.000325858
0.000409037
0.000303824
0.000439198
0.00019382
0.000230348
0.00021679
0.00017751
0.000231175
0.00021842
0.000170835
0.000136944
0.000168534
0.000136272
0.000164852
0.000134702
0.000145075
0.000145229
0.00011319
0.000124006
0.000132258
0.000134305
0.000156417
0.000141108
0.000162883
0.000153258
0.000198464
0.000152041
0.000183849
0.000224413
0.000183035
0.000166347
0.000155705
0.000126624
0.000191869
0.000134042
0.000146204
0.00229606
0.00865718
0.00129324
0.0018639
0.00135697
0.00263246
0.00130055
0.00119309
0.000500218
0.00181456
0.0126594
0.00466618
0.0201262
0.00838972
0.00233885
0
0
0.0100981
0
0.00356553
0.0150267
0.0147252
0.00594916
0.017975
0.0317554
0
0
0
0
0.00253906
0.0123524
0
0
0
0.00694501
0
0
0
0
0
0
0
0.0161779
0
0
0
0
0
0
0
0
9.80397e-05
0
0
0
0
0
0
0
0
0
0
0
0
0
0
0.00231912
0
0
0
0
0
0
0
0
0
0
0
0
0
0
0
0
0
0
0.000307657
0.000123697
0.000131375
0.000321224
0.000279247
0.00031137
0.000423402
0.000124682
0.000420771
0.000606422
0.000270606
0.000173431
0.000686061
0.00030637
0.000437856
0.000316366
0.00112291
0.000464045
0.000222246
0.000257194
0.000534063
0.00046257
0.000115234
0
0.0019141
0
0
0
0
0
0
0
0
0
0
0
0
0
0
0
0
0
0
0
0
0
0
0
0.00385606
0.00565188
0.00131811
0.00448325
0.00110054
0.000472625
0.000671361
0.00021535
0.000263314
0.000428557
0.000418511
0.000496872
0.000464106
0.000287149
0.000200204
0.000124016
0.000321995
0.00025467
0
0
0
0
0
0
0
0
0
0
0
0
0
0
0
0
0
0
0
0
0
0
0.488651
0
0
0
0
0
0
0
0
0.00147113
0.000920912
0.00150791
0.00338938
0.00359512
0.00374896
0.00161705
0.0067082
0.000311968
0.000537513
0.00209326
0.00874528
0.00672356
0
0
0.010352
0.0141842
0.0258918
0.0124157
0.00826809
0.00822315
0.0116003
0.00650638
0.0812884
0
0.184733
0.0257893
0
0
0
0
0
0
0
0
0.000157776
6.11174e-05
0.000119524
0.000132782
5.12652e-05
7.96832e-05
3.58704e-05
8.3996e-05
8.54368e-05
2.87761e-05
4.70485e-05
7.30159e-05
0.000142728
1.83437e-05
0.000113301
0.000168012
8.64764e-05
0.00011586
8.63162e-05
0.000116753
7.31462e-05
4.0835e-05
3.28353e-05
5.64409e-05
8.92873e-05
4.79736e-05
7.20185e-05
9.88413e-05
0.000133555
0.00027588
0.000234131
0.000196056
0.000258999
0.000235654
0.000136785
0.00036516
0.000318002
0.000263368
0.000525507
0.000974438
0.000285443
0.000392626
0.000696097
0.000290822
0.000343618
0.000215701
0.000309306
0.000333364
0.000341497
0.000358281
0.000328074
0.000347189
0.00038175
0.000412015
0.000384486
0.000400972
0.000400047
0.000432946
0.00038926
0.000354884
0.000310015
0.000451802
0.000360299
0.000320385
0.000954606
0.0015326
0.00126912
0.000574667
0.000103099
0.000775327
0.00317252
0.000832194
0.00633671
0.00816206
0.000117709
7.99356e-05
9.13589e-05
6.81332e-05
6.29904e-05
4.9002e-05
4.11692e-05
6.63161e-05
1.57905e-05
0.000125602
4.74818e-05
9.45253e-05
3.8168e-05
6.13794e-05
5.07991e-05
4.34484e-05
7.07442e-05
8.90895e-05
0.00778357
0.0215918
0.00448725
0.00123387
0.00332225
0.000587717
0.00102179
0.00291627
0.0133918
0.016238
0.0101157
0.00768836
0
0.0782762
0
0
0
0
0.0123462
0.074615
0
0.00204378
0.0125034
0.00820685
0.00638947
0.00449798
0.00196477
0.00167878
0.00165621
0.0024711
0.00222516
0.00170233
0.00171774
0.00170029
0.0012793
0.00130551
0.00157406
0.00141789
0.00118755
0.00125183
0.00119546
0.00118992
0.000983087
0.00113627
0.000517813
0.000628391
0.000662445
0.00069489
0.000495484
0.000484043
0.000340254
4.03399e-05
0.000110976
0.000169454
0.000185199
0.000489969
0.000470951
0.000322801
0.000170349
0.000176312
0.000142229
0.00019597
0.000233481
0.000313812
0.000190376
0.000140067
0.000122998
0.000103428
0.000126024
8.07924e-05
9.92297e-05
0.000108443
0.000116633
0.000149785
0.000151491
0.000127175
0.00012476
0.00013142
0.000132456
0.000148743
0.00013475
0.000153733
0.000120272
0.000138517
0.00010152
0.0149852
0.00809046
0.00335271
0.00682097
0.011536
0.0101588
0.00841015
0.00119234
0.00514818
0.0459651
0.0154604
0.0300023
0
0.0552903
0.00553928
0
0
0
0
0.00750931
0
0.398434
0
0
0
0
0
0
0.00258877
0.00301193
0.0239453
0
0
0
0
0
0
0
0
0
0
0
0.00988234
0
0
0
0
0
0
0
0
0.197662
0
0
0
0
0
0
0
0
0
0
0
0
0.00124077
0
0
0
0
0.01107
0
0
0
0
0
0
0
0
0
0
0
0
0
0
0
0
0
0
0
0.0023277
0
0
0
0
0.00260892
6.40298e-05
0.000123142
8.84918e-05
8.54269e-05
9.36922e-05
6.41833e-05
0.00016378
9.56912e-05
9.74892e-05
0.000383893
0.000168504
0.000292114
0.000138087
0.000211203
0.000570118
0.000451992
0.000311317
0.000433439
0.000363538
0.000246441
0.000248287
0.000290817
0.000433177
6.16196e-05
0.000402136
0
0
0
0
0
0
0
0
0
0
0
0
0
0.00518136
0.000586541
0.00378914
0
0
0
0
0
0
0
0
0
0
0
0.00224805
0.000954436
0.000557656
0.000799251
0.00022838
5.36444e-05
0.000324055
0.000527917
0.000245039
0.000208399
0.000157806
0.000455745
0.000328637
0.000174113
0.000121612
0.000207134
0
0.00102373
0
0
0
0
0
0
0
0
0
0
0
0
0
0
0
0
0
0
0
0
0
0
0
0
0
0
0
0
0
0
0
0
0
0
0
0.00134573
0.00128698
0.000185938
0.000766892
0.00106353
0.00337619
0.00257686
0.00967035
0.00817713
0
0.523312
0.0016426
0.00140669
0
0
0
0
0.0403229
0
0.051653
0
0.0174109
0.0142491
0.00665052
0.0114735
0
0
0
0
0
0
0
0
0
0
0
0
5.85415e-05
0.000158721
0.000159965
0.000111813
0.00011067
0.000108981
0.000202711
5.77472e-05
0.000111445
0.000177319
0.000166168
8.9341e-05
0.000114306
0.000116221
3.25133e-05
0.000114572
0.00026553
0.000343929
0.000294361
0.000221719
0.000152057
0.000269971
0.000346226
0.000679916
0.00068609
0.000186147
0.000262184
0.000509656
0.000693635
0.000348016
0.000292981
0.000396173
0.000298412
0.000476106
0.000302085
0.000414338
0.000452561
0.000395877
0.00048363
0.000399151
0.000426354
0.000405459
0.000499761
0.000445651
0.000483179
0.000424502
0.000466994
0.000453155
0.000453105
0.000385586
0.00041005
0.000417409
0.000419022
0.00106482
0.00155397
0.000140482
0.000262654
0.000646407
0.00117175
0.00092849
0.000251147
0.00138762
0.0032036
0.00433076
0.00339557
8.80918e-05
8.26401e-05
0.000112515
6.53728e-05
3.06281e-05
3.39215e-05
3.16961e-05
6.75991e-05
2.16582e-05
4.11569e-05
8.71976e-05
9.42263e-05
1.64096e-05
4.73418e-05
9.43034e-05
0.00010754
0.00010211
4.84881e-05
7.34388e-05
6.2982e-05
5.8441e-05
5.40255e-05
8.36425e-05
7.68384e-05
0.000128214
0.0116542
0.0101163
0.0224523
0.095705
0.00446614
0.00221397
0
0
0.0553611
0
0
0
0
0
0
0
0
0
0.505263
0
0.00362174
0.0427073
0.00930628
0.0303388
0.00664161
0.00269603
0.000905155
0.00415239
0.00234682
0.00280754
0.00159428
0.00128986
0.00110302
0.00145637
0.00163774
0.00130436
0.000654214
0.00113589
0.00082429
0.00101556
0.000856443
0.000588257
0.000954443
0.000761973
0.000617005
0.0004663
0.000516155
0.00053732
0.000434434
0.000270931
0.000395669
0.000242002
0.000567171
0.000401656
0.000422852
0.000302094
0.000516811
0.00023286
0.000101133
0.000316262
0.000163469
0.000174718
0.000111488
8.86917e-05
6.33286e-05
7.52277e-05
7.39235e-05
7.26189e-05
9.8012e-05
0.000140019
8.47336e-05
0.000111273
0.00014147
0.000129164
9.91341e-05
0.000115438
0.000104671
5.87389e-05
0.000120406
0.000123327
0.000186766
0.000106348
0
0
0
0
0.00745389
0.0219552
0.0368043
0.0255845
0.0183502
0
0
0
0
0
0
0
0
0
0
0
0
0
0
0
0
0.000273364
0
0
0.00735512
0.00199854
0
0
0
0
0
0
0
0
0
0
0
0
0.272495
0
0
0
0
0
0
0
0
1.61734
0
0
0
0
0.00361783
0
0
0
0
0
0
0
0.00550169
0.00460076
0
0
0.00583192
0.00937394
0
0
0
0
0.00626225
0
0.00835911
0
0
0
0
0
0
0
0
0
0
0
0
0
0
0
0
0
0.00401536
0
0
0
0
0
0
0
0
0.000203792
0.000316543
0.000144195
0.00020073
6.27762e-05
7.74466e-05
5.76186e-05
6.66223e-05
0.000115727
8.12388e-05
0.000258702
0.000395907
0.000247916
0.000277086
0.000660823
0.000189551
0.000418278
0.000182768
0.000166899
0.000257379
0.000273733
0.00032461
0.000179503
0.000471598
0.000489085
0.000256324
0.000457715
0
0
0
0
0
0
0
0.0064743
0.00124039
0.00857606
0
0
0
0
0
0
0
0
0
7.86884e-05
0
0
0
0
0
0.000198136
0.000267895
0.000162236
0.00193944
0.000472603
0.00063671
0.000399893
5.79196e-05
0.00021741
0.000334037
0.000500968
0.000283066
0.000255933
0.000281163
0.000464951
0.000572975
0
0
0.000966206
0
0
0
0
0.000464682
0
0
0
0
0
0
0
0.00980153
0
0.00432528
0.00740801
0
0
0
0
0
0
0
0
0
0
0
0.00699878
0
0
0
0
0
0
0
0
0
0
0
0
0
0.00368268
0.00127256
0.000594236
0.000999422
0.000494965
0.00131016
0.00510653
0.00242949
0.00555287
0.0191803
0.0113057
0
0
0.00961344
0.00875802
0.0183509
0
0
0
0
0
0.00312206
0
0.0756813
0.00880585
0.0299036
0.0118653
0.0210329
0
0.00276298
0
0.00438914
0
0
0
0
0
0
0
0.00361247
0.000200203
3.0551e-05
0.000108151
0.000339577
0.000159882
0.000183168
0.000260625
0.000340185
0.000423213
0.000109864
0.000259266
0.000177892
5.73487e-05
0.00016176
0.000222811
0.00017914
0.00018419
0.000178287
0.000160389
0.000135064
0.000118596
7.89818e-05
0.000333472
0.000368924
0.000274518
0.000327787
0.000250967
0.000296427
0.000383642
0.000831787
0.000589676
0.000238867
0.00050896
0.00033838
0.000531572
0.000481132
0.000389131
0.000405829
0.000363241
0.000665448
0.000417785
0.000492465
0.000496374
0.000398836
0.000525386
0.000369501
0.000495065
0.000430539
0.000427816
0.000507277
0.000415195
0.000483483
0.000359802
0.000494987
0.000439275
0.000371291
0.000403263
0.000459601
0.00250833
0.000410931
0.000574825
0.000628008
0.000714247
0.00101738
0.00047107
0.00136543
0.00148526
0.00326879
0.00309437
0.00314414
8.92929e-05
0.00017637
0.000109957
6.26311e-05
1.13136e-05
7.68816e-05
0.00012779
5.81874e-05
9.70546e-05
6.22375e-05
8.21487e-05
0.000111675
5.56147e-05
0.000121647
8.32347e-05
0.000122834
7.63601e-05
9.48978e-05
0.000116895
8.53338e-05
0.000127193
0.000115634
0.000121168
0.000117079
5.94403e-05
0
0
0
0
0
0
0
0
0
0
0
0
0
0
0
0
0.00360251
0
0
0
0
0.0835652
0.00374627
0.0194279
0.00344118
0.0019025
0.00226169
0.000989403
0.000629745
0.00192496
0.00156078
0.000811532
0.00141103
0.00118299
0.000802532
0.000403867
0.000607121
0.0011017
0.00109573
0.00101888
0.000386407
0.000552559
0.000551886
0.000732286
0.000609532
0.000527745
0.00057669
0.000685152
0.000708183
0.000590746
0.000337092
0.00035067
0.000481154
0.000514313
0.000134847
0.000318564
0.000251833
0.000223503
0.000173212
0.000174463
7.81515e-05
8.98324e-05
6.36921e-05
0.000104136
6.13663e-05
0.000143652
9.27446e-05
0.000154079
0.000139349
0.000122453
0.00013485
0.000114064
0.000130784
9.73351e-05
0.000114732
6.86475e-05
6.23571e-05
0.000157092
9.7605e-05
0
0
0.184485
0.000186867
0
0
0
0
0
0
0
0.00450904
0
0.00437927
0.00659652
0.00919136
0.00441868
0
0.0149541
0.248868
0
0
0
0.00488834
0
0.00418859
0.000324362
0
0
0
0
0
0
0
0
0.00760469
0
0
0
0
0
0
0.657165
0
0
0
0
0
0
0
0
0
0
0
0
0
0
0
0
0
0
0
0
0
0
0
0
0
0
0
0
0
0
0
0
0
0
0
0
0
0
0
0
0
0
0
0
0
0
0
0
0
0
0
0
0
0
0
0
0
0
0
0
0
0
0
0
0
0
0
0
0
0.000100845
0
0
0
0
4.39834e-05
6.15891e-05
0.000162083
0.000161108
0.000143076
9.70934e-05
0.000374374
0.000241762
9.36726e-05
0.000154785
0.000144361
0.000214486
0.000271873
0.000144307
0.000275066
0.000612678
0.000325
0.000336595
0.00017484
0.000491417
0.000297847
0.000374879
0.000453431
0.000343979
0.000381804
0.000495528
0.000120706
0.000632076
0.000435289
0
0
0
0
0.000922942
0.00188666
0.00358807
0
0
0.0115669
0
0
0
0
0
0
0
0.0128812
0.00803099
0
0.00738469
0
0
0
0.000277581
0.000269251
0.000122172
0.00039207
0.000455173
0.00130837
0.000715937
0.000456562
0.000411925
0.000556859
0.000186952
0.000255067
0.000300919
0.00038519
0.000200107
0.00040377
0
0.00341057
0
0
0
0
0
0.000107533
0
0
0.000383018
0
0
0
0.000860954
0
0
0
0
0
0
0
0
0
0
0
0
0
0
0
0
0
0
0
0
0
0.0162126
0
0.0215089
0
0
0
0
0
0
0
0
0
0
0
0
0
0
0
0
0
0
0.00111727
0.00158142
0.00209974
0.00315252
0.000879908
0.108655
0
0
0
0
0
0
0
0
0
0
0
0
0
0
0
0.0320429
0.00195948
0.00303173
0
0
0
0
0.254349
0
0
0
0
0.00541659
0.00304325
0
0
0
0
0
0
0.00039459
0.000188905
0.000164813
0.000460285
0.000690315
0.00044128
0.000119716
0.000518966
0.000188404
0.000409241
0.000388869
0.0003114
0.000247746
0.000248871
0.000261207
0.000221935
0.00022199
0.000190989
0.000205393
5.04277e-05
0.000210491
0.000366471
0.000387289
0.00035875
0.000325316
0.000290567
0.000328801
0.00055017
0.000755105
0.000432218
0.000403113
0.000510147
0.000554139
0.000650587
0.00052096
0.000501193
0.000397005
0.000738567
0.000468349
0.000333378
0.000426902
0.000370241
0.000351745
0.000275524
0.000442147
0.000456541
0.000324489
0.000397298
0.000358385
0.000393546
0.000422656
0.000248072
0.000430683
0.000419132
0.000426029
0.000425854
0.000355579
0.00114116
0.00180057
0.000403106
0.00107205
0.0013427
0.000514307
0.00147938
0.000812088
0.00210227
0.00145151
0.00246621
0.00403687
0.0193973
0.0066282
0.00422265
0.000100971
0.000215256
4.97761e-05
6.04543e-05
0.0001205
0.000136029
0.000145272
0.000102176
0.000150419
0.000157033
0.000129341
0.000109514
0.000108102
0.000166707
0.000105313
0.000142862
0.000110248
9.56311e-05
0.000115319
0.000103389
7.67152e-05
0.000118618
0.000161145
0.000154569
0.000129049
0.000104902
0
0
0
0
0
0.00623048
0.0106787
0
0
0
0
0.00374455
0.00554155
0
0
0
0
0
0.0372316
0
0
0.0304281
0.0153007
0.0122885
0.011113
0.00137513
0.00264664
0.00721303
0.00163759
0.000744106
0.000870556
0.0013116
0.000811868
0.000961069
0.000533884
0.00071041
0.000872369
0.000561617
0.000638068
0.000641659
0.000678351
0.00060438
0.000666541
0.000698795
0.000768054
0.000702217
0.000859449
0.000821363
0.000509234
0.000549563
0.000400896
0.00038356
0.000487062
0.000383222
0.000279822
0.000221894
0.000135943
0.000235545
8.20124e-05
0.000140423
7.99489e-05
0.000161535
9.87529e-05
0.000172886
0.000169278
9.876e-05
0.000150047
0.000126802
0.00015024
0.000128656
0.000152921
0.000127126
0.000142642
0.000153757
0.000185126
0.000139124
0.000153786
0.000133333
0
0
0
0
0
0
0
0
0
0.0182466
0
0
0
0.0180801
0.014354
0.00838201
0.00735507
0.0151312
0.0553728
0
0
0
0
0
0
0
0
0
0
0
0
0
0
0
0
0.0179875
0
0
0
0.00842074
0
0
0
0
0
0
0
0
0
0
0
0
0
0
0
0
0
0
0.0113174
0
0
0
0
0
0.00229936
0.00216458
0.00440709
0
0
0
0
0
0
0
0
0
0
0
0
0
0
0
0
0
0
0
0
0
0
0
0
0
0
0
0
0
0
0
0
0
0
0
0
0
0
0
0
0
0.00639635
0
0.00280158
0
0.0107551
0
0
0
0.000105673
0.000134427
7.45945e-05
0.000120261
0.000178643
0.000156323
0.000122518
0.00061285
6.93999e-05
0.000168631
7.30919e-05
0.000217511
0.000164198
7.19982e-05
0.000423705
0.000312219
4.35018e-05
0.00022828
0.000245444
0.000173256
0.000231078
0.000166896
0.000225464
0.000359844
0.000195673
0.000111497
0.000488407
0.000250582
0.000402698
0.000869608
0.00102085
0.00010777
0.000205394
0
0
0.00306349
0.0017644
0.012246
0
0
0.0185298
0.025074
0
0
0
0
0
0
0
0
0
0
0
0
0
0
0
8.44927e-05
0.000330889
0.000280818
4.91605e-05
0.000677003
0.000237279
0.000172973
0.000371339
0.000182236
0.000400939
0.000160054
0.000285129
0.000195086
0
0
0
0
0
0
0.0111924
0.00700564
0
0
0
0
0
0
0
0
0
0.000790749
0
0
0
0
0
0
0
0.00982139
0
0
0.0212484
0
0
0
0
0
0
0
0
0
0
0
0
0
0
0
0
0
0
0
0
0
0
0.00232647
0
0
0
0
0
0
0
0
0
0
0
0.00231231
0.00304437
0.00603347
0.046937
0.0247244
0
0.0457021
0
0.0217736
0
0
0
0
0
0
0
0
0
0
0
0
0
0
0
0.0618638
0
0
0
0.0438072
0.0184229
0.0403666
0
0
0
0.00398341
0
0
0
0
0
0
0
0
0.000135809
0.00047377
0.000822107
0.000323242
0.000675012
0.000254932
0.000312775
9.80103e-05
0.000199253
0.000162487
0.00020349
0.000187417
0.000145115
0.000321322
0.000308514
0.000293613
0.000256441
0.000216643
0.00022854
0.000120758
0.000199016
0.000196098
0.000437444
0.000382895
0.000313801
0.000377488
0.000397659
0.000349779
0.00069105
0.00072028
0.00042295
0.000615191
0.000694384
0.000708212
0.000615354
0.000806392
0.000383319
0.000592397
0.000549569
0.000722401
0.000183804
0.000262227
0.00021039
0.00037046
0.000113146
0.000221267
0.000201667
0.000302803
0.000474843
0.000364085
0.000336563
0.000634077
0.000587914
0.00036984
0.000402479
0.000479158
0.000406234
0.000385585
0.000890463
0.00164808
0.000827566
0.00104918
0.00119479
0.000353593
0.00162161
0.000949307
0.00197973
0.00324082
0.00289753
0.00498891
0.00873269
0.00483401
0.000139608
0.000131065
0.000156762
0.00018542
0.00012701
0.000191354
0.000160573
0.000198933
0.000215504
0.000209598
0.000155863
0.000141427
0.000120358
0.000105651
0.000143024
0.000114081
0.000111804
0.000108609
8.79694e-05
7.88118e-05
0.00013857
0.000201287
0.000169038
9.98181e-05
0.000106382
0
0
0
0
0
0
0
0
0
0.00409144
0
0
0
0
0
9.65533e-05
0.000118754
0
0
0
0
0.0183847
0.00360868
0.00365618
0.0393031
0.00235916
0.00142167
0.00195081
0.00132762
0.000208311
0.000618764
0.00156144
0.000372811
0.00103141
0.000423292
0.000495463
0.000528863
0.000664645
0.000704436
0.000721142
0.000644235
0.000776524
0.000775364
0.000825996
0.000565153
0.000689702
0.000891694
0.000713195
0.000413676
0.000502881
0.000254931
0.000297083
0.000347757
0.000368033
0.000123565
0.000238976
0.000203634
0.000104558
0.000176934
0.000108977
0.000204989
0.000125128
0.000116818
0.000180039
0.000125347
0.000151263
0.000139265
0.000133515
0.000140746
0.000145384
0.000179211
0.000150339
0.000151349
0.000188509
0.000181415
0.000154473
0.000176883
0.000159556
0
0
0
0
0
0
0
0
0
0.000200248
0
0
0
0
0
0
0
0.114545
0
0
0.0937289
0
0
0
0.000731686
0
0
0
0
0
0.00211351
0
0
0
0
0
0
0
0
0
0
0
0
0
0
0
0.00459451
0.00778734
0.00796609
0
0
0
0
0.00333223
0
0
0.00390182
0
0
0
0
0.00614187
0
0.00180749
0
0
0
0
0
0
0
0
0
0
0
0
0
0
0
0
0
0
0
0
0
0
0
0
0
0
0
0
0
0
0
0
0
0
0
0
0
0
0
0
0
0
0
0
0
0
0
0
0
0
0
0
0
0.00308239
0
0
0
0.011692
0
0
0.000123996
0.000150961
0.000113034
0.000102762
0.000153569
0.000190997
0.000161263
0.0001657
0.000224739
0.000223241
0.000206451
0.000294919
0.000222114
0.000119824
9.51753e-05
0.000155351
0.000185215
0.000408399
0.000153393
0.000294953
0.000190382
0.000106899
0.000148663
0.000150553
0.000156321
0.000242799
0.000402385
0.000312856
0.000173298
0.000587117
0.00034801
0.000751325
0.000414485
0.000665014
0.000438752
0.000415671
0.00125059
0.00195961
0.00686719
0.000362315
0.000560613
0
0
0.00617998
0.0271686
0
0
0
0
0
0
0.00324172
0
0
0
0
0.000272966
0
0.00731147
0
0
0.000292179
0.000563149
0.000392568
0.000575054
0.000293771
0.000565631
0.000280146
0.000236371
9.37687e-05
0.000308671
0.00021095
0.000171819
0
0
0.000162066
0
0
0.0034084
0
0
0
0
0
0
0
0
0
0.000600184
0.00160278
0
0
0.000738265
0
0.00221541
0
0
0
0
0.447095
0
0.0075977
0.149493
0
0
0
0
0
0
0
0
0
0
0
0
0
0
0
0
0
0
0.0159807
0
0
0
0
0
0
0
0
0
0
0
0
0
0
0
0
0
0
0
0
0
0
0
0.0409487
0.0415203
0.00581244
0.0625062
0.0382528