/*--------------------------------*- C++ -*----------------------------------*\
  =========                 |
  \\      /  F ield         | OpenFOAM: The Open Source CFD Toolbox
   \\    /   O peration     | Website:  https://openfoam.org
    \\  /    A nd           | Version:  8
     \\/     M anipulation  |
\*---------------------------------------------------------------------------*/
FoamFile
{
    version     2.0;
    format      ascii;
    class       volScalarField;
    location    "14760";
    object      H;
}
// * * * * * * * * * * * * * * * * * * * * * * * * * * * * * * * * * * * * * //

dimensions      [0 1 0 0 0 0 0];

internalField   nonuniform List<scalar> 
526318
(
0.881094
0.836961
0.908435
0.82021
0.899922
0.845782
0.866456
0.780521
0.842754
0.721574
0.700078
0.823985
0.770278
0.810792
0.76768
0.791066
0.774922
0.970316
0.878502
0.921521
0.92117
0.870834
0.629973
0.870852
0.759116
0.621529
0.896024
0.892636
0.89406
0.906523
0.938429
0.983415
0.963511
0.842798
0.844514
0.812637
0.816351
0.904565
0.840005
0.794323
0.843742
0.825917
0.48207
0.535243
0.441754
0.490201
0.466324
0.587373
0.766593
0.670764
0.752149
0.749381
0.704904
0.669907
0.16565
0.407756
0.402425
0.206802
0.917696
0.932997
0.960644
0.911672
0.850706
0.985992
0.971302
0.933376
0.923135
0.928068
0.829683
0.814883
0.934371
0.706004
0.763552
0.658881
0.614497
0.601253
0.70212
0.700477
0.610121
0.650547
0.730139
0.733566
0.689221
0.644589
0.674593
0.740145
0.736987
0.716591
0.665037
0.743213
0.643234
0.593793
0.58744
0.518318
0.516039
0.519586
0.516565
0.515172
0.512894
0.512815
3.78386e-05
2.15653e-06
0.000762527
0.0138307
0.0750422
0.000151924
0.422276
0.236411
0.548196
0.511812
0.554002
0.665902
0.892736
0.788005
0.896076
0.908044
0.972511
0.951951
0.986964
0.510103
0.507383
0.512118
0.514156
0.471066
0.508908
0.421358
0.46272
0.374843
0.422075
0.372247
0.373004
0.36381
0.33705
0.330508
0.356499
0.298497
0.353358
0.303458
0.32141
0.267156
0.27185
0.29362
0.322313
0.308899
0.265812
0.266094
0.283796
0.269159
0.268153
0.274021
0.284557
0.272039
0.278512
0.274475
0.275777
0.244244
0.276937
0.274684
0.240391
0.198652
0.276978
0.222613
0.283032
0.785822
0.86573
0.819224
0.800576
0.606486
0.668733
0.607936
0.605273
0.604518
0.606124
0.627588
0.602022
0.541135
0.509989
0.475921
0.419161
0.477162
0.517964
0.517557
0.518262
0.404576
0.456882
0.344189
0.354062
0.364379
0.35325
0.356534
0.358389
0.346223
0.348603
0.345119
0.333252
0.31797
0.340059
0.333076
0.305723
0.282991
0.310946
0.294772
0.287167
0.308714
0.294978
0.300421
0.264235
0.280807
0.311608
0.309226
0.764605
0.783267
0.805961
0.760135
0.762683
0.765668
0.76215
0.63922
0.672171
0.422974
0.407895
0.405847
0.524355
0.663133
0.535763
0.573946
0.572366
0.518861
0.500947
0.000301283
7.64086e-07
0.146933
0.344877
0.00027704
9.76159e-09
0.000995694
0.000255125
0.000396609
0.000963311
0.972757
0.956437
1.0058
1.00036
0.96553
0.958341
0.863309
0.957041
0.800697
0.743456
0.736874
0.736409
0.742929
0.743121
0.725751
0.722754
0.643512
0.7099
0.526339
0.578345
0.509861
0.521654
0.00100536
4.55059e-11
0.000154997
0.00100202
3.99761e-05
0.000986064
0.000676175
0.139782
0.521392
0.334654
0.569161
0.571723
0.683612
0.782918
0.906799
0.903946
0.940745
0.927661
0.992663
1.01804
0.489528
0.487738
0.449132
0.421181
0.318745
0.355375
0.284572
0.291613
0.283238
0.277456
0.264817
0.270787
0.200356
0.219702
0.253849
0.291682
0.348056
0.316725
0.278374
0.272443
0.209796
0.200686
0.247531
0.304965
0.229114
0.265544
0.264553
0.233662
0.231187
0.200053
0.196809
0.156069
0.16081
0.160766
0.150893
0.272872
0.314783
0.27191
0.317659
0.676322
0.63432
0.52423
0.623775
0.538659
0.590837
0.602777
0.591512
0.60355
0.606464
0.518346
0.428469
0.356533
0.343995
0.41656
0.360389
0.342785
0.459177
0.348523
0.394671
0.33777
0.335861
0.346765
0.336246
0.351051
0.343738
0.341466
0.344941
0.34288
0.343292
0.354201
0.349578
0.362179
0.360669
0.362025
0.33803
0.352671
0.335773
0.312283
0.310928
0.337745
0.365283
0.357655
0.33707
0.319244
0.341008
0.385478
0.383387
0.397242
0.35704
0.390024
0.408867
0.447942
0.39657
0.404621
0.433678
0.465591
0.583332
0.659295
0.575398
0.622784
0.696732
0.741637
0.673896
0.533956
0.637836
0.540869
0.557391
0.295271
0.240947
0.268874
0.255123
0.372702
0.494682
0.42539
0.49599
0.495076
0.514319
0.496954
2.24792e-10
0.00020131
0.0692133
5.17919e-05
0.147211
0.0364129
0.000599399
0.00100998
0.000476803
0.00100962
0.000664765
0.00100889
0.000730728
0.000955715
0.000582482
0.000952703
1.00084
0.989346
1.0253
1.01834
0.998677
0.959858
0.892484
0.802736
0.736033
0.751676
0.726746
0.730683
0.705184
0.707316
0.687977
0.690295
0.639474
0.679852
0.601581
0.546778
0.49184
0.448863
0.000939145
0.00107358
0.00107359
0.000663073
0.000617822
0.000731205
0.000589766
0.0010736
0.00107366
0.00107359
0.00100999
0.00100984
0.000550093
0.00100942
0.000924102
0.000172183
0.000288255
0.000487392
0.000977135
0.00096135
8.01918e-05
0.00097721
0.050723
0.0277024
0.223593
0.0718892
0.43635
0.592778
0.609221
0.696575
0.917006
0.814449
0.935863
0.929774
0.944357
0.978683
1.00466
1.02513
0.409326
0.407447
0.361063
0.389865
0.326945
0.291517
0.283556
0.28304
0.276162
0.283702
0.234559
0.227893
0.17621
0.189665
0.248793
0.215157
0.188623
0.237919
0.232255
0.254774
0.153938
0.150496
0.174726
0.182909
0.184746
0.139501
0.147135
0.14047
0.149406
0.131063
0.126487
0.433013
0.401151
0.405657
0.40843
0.424912
0.531519
0.492893
0.472098
0.351566
0.393181
0.378992
0.380465
0.28398
0.2201
0.396127
0.516723
0.399079
0.405911
0.386423
0.468474
0.447651
0.521659
0.552743
0.478558
0.458869
0.493116
0.372825
0.340178
0.341602
0.341415
0.257931
0.311005
0.238502
0.188754
0.166777
0.286196
0.287814
0.336283
0.336571
0.334352
0.336967
0.33431
0.340612
0.336904
0.348423
0.341593
0.36082
0.353931
0.360936
0.359881
0.383295
0.37194
0.397511
0.39808
0.349367
0.330977
0.394957
0.382643
0.368719
0.381196
0.367739
0.35689
0.408654
0.386952
0.489836
0.499851
0.449772
0.494157
0.495475
0.466239
0.558371
0.525526
0.59762
0.613295
0.637472
0.558034
0.557452
0.559477
0.518505
0.496466
0.464475
0.560017
0.406506
0.391322
0.440934
0.456687
0.135031
0.190468
0.270735
0.386683
0.422535
0.457406
0.36368
0.325799
0.289844
0.232671
0.000965631
0.000248677
0.000403174
1.1806e-07
0.0694264
0.140243
0.000993891
0.000234006
0.00100979
0.000545241
0.00024476
0.000470015
0.000926911
0.000208943
0.000889372
0.000986846
0.000766556
0.000551352
0.000138864
0.000388285
0.00097475
0.00101
0.000137809
0.000999779
0.000901194
0.000354496
0.00119036
0.000826045
0.000933766
0.00097595
0.00119019
0.0011902
0.000916074
0.000999494
0.0009727
0.000201819
9.59135e-05
0.000989075
0.000892979
0.0009482
0.00100959
0.000881287
0.00100965
0.000996543
2.65749e-05
0.000931251
0.986007
1.00882
1.02517
1.01318
0.991828
0.92107
0.738766
0.82047
0.710534
0.709623
0.689587
0.684386
0.68396
0.680281
0.673382
0.673004
0.619925
0.591054
0.491007
0.532986
0.388872
0.429833
0.000957679
0.000636742
0.000948563
0.000967574
0.000969466
0.000982262
0.000979426
0.000870723
0.00101
0.000821284
0.000677989
0.000965569
0.000971308
0.000759356
0.000380116
0.000991326
0.000690401
0.00100737
0.000803925
0.000839513
0.000369052
0.000975289
0.000889611
0.000439439
0.000917861
0.00068906
0.00101
0.000641909
7.19593e-06
4.05869e-05
0.100958
0.000855288
0.10761
0.107599
0.405544
0.241904
0.617326
0.578351
0.64
0.747006
0.85207
0.932271
0.948457
0.931076
0.96953
1.00592
0.987873
0.989815
0.00115431
0.000878386
0.000886173
0.00024426
0.000668358
0.00105024
0.00081396
0.000937902
0.000890554
0.000725685
0.000975785
0.00092383
0.000794854
2.99799e-07
0.000880516
0.00101
0.000170373
0.389845
0.388309
0.389618
0.352999
0.27466
0.309082
0.231718
0.226078
0.193161
0.187626
0.142137
0.139067
0.171098
0.166265
0.126059
0.163588
0.159294
0.206495
0.196568
0.186467
0.116567
0.0796412
0.0826698
0.120167
0.128669
0.130939
0.10734
0.110147
0.0730752
0.0619951
0.0237065
0.0283852
0.625224
0.590668
0.634373
0.643461
0.595911
0.550807
0.718783
0.734453
0.800539
0.819457
0.359428
0.404882
0.453579
0.542423
0.356472
0.303895
0.339651
0.338523
0.181302
0.233639
0.280824
0.169261
0.383509
0.383015
0.385611
0.384924
0.406043
0.383693
0.398221
0.413096
0.294819
0.286196
0.187386
0.272044
0.266747
0.220685
0.171445
0.190845
0.140435
0.15381
0.137845
0.22113
0.283552
0.213919
0.281734
0.337256
0.336949
0.335448
0.337973
0.34125
0.360251
0.352182
0.369281
0.366449
0.385456
0.381154
0.403785
0.400568
0.403198
0.401942
0.411256
0.409183
0.447509
0.416002
0.384986
0.385756
0.449301
0.419831
0.425082
0.470805
0.5071
0.510444
0.509459
0.508769
0.537488
0.590035
0.648512
0.672439
0.676005
0.657927
0.805087
0.735585
0.866151
0.907135
0.900147
0.938795
0.993792
0.859173
0.945666
0.968965
1.04389
1.09425
1.12063
1.14036
1.16759
1.11252
1.16998
1.12597
1.2039
1.2032
1.25335
1.22176
1.27966
1.31153
1.29922
1.2497
1.3132
1.33974
1.30314
1.30134
1.3668
1.34451
1.38005
1.31705
1.31567
1.37934
1.35005
1.30297
1.3005
1.33828
1.36761
0.354877
0.325142
0.49428
0.490133
0.458585
0.45591
0.456662
0.219531
0.354941
0.0572514
0.0896076
0.186731
0.174137
0.0470235
0.129569
0.116715
0.288245
0.194184
0.193566
0.103162
0.0982349
0.10506
0.130639
0.000348275
0.00101
0.000574795
4.67479e-05
0.000685899
4.44919e-05
0.00101
0.000966006
0.000995857
0.000555566
1.22079e-05
0.00169549
0.000842141
0.000928041
0.000844807
0.000691483
0.000323062
0.00069126
0.000943677
0.000831092
0.0013715
0.000421406
0.00012748
0.000146108
0.000949
0.000431299
6.93167e-06
1.61879e-05
0.000990101
0.00093513
0.00100829
0.000732207
0.000911134
0.000410555
0.00100928
0.000972059
0.000935102
0.00104688
0.00075839
0.00100665
0.000974989
0.000926586
0.00101
0.00057983
0.00104708
0.00097681
0.00104705
0.000929009
0.00100234
0.00090645
0.00101
0.00101
0.000467339
0.000585417
0.000993933
0.000773625
0.000877713
0.00099375
0.000922247
0.000776475
0.0010078
0.000994205
0.000136415
0.000956593
0.000950381
0.000921886
0.000915695
0.000919934
0.000616136
0.00101
0.000623175
0.000968314
0.979763
0.970947
0.948531
0.938072
0.86566
0.930046
0.758936
0.68538
0.680583
0.677683
0.680694
0.679927
0.617909
0.625317
0.47034
0.429457
0.389169
0.561117
0.562314
0.509681
0.513494
0.51178
0.000969548
0.000417367
0.00109066
0.00109056
0.000962471
0.000414864
0.00093308
0.000410365
0.00109036
0.00091463
0.000161511
0.00100893
0.000972717
0.000941946
0.000297472
0.000985833
0.000726155
0.00091818
0.00021426
0.00071546
0.000409783
0.000951565
0.00140126
0.00140138
1.97323e-05
5.61704e-06
0.000993189
0.10455
0.23641
0.115055
0.410211
0.570752
0.608666
0.633398
0.717602
0.832085
0.895762
0.868094
0.91568
0.856105
0.904064
0.940677
0.901927
0.898293
0.00102135
0.000998712
0.00101
0.000849207
0.000897397
0.00119335
0.000759503
0.000801326
0.00119335
0.000964874
0.000981161
0.000996251
2.69742e-07
1.14836e-05
0.000994615
0.000373012
1.02783e-23
0.00072123
0.00101
0.000253336
0.000277025
0.000765241
0.00096459
0.000879022
0.00205694
0.00100999
0.364095
0.363096
0.285441
0.299195
0.176465
0.198677
0.137899
0.13714
0.133553
0.137311
0.112575
0.114321
0.0877251
0.0849436
0.0635138
0.0962187
0.178641
0.137933
0.178448
0.182509
0.00102335
0.0203836
0.0605928
0.0420998
0.0502675
0.0532468
0.000995493
0.00010327
0.000989468
0.000792365
0.00108608
0.000651652
0.850507
0.850893
0.676451
0.589977
0.579801
0.566516
0.845777
0.753988
1.00442
1.08575
0.980392
0.902465
1.09793
1.07619
1.14349
1.19027
1.21806
1.22069
1.24747
1.21925
1.2724
1.30098
1.29511
1.29795
1.31967
1.30229
1.30351
1.34844
1.29262
1.28307
0.412536
0.338763
0.483896
0.560937
0.334706
0.289915
0.339048
0.344553
0.170654
0.224262
0.0534002
0.223941
0.108991
0.384297
0.326746
0.386987
0.377367
0.383425
0.276595
0.180572
0.102674
0.0857795
0.104731
0.143108
0.0681749
0.0505765
4.40706e-05
0.0622742
0.14708
0.140764
0.0632537
0.161409
0.229851
0.177281
0.284977
0.231704
0.273958
0.327494
0.362672
0.340243
0.371954
0.375518
0.388095
0.374935
0.411803
0.420784
0.415981
0.434886
0.439106
0.439119
0.472018
0.487516
0.47573
0.470202
0.475282
0.465231
0.483134
0.501734
0.545371
0.537092
0.505348
0.537251
0.532295
0.564589
0.598792
0.656317
0.692453
0.691618
0.703187
0.773823
0.857968
0.928994
0.944749
1.07256
0.943881
0.994142
1.14219
1.17003
1.16564
1.20354
1.25093
1.30089
1.31019
1.31696
1.34249
1.37496
1.39685
1.39891
1.40522
1.39971
1.39502
1.38027
1.31743
1.38016
1.35231
1.30635
1.30322
1.33549
1.36517
1.37439
1.30655
1.36408
1.32274
0.147282
0.138761
0.215881
0.283758
0.177388
0.243788
0.381837
0.319333
0.342774
0.181763
0.0817001
0.0466651
0.0492848
0.151792
0.139883
0.000233712
0.000476418
0.0986802
0.000370625
0.0976609
0.0981591
0.107051
0.0961541
0.114767
0.125065
0.000871197
0.000795729
0.000978231
0.000337271
0.00149096
0.00148961
0.00086849
0.000172666
0.000414719
0.00169536
0.000981197
0.00069145
0.000478021
0.000315336
0.000459196
0.00101
0.00069261
0.00137112
0.000928609
0.00101
0.000676244
0.000660221
0.000998234
0.000701989
0.000938544
0.000874495
0.00105198
0.000944446
0.000791252
0.000751098
0.000990039
7.57449e-05
0.00099613
0.000976554
0.000151024
0.00064135
0.000544652
0.000936558
0.000843756
0.000936122
0.000989653
0.00102287
0.000978339
0.000943996
0.000974885
0.00092222
0.000207016
0.000979907
0.000919067
0.00101
0.000732523
0.00100962
0.000641972
0.000367709
0.000916152
0.000960434
0.000964025
0.000892128
0.000591044
0.000479733
0.893036
0.893565
0.877599
0.877084
0.800111
0.880662
0.683162
0.742657
0.635542
0.638416
0.58568
0.567881
0.511386
0.509426
0.426766
0.322533
0.300513
0.467341
0.510859
0.509964
0.513315
0.511871
0.00109052
0.000997667
0.00109074
0.000640241
0.000973634
0.000973647
0.00094649
0.000972052
0.00100548
0.000830393
0.000135327
0.000443538
0.00093376
0.000997208
0.00060297
0.00100999
0.00098232
3.53596e-05
0.000985985
0.000873381
0.000276721
0.00043054
0.000655599
0.00101
0.000318924
0.000578175
0.0767285
0.112819
0.302343
0.138774
0.447464
0.5764
0.553298
0.660981
0.830654
0.730319
0.8086
0.804618
0.804747
0.82865
0.888678
0.880851
0.888509
0.858495
0.000769413
0.000922585
0.000563688
0.000958878
0.000712787
0.000933944
0.000627141
0.000452485
0.000819881
0.000879841
0.000957505
0.000856862
0.000968979
2.73077e-15
0.000922039
0.000873917
0.00096514
0.000987798
0.000743529
0.00100999
0.000468733
2.14428e-07
0.00193427
0.000901385
0.00101
0.000860782
0.000668131
0.000489708
0.000136748
2.71312e-13
0.00098545
0.238622
0.236947
0.201035
0.18013
0.139826
0.159637
0.125552
0.125052
0.282895
0.220036
0.202323
0.0525917
0.062706
7.34805e-05
0.000896982
0.0606782
0.062636
0.0505651
0.100422
0.14949
0.10981
0.137473
0.127266
0.0199309
0.000953253
0.013627
0.0345019
0.000587295
0.000993373
1.30661e-05
0.00052455
0.000737284
0.000689738
0.000594218
0.000796217
1.42427
1.43442
1.45869
1.43709
1.4793
1.46471
1.48754
1.48116
1.53663
1.52388
1.48806
1.54578
1.51208
1.56059
1.39197
1.34568
1.36084
1.41037
1.39498
1.36314
1.36388
1.41788
1.42446
1.39897
1.38065
1.43222
1.41561
1.42178
1.44894
1.30436
1.30517
1.30456
1.3049
1.32394
1.34069
0.898567
0.838195
0.732739
0.637597
0.552076
0.627712
0.829306
0.809348
1.0524
1.08
0.963974
1.04686
1.0837
1.13278
1.18113
1.22043
1.21904
1.21862
1.21649
1.2463
1.25721
1.28558
1.26914
1.27452
1.27645
1.29187
1.26303
1.2637
0.465645
0.389507
0.332258
0.321434
0.383488
0.554763
0.537812
0.263513
0.322736
0.196708
0.120718
1.40823
1.42737
1.44499
1.45238
1.45638
1.4683
1.47293
1.49946
1.48334
1.50242
1.49968
1.55052
1.57355
1.59803
1.59907
1.60152
1.61749
1.64073
0.104054
0.046394
0.0490849
0.308287
0.196641
0.368402
0.269846
0.19168
0.0890471
0.0885775
0.0852243
0.0896915
0.00075461
0.016165
0.000879062
0.000595217
1.43128e-63
6.10001e-120
0.155027
0.0849948
4.58493e-10
0.178125
0.177554
0.178929
0.233571
0.19083
0.31614
0.264314
0.351051
0.313594
0.34737
0.379028
0.398163
0.426772
0.446084
0.444422
0.455572
0.447973
0.503494
0.492704
0.485689
0.483615
0.536624
0.508816
0.581353
0.540014
0.523697
0.566169
0.609172
0.598223
0.620373
0.654151
0.657559
0.603477
0.715726
0.743129
0.713608
0.707092
0.787332
0.871943
0.944255
1.01217
0.959528
0.974301
1.1021
1.16263
1.20333
1.18334
1.2493
1.27932
1.32214
1.33741
1.3319
1.35363
1.41042
1.38841
1.40504
1.4111
1.39472
1.39362
1.40405
1.40251
1.39598
1.39337
1.39688
0.132572
0.124652
0.148344
0.0717121
0.0914687
0.111741
0.0454308
0.18889
0.0901386
0.0233582
0.0473825
0.0250584
0.000725695
0.0246476
0.0506342
0.000745417
0.000202877
0.000270889
2.18643e-05
0.097496
0.000847272
0.00113546
0.000701645
0.000786448
0.000622418
0.000925573
0.000916094
0.000935263
0.00112626
0.00112625
0.00149057
0.000663584
0.00101
0.00097277
0.000776109
0.00096702
0.000896738
0.000998449
0.00026155
0.000888291
0.00100984
0.000894905
0.00112619
0.000229065
0.000398457
0.000668916
0.00101
0.000330569
0.000740386
6.84208e-17
3.92281e-11
0.00238852
0.000379096
0.000850418
0.000694792
0.000545923
0.000997667
0.0003892
0.00100993
0.000972649
0.000977525
0.000963111
0.000999516
0.000738464
0.0010132
0.000927478
0.000705838
0.000973683
0.000727205
0.00101282
0.00089779
0.000955844
0.000631827
0.000258775
0.000738074
0.000964465
0.000941166
0.000838222
0.00101
0.000334973
0.000769708
0.000685233
0.000978177
0.000925692
0.000935309
0.000888744
0.00091709
0.000695524
0.000567275
0.00209595
0.000179458
0.000674617
0.000835469
0.000923209
0.00209591
1.59006
1.559
1.53181
1.63524
1.66797
1.65894
0.866514
0.876265
0.861427
0.8525
0.7822
0.83648
0.683503
0.598448
0.525289
0.539879
0.509754
0.51317
0.512037
0.509474
0.387376
0.30702
0.396256
0.474179
0.474817
0.00093523
0.000796778
0.000875173
0.000890082
0.000922295
0.0009764
0.000965395
0.000493094
0.000931051
0.000554111
0.00100943
0.000959595
0.000969088
0.0752981
0.10825
0.1418
0.00100998
0.000498781
0.000128694
0.000927014
4.59314e-06
0.00027668
0.000921556
0.000785239
0.000496577
0.000783296
0.0001816
0.276418
0.417622
0.53105
0.533103
0.850694
0.767776
0.779948
0.571039
0.661924
0.748165
0.799086
0.805005
0.798292
0.813162
0.845358
0.844388
0.000700957
0.00116067
0.000625816
0.000982796
0.000704864
0.000720222
0.00100904
0.000845157
0.000718885
0.000865554
0.000823186
0.000932446
0.000763197
0.000831138
0.000896425
0.00053555
0.000627663
0.00100504
0.000978863
0.000935387
0.000938185
0.000682923
0.000770427
0.000937995
0.000997599
0.000978674
0.000347723
0.000953032
0.000978459
0.000973622
0.00101
0.000984843
0.000871643
0.000978065
0.000827832
0.000911296
0.000811322
0.236172
0.27315
0.260381
0.202225
0.20199
0.176021
0.193432
0.0626244
0.0895901
0.000401904
0.00115521
0.207935
0.194055
0.000404715
0.000973606
0.000612942
0.000962556
0.0129239
0.000957615
0.0288468
0.000850306
0.103273
0.0507022
0.100074
0.112082
0.000140878
0.000680105
0.000702988
0.000389063
0.000653842
0.000551523
0.000693939
9.93495e-05
0.000358069
0.000994303
5.82043e-05
0.000979051
1.42549
1.43707
1.46037
1.48186
1.48577
1.48892
1.52245
1.50255
1.35437
1.35487
1.33805
1.3564
1.39028
1.35149
1.40089
1.37245
1.2928
1.27696
1.27838
1.30981
1.33559
1.31401
0.903095
0.820219
0.718921
0.80121
0.654189
0.566586
0.81719
0.815907
1.06132
1.06365
1.07913
0.974883
1.05446
1.16439
1.11086
1.05538
1.09586
1.19768
1.20857
1.20094
1.2064
1.21298
1.23679
1.26299
1.25418
1.26668
1.26341
1.26485
1.26068
1.26032
1.26577
0.302999
0.312154
0.449781
0.529683
0.310088
0.387158
0.555278
0.560889
0.301226
0.245452
0.158387
0.21946
1.43898
1.40239
1.41562
1.46391
1.46068
1.46288
1.47323
1.49506
1.51567
1.52706
1.529
1.53257
1.55546
1.59905
1.58032
1.59741
1.61875
1.65882
1.63527
1.4691
1.47988
1.49501
1.66316
1.66023
1.66184
0.0475837
0.0480292
0.0504273
0.022606
0.114457
0.134628
0.000757595
0.000575395
0.00988208
0.000766301
0.000994294
0.000927346
0.000578176
0.00101
0.000702905
0.00100987
0.000969713
3.31103e-06
0.0313304
4.74303e-27
0.00188395
0.110074
0.184366
0.0951505
0.252234
0.280314
0.212661
0.253697
0.314774
0.281008
0.409859
0.348581
0.421059
0.437396
0.445315
0.433344
0.479733
0.520641
0.560585
0.556892
0.563682
0.552045
0.574781
0.559257
0.608421
0.609812
0.633286
0.634888
0.613452
0.612364
0.734517
0.781642
0.680644
0.743873
0.789892
0.752169
0.851156
0.900259
0.995818
1.03788
1.01316
1.10516
1.15796
1.25788
1.23984
1.29916
1.27686
1.37212
1.37769
1.37214
1.3993
1.42836
1.42784
1.4817
1.44727
1.46999
1.43185
1.44492
1.47669
1.39658
1.43065
1.4063
0.000253379
3.36407e-05
0.00079026
0.000510396
0.0662753
0.0452102
0.0424467
0.024902
0.0432719
0.000413591
0.000669699
0.000496604
0.000319835
0.000751572
0.000485453
0.000254791
0.000462491
0.000172223
0.000508679
2.93742e-05
7.29246e-05
2.62887e-05
5.50518e-07
0.000209744
0.000788473
0.00102976
0.000970922
4.88643e-05
0.00112624
0.00112624
0.000977154
0.000995782
0.000992745
3.82214e-05
0.00101
0.000912008
0.0010004
0.000112849
0.00044385
0.000919656
2.06407e-12
0.000297927
0.00219657
1.60269e-11
0.000984734
5.53915e-05
0.0009581
0.000364482
0.00101
0.000172236
0.000988932
0.00221649
0.000987517
0.000134455
0.00096781
0.00100982
0.00130738
0.000377668
0.00100983
0.000979813
0.000465046
0.000983408
0.00101
0.000808151
0.00101357
0.00101344
0.000896998
0.000916797
0.00101295
0.00101352
0.000955402
0.000915337
0.000711032
0.000919589
0.00160343
7.36323e-05
0.00160331
0.000785506
0.00098702
0.000966821
0.00099923
0.00100984
0.00101
0.00100994
0.000799141
0.000805878
0.000827454
1.20946e-05
9.12481e-06
0
0.00090453
0.000799517
0.000430028
0.000845407
0.00130733
0.000898711
0.00100958
0.00100997
0.000792949
0.000998553
0.000946811
0.000914726
0.00101
1.54797
1.57414
1.57088
1.56824
1.59893
1.7044
1.67577
1.67879
1.7039
1.644
0.777319
0.775919
0.706796
0.709063
0.65892
0.691388
0.607589
0.56078
0.544663
0.509807
0.484921
0.487482
0.394605
0.408603
0.275653
0.316266
0.316681
0.000529692
0.000965684
0.000913493
0.00101
0.000949844
0.000924031
0.000585991
0.107167
0.249309
0.109473
0.000919443
0.000220381
0.000959565
0.000979614
0.000123557
0.000317934
0.00101
0.000973661
0.000746726
0.0010215
0.000849804
0.000995184
0.000944045
0.000847483
0.00025022
0.645204
0.640805
0.698715
0.387585
0.532902
0.529682
0.567627
0.696266
0.751422
0.719893
0.630897
0.711339
0.735462
0.740776
0.670005
0.698162
0.000957717
0.000981662
0.0011607
0.00101
0.000650745
0.000823908
0.00101
0.00117457
0.000950878
0.000996806
0.000160682
0.000986054
0.000875008
0.000936631
0.000510229
0.00102832
0.0009778
0.00102843
0.00102835
0.00101
0.000771965
0.000895476
0.000833864
0.000976221
0.00092185
0.00100577
0
0
0
0.000726778
0.0010919
0.000977444
0.00100563
0.000944429
0.000473953
0.000911195
0.000978965
0.000968087
0.00097325
0.000338297
0.000895901
0.000914242
0.000926795
0.00091203
0.00102838
0.251637
0.265038
0.276845
0.138619
0.162977
0.121465
0.119689
0.0526749
0.0416528
0.00129428
0.000791652
0.00081418
0.0012929
0.0547491
0.0520909
0.000406739
0.000485044
0.000242686
0.000584634
0.000446954
0.00102429
0.000834325
0.0146449
0.0950744
0.0563628
0.117597
0.0778111
0.000149906
0.00120023
0.000474595
0.00102425
0.000312228
0.000747328
0.000806224
0.000346646
0.00101
0.000942721
0.00055019
0.00120021
1.42857
1.38037
1.46073
1.42603
1.42599
1.48115
1.46647
1.51935
1.50267
1.54243
1.50619
1.47188
1.54196
1.50421
1.32275
1.32073
1.30916
1.32379
1.3346
1.34882
1.34578
1.35737
1.26613
1.26274
1.28869
1.2756
1.30402
1.31171
0.902728
0.819885
0.744923
0.815896
0.616128
0.707682
0.816499
0.823729
1.05346
1.05377
1.05569
0.978181
1.14125
1.18677
1.09913
1.0536
1.19137
1.19254
1.20486
1.19299
1.22956
1.25374
1.25915
1.26054
1.25603
1.26155
1.26106
1.26424
1.26008
1.26343
0.30639
0.29662
0.468033
0.543793
0.441786
0.366136
0.595202
0.553476
0.278177
0.2982
0.272787
0.184538
1.4489
1.47102
1.45478
1.48595
1.504
1.48968
1.5233
1.53768
1.51527
1.52795
1.51814
1.5298
1.53342
1.55972
1.58216
1.59758
1.59903
1.64763
1.62242
1.67191
1.6757
1.55046
1.56513
1.67466
1.68666
0.000406661
0.000325806
0.000696944
0.000752179
0.000524739
8.98387e-05
0.000260243
0.000181319
0.00101
1.00585e-05
0.000927799
0.000258474
0.000705117
0.000657476
5.07035e-06
0.000780461
0.00188391
0.000411425
0.000957102
6.00245e-06
0.000466156
0.0343496
0.181181
0.0843936
0.266976
0.26853
0.234349
0.186935
0.307747
0.350028
0.408634
0.396278
0.420055
0.408936
0.52486
0.474116
0.577806
0.568348
0.590814
0.598352
0.572174
0.627747
0.673656
0.644925
0.630209
0.657744
0.706661
0.696911
0.677685
0.720134
0.806996
0.802748
0.798671
0.817843
0.945069
0.866076
1.03625
1.05753
1.06204
1.12596
1.2037
1.27524
1.28742
1.29459
1.34552
1.39242
1.42998
1.43071
1.46859
1.44145
1.49394
1.50709
1.50854
1.50835
1.51067
1.51262
1.47222
1.50279
1.48681
0.00085366
0.000166557
0.00746424
0.00102495
0.000670802
0.000624342
0.000679581
0.000726216
0.000988775
0.000670929
0.000983811
0.00145534
0.000961148
0.00145688
0.00145632
0.00145779
0.00145778
0.000998825
0.00145493
0.00679153
0.00100737
0.000638589
0.000184916
0.00102989
0.000468076
0.00102975
0.00102975
0.00043317
6.99597e-05
0.00100217
0.000993637
0.000687571
0.000856518
0.000835374
0.00101
0.00128704
0.000757139
0.000959982
0.00100986
0.000887496
0.000962023
0.000991746
0.00186669
0.000977503
0.000146754
1.36216e-05
0.000607696
0.00096357
0.000988249
0.000479144
0.000826696
0.000961729
0.00100941
0.00031059
4.87064e-05
0.000987756
0.00100992
0.000817418
0.000560979
0.000690846
0.00101
0.000799183
0.000968437
0.000279366
0.000905419
0.000941315
0.000929256
0.0010008
0.000939674
0.000880492
0.000886752
0.00100949
0.00097168
0.000773375
0.000984106
0.000952799
0.000531745
0.00098992
0.000934564
0.000964099
0.000974876
0.000974485
0.00101
0.00099424
0.000905098
0.000464111
0
0
0
0
0
0
0
0
0
0
0
0
0
0
0
0
0
0
0
0.00099334
0.000887892
0.000937661
0.000812305
0.000917898
0.000434354
0.000930589
0.00106367
0.000325168
0.000811332
0.000611929
0.000885277
1.72843
1.72404
1.737
1.73063
1.7338
1.74274
1.57796
1.58401
1.63794
1.61441
1.69569
1.70784
1.71554
1.59368
1.53803
0.651748
0.642184
0.647588
0.636761
0.639571
0.576079
0.620651
0.406678
0.462351
0.326977
0.329948
0.274156
0.275611
0.275246
4.53839e-05
0.000761466
0.000495047
0.000982711
0.0817229
0.275691
0.107592
0.000948865
0.000967043
0.0603147
0.000504799
0.000977274
0.000745279
0.000970402
0.000977458
0.000717645
0.000324141
0.0010334
0.0010335
0.000356833
0.00103342
0.000932938
0.0004632
0.000564851
0.646386
0.645737
0.645192
0.650498
0.642516
0.357035
0.475478
0.416492
0.537271
0.601799
0.619988
0.552447
0.638599
0.588481
0.586109
0.573055
0.000954778
0.00109611
0.000869776
0.000970576
0.000973219
0.000935143
0.000693973
0.00101457
0.000148362
0.000899956
0.00101252
0.000661814
6.92933e-05
0.000748165
0.00102004
0.000508825
0.000763669
0.000844238
0.00095495
0.000944311
0.00094707
0.000982676
0.000740767
0.000908685
0.000621516
0.00100955
0.000627569
0.000973579
0.000348921
2.15212e-05
0
0
0
0
0
0.000852856
0.00109288
0.000978274
0.00109014
0.000988902
0.000872265
0.00078846
0.000950347
0.00098805
0.00100037
0.00093197
0.000953825
0.000956596
0.000997349
0.000778615
0.00101
0
0
0
0
0
0
0.253895
0.181139
0.167215
0.0994347
0.090697
0.00958715
0.000956753
0.000520231
0.000249968
0.000311719
0.001002
0.000845685
0.000375808
0.000550644
0.00033854
0.000760208
0.000742752
0.000795758
0.000905726
0.000971356
0.000987363
0.0557702
0.125769
0.0369706
0.000484568
0.000824126
0.000492093
0.000389299
0.00781957
0.00027789
0.000601783
1.31742e-05
0.000467482
0.00184073
0.00184244
0.000621987
0.000959699
0.000281529
0.000798649
0.00100972
0.000818552
1.40069
1.37909
1.39351
1.39328
1.4059
1.41393
1.42036
1.47145
1.46191
1.47737
1.56101
1.50857
1.46013
1.31214
1.31234
1.33796
1.32543
1.34962
1.34669
1.37435
1.35521
1.26275
1.27157
1.29294
1.27926
1.29613
1.30385
0.94034
0.858506
0.782868
0.823071
0.768978
0.676522
0.859103
0.81931
1.05734
1.05749
1.01417
1.05946
1.14974
1.1942
1.0624
1.10491
1.2003
1.19294
1.214
1.1996
1.24117
1.25534
1.25918
1.2684
1.24892
1.26719
1.25965
1.25561
1.25456
1.25809
0.294906
0.355226
0.543613
0.526472
0.445695
0.519638
0.550822
0.621684
0.291349
0.287063
0.284544
0.194534
0.0329275
0.0780327
0.163162
1.51519
1.50814
1.542
1.53077
1.55504
1.56789
1.56307
1.56703
1.60269
1.58513
1.5987
1.56255
1.59575
1.6057
1.62971
1.64858
1.65788
1.65586
1.70323
1.70603
1.73251
1.70823
1.62658
1.63036
1.74566
1.74225
0.00016622
0.000334169
0.00101
7.12972e-06
0.000729054
0.00124698
0.00124703
0.00098349
0.000305007
0.000120745
0.000101195
0.00207967
0.00102299
0.000798407
0.000822227
0.000857277
0.00100232
0.000626775
0.0204857
0.00091974
8.36734e-05
0.0704807
0.116592
0.129107
0.11388
0.217231
0.288059
0.158861
0.390877
0.330122
0.399535
0.405257
0.492747
0.432021
0.554042
0.586507
0.58457
0.584365
0.713986
0.674401
0.641941
0.698898
0.726318
0.72281
0.711977
0.703373
0.718306
0.722299
0.798592
0.842242
0.878005
0.838305
0.880792
0.905335
1.04464
0.981767
1.07394
1.05917
1.14
1.21356
1.30218
1.29482
1.3333
1.36939
1.44715
1.43449
1.45875
1.46253
1.49063
1.50087
1.51942
1.51084
1.52269
1.51916
1.51005
1.52112
1.50495
1.51063
0.000979201
0.00086332
0.00101
0.00067133
0.000947346
0.000657298
0.000566723
0.000789161
0.000642839
0.00145427
0.000368961
0.00093416
0.000295436
0.00145428
0.00145659
0.00145587
0.00145797
0.00145624
0.00145677
0.000337847
0.000371652
0.00100126
0.000644302
0.000938422
0.000788581
0.00100179
0.000667744
0.000997704
0.000180038
0.000954666
0.000624923
0.00101
0.000209386
0.000613088
0.00100863
0.00128613
0.000967511
0.000911012
0.000979696
0.00359369
7.45342e-05
0.000210438
0.00024578
0.00100989
0.000829584
6.4218e-09
0.000994761
0.00100983
0.000226202
0.000848872
0.00100647
0.000131712
0.00100976
0.000959372
0.000162115
0.000986414
0.000975827
0.0009892
0.00360782
0.000980885
0.000682361
0.00098777
0.000776699
0.000662735
0.00125785
0.00125776
0.00125778
0.000900202
0.000946957
0.000832782
0.000987787
0.000948013
0.000941776
0.000961192
0.000871734
0.000897996
0.000947049
0.000951887
0.000925848
1.67713e-05
0.000881191
0.00092376
0.0003855
0.000414352
0.00098456
0
0
0
0
0
0
0
0
0
0
0
0
0
0
0
0
0
0
0
0.00090163
0.000943785
0.00101
0.000948967
0.0014469
0.000682657
0.00111085
0.000917911
0.00110465
0.000953696
0.000807975
0.000991424