/*--------------------------------*- C++ -*----------------------------------*\
  =========                 |
  \\      /  F ield         | OpenFOAM: The Open Source CFD Toolbox
   \\    /   O peration     | Website:  https://openfoam.org
    \\  /    A nd           | Version:  8
     \\/     M anipulation  |
\*---------------------------------------------------------------------------*/
FoamFile
{
    version     2.0;
    format      ascii;
    class       volScalarField;
    location    "20940";
    object      alpha;
}
// * * * * * * * * * * * * * * * * * * * * * * * * * * * * * * * * * * * * * //

dimensions      [0 0 -1 0 0 0 0];

internalField   nonuniform List<scalar> 
526318
(
0.000221285
0.000222502
7.46747e-05
0.00019464
3.70722e-05
0.00025466
0.00019677
0.000198665
0.0001245
0.00018029
0.000154256
0.000239024
0.000182362
0.000165478
0.000114342
9.64457e-05
0.00021675
0.0001873
0.00020399
0.000124972
0.000269787
0.000207018
0.000161087
5.71802e-05
0.000185288
2.63383e-05
0.000127909
0.000196367
0.000103546
8.79341e-05
0.000175923
0.000117902
0.000108189
1.32464e-05
8.32085e-05
8.49368e-05
0.000250294
0.000119169
0.000189551
0.000453296
0.000271856
0.000170957
0.000249476
0.000170496
0.000218088
0.00026456
0.000264663
0.000369129
0.000128341
0.000216645
0.000262302
8.94167e-05
0.000427893
0.000221063
0.000207626
0.000215178
0.000254052
0.000179342
7.92559e-05
0.000127058
0.00011194
0.000129847
0.000163269
5.75849e-05
0.000148102
0.000129028
0.000112331
0.000177563
6.53247e-05
7.75478e-05
0.000108213
0.000165938
9.67639e-05
0.000125166
0.000114729
0.000216178
0.000153416
0.000223639
0.000202982
0.000334424
0.000143096
0.000114088
0.000109039
0.000104466
0.000253134
0.00024301
0.000143936
0.000203363
0.000190998
6.58099e-05
0.000199197
0.00021704
0.000129444
0.000214092
0.000218601
0.000187103
0.000232083
0.00017028
0.000167003
0.000209855
0.000399924
0.000496603
0.000315075
0.000293194
0.000213453
0.000140543
0.000250069
0.000202718
0.000221949
0.000160825
9.06369e-05
0.000283088
0.000135567
0.000194567
0.000147488
0.000191632
3.36239e-05
2.21999e-05
0.000150206
0.000119552
0.00021336
0.000154302
0.000131657
4.33876e-05
0.000145061
0.000140353
0.000103485
2.51153e-05
0.000145411
7.92119e-05
3.40363e-05
5.84748e-05
9.18346e-05
2.79876e-05
3.68722e-05
1.36372e-05
3.43312e-05
4.95913e-05
3.48498e-05
2.21722e-05
6.61643e-05
8.37411e-05
3.29431e-05
1.8754e-05
9.37174e-05
5.41288e-05
0.000134127
2.21182e-05
0.00017584
6.02176e-05
4.74653e-05
0.000117534
0.000200397
0.00030503
0.000136949
0.00024221
0.000125747
0.000155582
0.000287519
0.000182202
0.000296389
0.000171926
0.000341473
0.0001646
9.46368e-05
0.000113862
0.00015186
0.000203897
0.000197992
0.000126702
0.000152522
0.000244596
0.000155054
0.000207226
0.000263071
0.000212883
0.00017119
0.000176231
0.0002466
0.000211719
0.0001336
0.000167658
0.000147735
8.53482e-05
0.000141912
3.82798e-05
0.000115202
6.93028e-05
0.000113911
1.69588e-05
8.48258e-05
3.19855e-05
7.47958e-05
3.72758e-05
8.92525e-05
0.000147027
3.80176e-05
9.58876e-05
0.000168636
0.000116528
0.000145972
0.000357109
1.37468e-05
7.30499e-05
0.00015127
0.000201972
0.000246037
0.000209885
0.000237751
0.000228146
0.000368491
0.000126669
3.74535e-05
0.000258607
0.000146763
0.000207412
0.000103224
0.000248347
0.000245965
0.000374722
5.6796e-05
9.23202e-05
0.000232401
0.000379104
0.000131596
9.82835e-05
0.000151646
0.000283698
0.00022374
0.000358709
0.000607952
0.000309684
0.00033043
0.00141191
0.00192424
0.000666375
0.000541571
0.000132918
0.000936112
0.000137681
0.00015249
7.07842e-05
0.000109944
0.000158392
0.000144026
0.000135185
0.000171454
0.000132809
9.80405e-05
3.50436e-05
0.000211993
0.000227479
0.000202658
0.000190664
0.000107772
0.000147466
0.000221673
0.000167201
0.000165323
0.000144188
0.000158495
0.00200021
0.00637036
0.00071574
0.00121627
0.000359715
0.000491888
0.000382093
0.000343043
0.000256046
0.000227791
0.000177284
0.000161462
9.05059e-05
0.000306341
9.20374e-05
0.000188633
7.0793e-05
9.40899e-05
4.41149e-05
9.01274e-05
9.96056e-05
0.000214171
0.000174804
6.78255e-05
7.04531e-05
0.000164578
3.86867e-05
0.0001245
7.42452e-05
2.16163e-05
3.91441e-05
9.75999e-05
9.36084e-05
8.58877e-05
0.000202623
0.000162725
0.000193485
0.000201688
0.000195915
0.00016284
0.000158128
0.000233365
0.000211192
0.000221199
0.000206856
3.86899e-05
7.96377e-05
6.0894e-05
0.000208784
0.000115963
0.000121013
3.16311e-05
0.000177569
0.000105542
0.000144593
0.000187979
0.000179838
0.000159012
0.000198337
0.000187569
0.000261539
0.000255238
0.000181
0.000205707
0.000136051
0.000115008
0.000239947
0.000227569
0.000177483
0.000255593
0.000317807
0.000238232
0.000279103
0.000144965
0.000248903
0.000107459
0.000157184
0.000232662
6.79467e-05
0.000104168
0.000143386
8.97503e-05
0.00013889
9.72595e-05
0.000159388
0.000151491
1.76295e-05
4.9671e-05
8.34341e-05
8.71055e-05
1.38199e-05
0.000102782
8.58752e-05
0.000116588
0.000128465
0.000103746
8.39799e-05
7.11656e-05
0.000208941
5.27654e-05
9.00158e-05
0.00018833
0.000179632
0.00022089
0.000172164
0.000204571
0.000160316
0.000222044
0.000191919
0.000185824
0.000187486
0.000182959
0.000215658
0.000211298
0.000232829
0.000163783
0.000137876
0.00022095
0.000300247
0.000613878
0.000305369
0.000252126
0.000311073
0.000263451
0.0003306
0.000247726
0.000337847
0.000238768
0.000452569
0.000197054
0.000186679
0.000258153
0.000287597
0.000105811
0.000346973
0.000233862
0.000280204
0.000228785
0.000643714
0.000456962
0.000542397
0.000140565
0.000627262
0.000264354
0.00409109
0.00255474
0.00364959
0.0105267
0.0612807
0.00407464
0.00425556
0.000271615
0.000885661
0.00149652
0.000112082
0.000103854
4.17107e-05
0.000184573
8.29754e-05
5.89406e-05
8.4901e-05
0.000160767
0.000141788
0.000227753
0.00022809
5.59974e-05
0.0001664
6.87912e-05
0.000210383
0.00012129
0.000148859
0.000121632
0.000232535
0.000120595
0.000220038
9.80079e-05
0
0.00218682
0.000244155
0
0
0
0
0.000320832
0.00208148
0.00160064
0.0017639
0
0
0
0.0362839
0
0.00801754
0.000325857
0.00261407
0.000836648
0.000422892
0.000530192
0.000493893
0.000416712
0.000262246
0.000439244
0.000173162
0.000248903
0.000175808
0.000192048
6.9379e-05
0.00015742
8.42165e-05
0.000143472
6.51575e-05
3.70562e-05
6.32743e-05
0.000138498
0.000188987
9.96859e-05
9.4306e-05
0.000198098
0.000174967
9.14984e-05
2.79767e-05
0.00014729
2.89102e-05
0.000101672
0.00011854
3.78446e-05
0.000150862
0.000108734
0.00017626
0.000186455
0.000196161
0.000170693
0.000213297
0.000198958
5.71767e-05
0.000234006
8.7649e-05
8.1073e-05
3.75535e-05
0.000122341
5.23898e-05
0.000148808
0.00015878
8.77885e-05
0.000209772
0.000173555
0.000240611
0.000243202
0.00022377
0.00023828
0.000190014
0.000214865
0.000206793
0.000181085
0.000193067
0.000205989
0.000234386
0.000206061
0.000227688
0.00018013
0.000316396
0.00029003
0.000341079
0.000234317
0.000205721
0.000187734
0.000235833
0.000186804
0.000215026
0.000176944
0.000279625
0.000258111
0.000225329
0.000251128
0.000163132
0.000115555
0.000279589
0.000180799
0.000245087
3.74396e-05
9.19975e-05
8.01298e-05
0.000110077
0.00019178
0.000198779
7.91116e-05
0.000222044
4.81289e-05
0.000178729
3.08633e-05
6.08314e-05
7.52438e-05
4.10334e-05
6.57872e-05
0.000114451
4.41519e-05
7.78698e-05
9.21037e-05
9.27629e-05
0.000155156
0.00014887
7.05456e-05
8.88325e-05
0.000227791
0.000173742
0.000185722
0.000161202
0.000189908
0.000200141
0.000149575
0.000174805
0.000168426
0.000156806
0.000143752
0.000183668
0.000181655
0.000160094
0.000188153
0.000168121
0.000165096
4.48859e-05
7.15227e-05
0.000213645
0.000460251
0.00029699
0.000614626
0.000323882
0.000263412
0.000314159
0.000306779
0.000295468
0.000117454
0.000477134
8.03813e-05
0.000298317
8.05889e-05
0.000211294
0.000229968
0.000199533
0.000311955
0.000316559
0.000529387
0.000938733
0.000680083
0.000457687
0.000505287
0.000452933
0.0548364
0
0.0363771
0.080493
0.025967
0
0.00272914
0.00923159
0.00254824
0.00335801
0
0
0
0
0
0
0
0
0
0
0.00575261
0
0.00104185
0
0.00213866
0.00664493
0
0
0
0
0
0
0
0
0
0
0
0
0
0
5.81669e-05
1.22925e-05
6.39932e-05
6.4237e-05
0.000164957
6.23215e-05
0.000143548
0.000126554
0.000192631
8.11347e-05
8.50371e-05
0.000155881
0.000113357
0.000228775
0.000110659
0.000154229
0.000228385
9.52601e-05
9.9392e-05
0.000144461
7.49258e-05
0.000213819
0
0
0
0
0
0
0
0
0
0
0
0
0
0
0
0
0
0
0
0
0
0
0
0
0.0635714
0.00462025
0.00019079
0.00244574
0.00107495
0.000678633
0.000384705
0.000482347
0.000451374
0.000363428
0.000260972
0.000317935
0.000214377
0.000175844
0.00011612
0.000172074
0.000188133
9.19684e-05
7.91222e-05
0.000120577
3.97875e-05
0.000140702
0.000180458
0.000127959
0.002994
0
0
0
0
0
0
0
0
0
0
0
0
0
0
0
0
0.000166608
9.26857e-05
0.000184098
9.96559e-05
9.06986e-05
0.000190921
1.86254e-05
0.000175285
1.59113e-05
0.000143637
0.000144296
1.92176e-05
0.000138448
0.000164228
0.000193227
0.000189074
0.00019863
0.000237648
0.000270203
0.000235004
9.94285e-05
0.000128112
0.000169187
0.0001486
5.14088e-05
0.000125082
0.000123281
5.82713e-05
4.03239e-05
0.000156454
0.000175524
6.11576e-05
0.000182272
0.000172669
0.000183815
0.000185939
0.000183807
0.000181827
0.000174571
0.000176884
0.000163934
0.000171227
0.000266933
0.000245434
0.000228627
0.000204493
0.000222904
0.000217557
0.000256577
0.000233145
0.000284656
0.000253762
0.00020929
0.000103604
0.000312814
7.24812e-05
0.000186614
9.50352e-05
0.000142055
0.000346324
0.000304449
0.000256947
0.000294348
0.000264866
0.000289019
0.000175157
0.000100399
0.000298696
8.19388e-05
0.000337998
0.000357849
0.000239882
0.000310569
0.000216091
0.000243963
0.00016849
0.000261836
0.000137759
0.000124065
0.000224707
0.000101281
7.16516e-05
4.76369e-05
7.37049e-05
6.99301e-06
4.26574e-05
6.59807e-05
3.45672e-05
3.23842e-05
8.16751e-05
6.99525e-05
5.61942e-05
0.000114229
0.000123794
0.000109785
0.000111083
0.000193497
0.000193267
0.000134708
0.000183801
0.000157464
0.00016898
0.000129618
0.000140974
0.000120046
0.000129855
0.000134704
0.000137133
0.000141117
0.000155365
0.000169899
0.000184736
0.00017188
0.000178595
0.000163026
0.000150284
0.000160687
0.00016598
0.000160026
0.000179139
0.000152031
0.000150566
0.000143015
0.000142956
0.000135218
0.000149477
0.000138881
0.000147639
0.000142208
0.000162403
0.000162324
0.000150031
0.000149482
0.00016748
0.00016845
0.000158745
0.000152386
0.000184788
0.000163364
0.000173606
0.000183981
0.000192278
0.000170091
0.000189415
0.000180287
0.000195486
0.000191229
0.000180075
0.000186697
0.00018763
0.000183375
0.000181947
0.000186459
0.000415684
0.000295959
0.000196726
0.000227149
0.000136446
0.000330389
0.000322331
0.0003949
0.000289122
0.000379481
0.000257622
0.000342067
0.00027752
0.000261696
0.000308187
0.000140325
0.000241946
0.000262659
7.38976e-05
0.000282597
0.000221618
0.000221488
0.000342046
0.00141337
0.00158249
0.000355836
0.00166228
0.000287695
0.000646903
0
0
0
0
0
0
0.0210541
0.00442437
0.00500703
0.00574046
0
0
0
0
0.012473
0
0
0
0
0
0
0
0
0
0
0
0
0
0
0
0
0.000398847
0
0.000452736
0
0
0
0
0.00571494
0
0.00860261
0.0078766
0
0.00589686
0.0157156
0.0223689
0
0
0
0
0
0
0
0
0
0
0
0
0
0
0
0
0
0
0
0
0.000104691
0.000158981
0.000153492
9.21711e-05
0.000129645
0.000174285
8.25859e-05
4.41418e-05
0.000204622
0.000108592
9.20109e-05
0.000191827
0.000120844
0.000159162
5.96632e-05
0.000134509
6.55018e-05
0.000117269
0.000202199
8.19314e-05
0.000221488
0.000156348
0
0
0.00389417
0.00288608
0
0
0
0
0.00691278
0
0
0
0
0
0
0
0
0
0
0.0954403
0.000271078
0.00433487
0.000657983
0.00112806
0.000560653
0.000558981
0.000378573
0.000424833
0.000287732
0.000376216
0.000205274
0.000127841
7.61261e-05
0.000225255
0.000192352
0.00021903
6.32217e-05
6.48808e-05
0.000146989
0.000188361
0.000118631
0.000154412
5.85842e-05
3.97734e-05
0
0
0
0
0
5.62989e-05
0
0
3.50798e-05
0
0
0
0
0
0
0
0
0
0
0
0
0
0
0
0.540092
3.24848
9.35902e-05
0.000169975
0.000113881
0.000193824
0.000104397
0.000217843
0.000211541
6.93514e-05
6.61594e-05
0.000159232
0.000101714
0.000162745
0.000175301
0.000185409
0.000208774
0.00024747
0.000251222
0.000189201
0.000251629
0.000279819
0.000199765
0.000109783
0.000148687
0.000220251
0.000129602
0.000184178
0.000134633
0.000206349
0.000156109
0.000143162
0.000129325
0.000146267
0.000171
0.00016927
0.000177431
0.000181767
0.000180123
0.00018618
0.000157554
0.00017406
0.000163745
0.000147692
0.000161909
0.000176387
0.00016004
0.000163878
0.000172632
0.000171525
0.000191123
0.000181641
0.000205615
0.000203331
0.000197747
0.000196196
0.000182111
0.000184597
0.000173119
0.000171448
0.000174189
0.000181047
0.000174337
0.000171966
0.000249884
0.000271286
0.000226482
0.000199085
0.000223949
0.00024093
0.000235706
0.000261774
0.000297245
0.000246371
0.00042795
0.000255263
0.000226643
0.000240307
0.000166769
0.000101121
0.000129388
0.000233661
0.000314689
0.000203166
0.000219925
0.000352757
0.000313503
0.000143942
0.000182271
0.000396455
0.0004146
0.000321368
6.34867e-05
0.000307718
9.46207e-05
0.000295286
0.000267664
0.000198796
0.000198104
0.000272962
0.00011287
7.92068e-05
0.00012138
4.54636e-05
3.04238e-05
4.28075e-05
1.67307e-05
4.78921e-05
2.76601e-05
5.68623e-05
9.28148e-05
5.37794e-05
7.82889e-05
0.000106213
9.05608e-05
0.000129293
0.000101221
9.85725e-05
0.000165787
0.000124288
0.000103785
0.000142343
0.000110557
0.000132151
0.000125882
0.000140453
0.000137869
0.000114664
0.000141671
0.000154989
0.00018003
0.000162359
0.000178275
0.000181051
0.000157227
0.000149508
0.000145068
0.000131873
0.000148206
0.000147175
0.000135168
0.000125776
0.000141145
0.00014096
0.000142678
0.000145679
0.000146707
0.000161454
0.000156188
0.000167371
0.000160209
0.000172232
0.000175699
0.000172438
0.00017613
0.000174694
0.00017503
0.000175078
0.000173694
0.000169597
0.000173726
0.000172612
0.000173252
0.000173503
0.000167164
0.000168259
0.000173396
0.000222142
0.000291708
0.000325898
0.000150104
0.000456748
0.00030466
0.000188978
0.000360002
0.000144457
9.888e-05
0.000529731
0.000264083
0.000371095
0.000325833
0.000164016
0.000396916
0.000214974
0.000185093
0.000273802
9.85561e-05
0.000169462
0.000203481
0.0001176
0.000132277
0.000181509
0.00910923
0.000819717
0.00202808
0.000592825
0.000878528
0.000822053
0
0
0
0
0
0
0.112969
0
0.00565309
0
0
0.0193209
0
0
0
0
0
0
0
0
6.55042e-05
0
0
0
0
0
0
0
0
0
0
0
0
0
0
0
0
0
0
0
0
0
0
0
0
0
0
0
0
0
0
0
0
0
0.000108769
0.000134595
0.000165929
0.000191396
0.000167516
0.000150533
0.000133976
0.000195637
0.000171314
0.00010169
0.000178743
0.0001375
0.000225441
0.000124528
6.84791e-05
0.000145617
9.37009e-05
0.000153973
6.43116e-05
0.000133421
0.000163188
0.000152094
0.00230977
0
0.000138685
0
0
0
0
0
0
0
0
0
0
0
0
0
0
0
0
0.00812252
0.00200333
0.000546552
0.000719866
0.000178275
0.000139894
0.000429654
0.000257028
0.000432914
0.000352825
0.000341929
0.000252563
0.000268451
0.000208476
9.95867e-05
0.00015704
0.000140968
0.000201382
8.95192e-05
6.25521e-05
0.000149378
1.03243e-05
7.10202e-05
7.69232e-05
0.000137984
0
0
0
0
0
0
0
0
0
0
0
0
0
0
0
0
0
0
0
0
0
0
0.500614
0
0
0
0
0
0
0
0
0.000129598
0.000147466
0.000180481
0.000139941
0.000140122
0.00017959
0.000187435
0.000157147
0.000124478
0.000113305
0.000133026
0.000236954
0.000172796
0.000191231
0.000283231
0.00016329
0.000204854
0.000191255
0.000209785
0.000223827
0.000206262
0.000264299
0.000285741
0.000156493
0.000185263
0.000237095
0.000181928
0.000283762
0.000216284
0.000247822
0.000242034
0.000171301
0.000155306
0.000207806
0.00018318
0.000118788
0.00016772
0.000128554
0.000148555
0.000156394
0.000154328
0.00013597
0.000143235
0.00014421
0.000142704
0.000160759
0.000145067
0.000144618
0.000141602
0.00016536
0.000160222
0.000167267
0.000170025
0.000168078
0.00015965
0.000165228
0.000170626
0.000163646
0.000159851
0.000145802
0.000171008
0.000144967
0.000166414
0.000152436
0.000166118
0.000167712
0.000167753
0.000164375
0.000158519
0.000163412
0.000167571
0.000176446
0.000160429
0.000178643
0.000194749
0.000174242
0.000165442
0.000169101
0.000166396
0.000148433
0.000170702
0.000150199
0.000181107
0.000168992
0.000190247
0.000181354
0.000201941
0.000205894
0.000205505
0.000205073
0.000184304
0.000183999
0.000169492
0.000172752
0.000170256
0.000168676
0.00017027
0.000172249
0.000235047
0.000262344
0.000196312
0.000279483
0.000233501
0.0002005
0.000210451
0.000275862
0.000303015
0.000342587
0.000368094
0.000170099
0.000172957
0.000167315
0.000170476
0.000172537
0.000173579
0.000169716
0.0001682
0.000166361
0.000157625
0.000164773
0.000149653
0.000160429
0.000157059
0.000159199
0.000151479
0.00015348
0.000152177
0.000422605
0.00023289
0.000474879
0.000339223
6.61957e-05
0.000141273
0.000341947
0.00017535
0.000185532
0.000360509
0.000152894
0.000280746
0.000271389
0.00033539
0.000496361
0.000348402
0.000372025
0.000304481
9.19689e-05
0.000407162
0.000164179
0.000336112
0.000199425
0.00031006
7.54205e-05
9.43425e-05
0.000162028
0.000125857
0.00011328
4.83971e-05
8.25941e-05
8.30313e-05
8.07504e-05
8.11116e-05
9.05968e-05
5.8138e-05
8.79767e-05
3.26898e-05
0.000122083
7.2869e-05
8.52418e-05
0.000115075
6.65658e-05
7.45273e-05
0.000127675
9.5519e-05
8.86416e-05
0.000108314
0.000108111
0.000121741
0.000135813
0.000162665
0.000148971
0.00013069
0.000173701
0.00014127
0.000172266
0.000196222
0.000178606
0.00016363
0.000151025
0.000137683
0.000144177
0.000145863
0.000135244
0.000118305
0.00012851
0.00013216
0.000130698
0.000136644
0.000145832
0.000129315
0.000140824
0.000155386
0.000156586
0.000146046
0.000165667
0.000155869
0.000170464
0.00017078
0.00017101
0.000176206
0.000169947
0.000173679
0.000173014
0.000227763
0.000275196
0.00024874
0.000589592
0.000274202
0.000320549
0.000515375
0.000413261
5.06051e-05
0.000388213
0.000589078
0.000564057
0.000346164
0.000457844
0.000433406
0.000166911
0.000268083
0.000418637
0.000483145
0.000214995
0.000471411
0.000429762
0.000172651
0.00092455
0.000117504
0.0023575
0.000884652
0.00190463
0.00733711
0.0174694
0.000955921
0.00126875
0.00101375
0.000467563
0
0
0
0
0
0
0
0
0.0198179
0
0
0
0
0
0
0
0
0.203742
0
0
0
0
0
0
0
0
0
0
0
0
0.00124428
0
0
0
0
0.0133584
0
0
0
0
0
0
0
0
0
0
0
0
0
0
0
0
0
0
0
0.001938
0
0
0
0
0.00211432
0.000153494
0.000171364
0.000153693
0.000127464
0.000154557
0.000167417
5.89287e-05
0.000135345
0.000118747
0.000130216
6.36768e-05
0.000147118
0.000170904
0.000137498
0.000165156
0.000241754
0.00019196
8.31207e-05
0.000232887
0.000127934
0.000114458
0.000153109
0.000161938
0.000153909
0.000172299
0
0
0
0
0
0
0
0
0
0
0
0
0
0.00030794
0.000268149
0.000387489
0
0
0.0834747
0.0653644
0.00164567
0.00409339
7.57726e-05
0.00041488
0.000286222
0.00010851
0.000126419
0.00029156
0.000187803
0.000218597
0.000158957
0.000287014
7.44091e-05
0.000101891
0.000150483
0.000167374
0.000272324
0.000127469
9.99466e-05
0.000183783
0.000112245
0.000199838
0.000222692
0
0.000960759
0
0
0
0
0
0
0
0
0
0
0
0
0
0
0
0
0
0
0
0
0
0
0
0
0
0
0
0
0
0
0
0
0
0
0
0.000158544
0.000183294
0.000119335
0.00015009
0.000102454
0.000151919
0.000128159
0.000189002
0.000150953
0.000186533
0.000239995
6.30368e-05
0.000163523
0.000227682
0.00017004
0.000130993
0.000192355
0.000183198
0.000247688
0.000204041
0.000228301
0.000231824
0.00021337
0.000245437
0.000296105
0.000207632
0.000247963
0.00024282
0.00021995
0.000229009
0.000195771
0.000351441
0.000258692
0.000216508
0.00034614
0.000235473
0.000378813
0.000154712
0.000141147
0.000168067
0.000145374
0.000162255
0.000126997
0.000119032
0.000128925
0.000159796
0.000149271
0.000153442
0.000155927
0.000155172
0.000144184
0.000136673
0.000152305
0.000165448
0.000168801
0.000163429
0.000160437
0.000156587
0.000157701
0.000179702
0.000186335
0.000174565
0.000154894
0.000189168
0.000197669
0.000172026
0.000182534
0.000177323
0.000196898
0.000174869
0.000180532
0.000180286
0.00018693
0.000203643
0.000210302
0.000198289
0.000206476
0.000205302
0.000206837
0.000208991
0.000186041
0.000187011
0.000168317
0.000164611
0.000169681
0.000164945
0.000170028
0.000171541
0.00017245
0.000172548
0.000277011
0.000254328
0.000255146
0.000216986
0.000293995
0.000258693
0.000215849
0.000208741
0.000309634
0.000312474
0.000326226
0.000305597
0.000175153
0.000176069
0.000179214
0.000173872
0.000175623
0.000179132
0.000175331
0.000177035
0.000171323
0.000169635
0.00016059
0.000168397
0.000163502
0.000165201
0.000164454
0.000163047
0.00017336
0.000159737
0.000174643
0.000181356
0.000181708
0.000178972
0.000139842
0.000188638
0.000179283
0.000577262
0.000629077
0.000246055
0.00012761
0.000437694
7.66029e-05
0.000579565
0.000129475
0.000132172
0.000520099
0.000438866
0.000275009
0.000537173
0.000451652
0.000465025
0.00054608
0.000193306
0.000348536
0.000305092
0.000499541
0.000327719
0.000410961
0.00014716
0.000143749
0.000166128
7.50238e-05
2.8777e-05
7.1511e-05
0.0001419
1.07384e-05
0.000131581
0.000125859
0.000128779
0.000119641
0.000101168
7.00285e-05
2.67649e-05
7.50554e-05
9.20707e-05
0.000201292
9.26008e-05
7.5976e-05
3.35887e-05
0.000200383
9.91574e-05
0.000114215
8.6049e-05
9.51914e-05
0.000126183
0.000138924
0.000134618
0.000153045
0.000145035
0.000143306
0.000146758
0.00017224
0.000152379
0.000155263
0.000149363
0.000108841
0.000136027
0.000122985
0.000115337
0.000115797
0.000116312
0.000124393
0.000117442
0.000115873
0.000126812
0.000142125
0.000122904
0.000131907
0.000144428
0.000136776
0.000150134
0.000150829
0.000161023
0.000163767
0.000162076
0.000171488
0.000171876
0.000176895
0.00185477
0.00102282
0.000952395
0.000752478
0.000595762
0.000664303
0.000464236
0.000884324
0.000705859
0.000347193
0.000751189
0.000870638
0.000670368
0.000734909
0.000661618
0.000938805
0.000604818
0.00398577
0.0177949
0.000956305
0.000903083
0.000922031
0.00247535
0.00216439
0.00350664
0.0134065
0.0197234
0.0116036
0.0102124
0.00940411
0.0416797
0.0108516
0.0158023
0.00443132
0.0100477
0.0197635
0
0
0
0
0
0
0.290424
0
0
0.214772
0
0
0
0
0
0.11035
0
0
0
0
0.00306181
0
0
0
0
0
0
0
0.000741593
0.00350911
0
0
0.0104513
0.00746004
0
0
0
0
0.00497578
0
0.00641759
0
0
0
0
0
0
0
0
0
0
0
0
0
0
0
0
0
0.00332285
0
0
0
0
0
0
0
0
0.000205248
0.000230173
0.000135752
0.0001783
0.000169459
8.21192e-05
0.000123483
0.00021628
0.000139604
0.000221343
8.7395e-06
0.000170632
0.000205234
0.000155321
0.000157578
0.000133648
0.00012716
0.000204383
0.000275903
0.000100309
0.000267367
0.000194639
0.000147221
0.000177225
0.00018371
0.000204671
0.000198015
0
0
0
0
0
0
0
0.000289495
0.000320261
0.000328474
0
0
0
0
0.000285572
0.000285819
0.00765711
0.0154574
0.00496279
0.00140827
0.000579497
0.000390335
0.000265228
0.000118997
0.000219622
0.000167535
6.9314e-05
0.000230816
0.000275934
0.000219933
0.000257486
0.000149907
0.000156336
0.00018401
0.000197196
0.000231698
9.98594e-05
2.93917e-05
0.00021174
0.000288035
0.000131231
0
0
0.000909519
0
0
0
0
0.00276943
0
0
0
0
0
0
0
0
0
0
0
0
0
0
0
0
0
0
0
0
0
0
0
0
0
0
0
0
0
0
0
0
0
0
0
0
0
0.000197692
0.000160533
0.000222665
0.000217549
0.000122037
0.000195594
7.37803e-05
0.000102729
0.000190476
0.00021809
0.0001235
0.000159737
0.000163031
7.37369e-05
0.000267829
0.000127828
0.000161807
0.00012017
0.000128292
0.000224867
0.000209703
0.000248616
0.000249427
0.000245907
0.000237925
0.000274914
0.000277275
0.000250265
0.000364899
0.000265122
0.000222134
0.000159462
0.000218095
0.000227058
0.000299091
0.000322656
0.000305378
0.000441406
0.000351068
0.000139046
0.000147036
0.000132777
0.000124938
0.000186069
0.000182152
0.000317297
0.000224069
0.000102817
0.000109497
8.5958e-05
6.03111e-05
0.000180928
0.000120879
0.000148741
0.000154661
0.000150433
0.000150087
0.000150599
0.000144676
0.000150859
0.000162353
0.000160602
0.000163436
0.000157291
0.00015974
0.00015264
0.000151486
0.000196456
0.000185061
0.000175714
0.000169193
0.00020154
0.000194052
0.000169408
0.000186475
0.000194513
0.000210547
0.000200077
0.000187735
0.000221872
0.000206001
0.000231495
0.000233249
0.000212055
0.00021538
0.000191926
0.000195112
0.000169293
0.000168345
0.000164373
0.000169354
0.000174263
0.000171295
0.000162981
0.000162124
0.000164535
0.000166292
0.000294873
0.000279925
0.000265542
0.000228006
0.000270026
0.000289756
0.000219316
0.000232946
0.000280704
0.000309686
0.000290743
0.000348362
0.000172805
0.000173012
0.0001744
0.000174838
0.000173368
0.000179121
0.000173688
0.000176091
0.000181122
0.000175533
0.000177287
0.000171964
0.000180648
0.000161233
0.000171129
0.000172221
0.000168208
0.000174086
0.000172799
0.000168346
0.000180538
0.000179094
0.000178108
0.000170952
0.000185544
0.00119168
0.000846568
0.000350495
0.000785081
0.000166764
0.000142585
0.000209505
0.00109111
0.000948354
0.000405345
0.000892402
0.000537378
0.000616594
0.00117489
0.000989151
0.000881171
0.000482785
0.000583752
0.000210355
0.000263856
0.000171759
0.000211134
0.000125991
0.000172152
0.000116291
6.11975e-05
0.000139188
0.000108507
5.62901e-05
0.00018922
0.000163382
0.000173016
0.000133165
0.000158293
9.6539e-05
6.33738e-05
4.58416e-05
0.000118055
0.000224198
0.000170369
6.84661e-05
0.000103385
4.78682e-05
6.41256e-05
0.000115298
0.000114429
9.77942e-05
7.6482e-05
0.000138755
0.000131984
0.000136199
0.000141572
0.000129489
0.000119225
0.000123257
0.000139399
0.00011795
0.000118172
0.000116065
0.000111815
0.000108779
0.000101589
0.000105252
0.000113955
0.000108162
0.000114098
0.000109476
0.000122501
0.000131393
0.000118516
0.000123872
0.000133141
0.000133744
0.000140006
0.000144266
0.000146985
0.000154777
0.000154674
0.000172073
0.0177983
0.00411494
0.00756416
0.0217693
0.00354862
0.0019442
0.000487507
0.000366507
0.00121646
0.000912671
0.000852748
0.00114375
0.00101257
0.00120259
0.000977733
0.00117674
0.00142054
0.000622996
0.0014832
0.01112
0.0119834
0
0.0110808
0.0214346
0.13255
0.0442565
0.0285116
0.0601155
0.00593734
0
0
0
0
0
0
0.230639
0
0
0
0
0
0
0.363651
0
0
0
0
0
0
0
0
0
0
0
0
0
0
0
0
0
0
0
0
0
0
0
0
0
0
0
0
0
0
0
0
0
0
0
0
0
0
0
0
0
0
0
0
0
0
0
0
0
0
0
0
0
0
0
0
0
0
0
0
0
0
0
0
0
0
0
0
0
6.24761e-05
0
0
0
0
0.000149577
0.000159559
0.000177381
0.000206598
0.000286234
0.000193659
0.000167924
0.000174157
0.000153028
0.000112036
0.000152789
0.000156263
0.0001481
0.000151077
0.000274453
0.000285658
0.000124559
0.000270981
0.000112876
0.000229065
0.000301892
7.19651e-05
0.000100348
0.00025098
0.000294137
0.000223734
0.000187058
0.000237778
0.000176963
0
0
0
0
0.000250352
0.000177211
0.000366479
0
0
0.00036778
0.000219032
0
0.0301583
0
0
0.000325958
0.000451096
0.00297646
0.00258054
0.00169472
0.00738575
0.000193962
0.00104216
0.000529964
0.000331798
0.000217251
0.000181885
0.000130986
9.45431e-05
0.000257094
0.000125232
0.000210092
7.25192e-05
0.000284345
0.000130734
0.000292504
0.000115295
0.000273295
7.75808e-05
0.000167026
0
0
0
0
0
0
0
0
0
0
0
0.215656
7.46559
0
0
0.0279429
0.0204727
0.0310692
0
0
0.10595
0
0
0
0
0
0
0
0
0
0
0
0
0
0
0
0.0154697
0
0.0275876
0
0
0
0
0
0
0
0
0
0.0308326
0.789489
0.0623371
0
0
0
0
0
0
0.000268713
0.000279154
0.000186408
0.000198924
0.000256344
0.000152074
0.000274834
0.000294002
6.24777e-05
0.000280247
9.46686e-05
0.00026096
0.000142118
0.00023374
0.000269008
0.000271938
0.000114111
0.000274364
0.000243004
0.00013759
0.000213982
0.000333985
0.000319409
0.000308484
0.00023953
0.000210315
0.000318979
0.000267913
0.000249784
0.000373068
0.000558353
0.000334882
0.000327878
0.000220744
8.57093e-05
0.00012327
0.000323877
0.000494494
0.000321551
0.000695675
0.000508655
0.000137637
0.000175278
0.000224262
0.000180517
0.000239513
0.000218814
0.000245921
0.00034603
7.12236e-05
0.000191411
0.000222872
0.000214583
0.000182945
0.00014653
0.000147394
0.00014521
0.000146345
0.000147753
0.00015177
0.000132759
0.000155963
0.000158298
0.000156159
0.000149516
0.000151979
0.000145811
0.00014307
0.000192486
0.000177428
0.000177093
0.000177834
0.000185565
0.000201751
0.000178235
0.000174936
0.000213068
0.000237228
0.000195164
0.000216549
0.000235528
0.000222138
0.000254851
0.000253644
0.000209024
0.000205531
0.000183192
0.000185279
0.000176528
0.000173311
0.000176483
0.000176845
0.000170705
0.000169258
0.000162162
0.000164455
0.000176894
0.000168824
0.000282097
0.000296419
0.000238042
0.000238964
0.000256612
0.000236938
0.000219208
0.000213694
0.000339467
0.000296148
0.000317018
0.000340157
0.000357474
0.000250107
0.000310665
0.000153999
0.000160943
0.00016533
0.000163688
0.000169883
0.000172943
0.000161113
0.000167849
0.000171956
0.000175153
0.000171017
0.000180608
0.000175931
0.000176546
0.000173505
0.000166585
0.000165426
0.000172974
0.000168056
0.000175279
0.000172966
0.000175628
0.000171642
0.000172061
0.000174606
0.00018608
0.00191097
0.00168705
0.00106355
0.00126414
0.000403599
0.000139291
0.00139586
0.000600695
0.00134389
0.000819249
0.00123096
0.00179764
0.00161377
0.00118544
0.000882601
0.00157576
0.000662227
0.000613333
0.000251374
0.000724838
0.000545884
0.000164573
0.00012623
0.000209852
0.000124899
2.22643e-05
0.000116167
0.000125157
0.000163598
0.000179723
0.00023346
0.000158789
0.000129698
0.000119757
6.70947e-05
0.000107736
0.000128728
1.53117e-05
7.88983e-05
0.000104062
3.21963e-05
0.000102454
7.60693e-05
7.89098e-05
0.000108227
0.000108849
9.45457e-05
8.0398e-05
0.000113906
9.96547e-05
0.000116398
0.000129733
9.67432e-05
0.000104829
0.000105406
0.000117748
0.000109562
0.000110639
0.000112111
9.88522e-05
9.7192e-05
0.00010062
9.84414e-05
0.000107567
0.000109407
9.92187e-05
0.000121327
0.000106474
0.000114961
0.000126215
0.00012196
0.000129948
0.000131303
0.00013649
0.000145478
0.00014045
0.000149521
0.000152937
0.0299118
0.12023
0.00747301
0.0447084
0.019383
0.0259395
0.056678
0.00505046
0.100955
0.00214895
0.00158063
0.0220071
0.00425651
0.00143463
0.0013939
0.00118604
0.00152889
0.0010109
0.000758557
0.00170746
0.000959483
0
0
0
0
0
0.14056
0
0
0
0
0
0
0
0
0.548838
0
0
0
0.00940468
0
0
0
0
0
0
0
0
0
0
0
0
0
0
0
0
0
0
0.00657254
0
0
0
0
0
0.00171462
0.00249429
0.00382438
0
0
0
0
0
0
0
0
0
0
0
0
0
0
0
0
0
0
0
0
0
0
0
0
0
0
0
0
0
0
0
0
0
0
0
0
0
0
0
0
0
0.0051884
0
0.00287595
0
0.0101093
0
0
0
0.000199383
0.00019918
0.000176865
0.000156819
0.000159135
0.000133585
0.000133075
0.000112988
0.000134165
0.000280354
0.000137219
0.000156801
0.000167265
0.000136975
6.63434e-05
8.90811e-05
8.88311e-05
0.000108736
0.000134407
7.63554e-05
0.00013048
0.000234233
0.000144855
0.000222092
3.96792e-05
0.000233172
0.000306463
0.000234365