/*--------------------------------*- C++ -*----------------------------------*\
  =========                 |
  \\      /  F ield         | OpenFOAM: The Open Source CFD Toolbox
   \\    /   O peration     | Website:  https://openfoam.org
    \\  /    A nd           | Version:  8
     \\/     M anipulation  |
\*---------------------------------------------------------------------------*/
FoamFile
{
    version     2.0;
    format      ascii;
    class       volScalarField;
    location    "12960";
    object      H;
}
// * * * * * * * * * * * * * * * * * * * * * * * * * * * * * * * * * * * * * //

dimensions      [0 1 0 0 0 0 0];

internalField   nonuniform List<scalar> 
526318
(
0.71699
0.670847
0.745869
0.659571
0.728512
0.685392
0.699678
0.615036
0.680542
0.549755
0.539341
0.6546
0.602137
0.645611
0.601219
0.630342
0.602615
0.800897
0.705929
0.754194
0.744975
0.703332
0.458275
0.702209
0.592426
0.45946
0.726393
0.726662
0.732046
0.74581
0.769436
0.814808
0.801692
0.677912
0.680294
0.649897
0.655487
0.749146
0.670938
0.622025
0.676344
0.654304
0.30864
0.373548
0.276477
0.324424
0.293363
0.418251
0.600272
0.496427
0.582683
0.592838
0.538187
0.503186
0.00123055
0.240064
0.238745
0.0406421
0.75494
0.771567
0.786329
0.742503
0.68822
0.815347
0.810904
0.770326
0.753652
0.758582
0.658265
0.647921
0.767589
0.54662
0.600902
0.488737
0.445791
0.437984
0.537845
0.528927
0.448846
0.484929
0.566275
0.567113
0.522323
0.476314
0.505316
0.575076
0.57292
0.549711
0.499517
0.573196
0.476237
0.427366
0.422037
0.352133
0.350815
0.353466
0.352548
0.348185
0.346805
0.345321
7.97638e-05
2.15653e-06
0.00030864
5.10002e-12
0.000925578
0.000148343
0.259938
0.0628709
0.381508
0.34766
0.387252
0.50241
0.722843
0.619998
0.735622
0.736992
0.805633
0.782164
0.826438
0.34308
0.342387
0.344529
0.349249
0.303063
0.343276
0.256145
0.297645
0.209254
0.256368
0.207141
0.207556
0.195811
0.169965
0.161166
0.191313
0.129553
0.185764
0.137288
0.15604
0.0986536
0.10843
0.129214
0.155409
0.142756
0.102422
0.0990966
0.115369
0.103126
0.0993483
0.105914
0.118578
0.104931
0.108166
0.111524
0.108552
0.0745418
0.113024
0.107279
0.0742889
0.0324954
0.114023
0.0612749
0.116156
0.614784
0.702332
0.650095
0.636045
0.437277
0.507082
0.435169
0.437535
0.437637
0.437036
0.459398
0.43819
0.372887
0.345272
0.310125
0.249747
0.309306
0.353559
0.351496
0.352851
0.240767
0.290636
0.175211
0.187842
0.19575
0.186781
0.189132
0.192175
0.179656
0.183932
0.181223
0.166553
0.149336
0.176297
0.167922
0.138797
0.11553
0.147957
0.126828
0.117381
0.141852
0.13026
0.132334
0.0959238
0.111291
0.144134
0.143317
0.594496
0.604641
0.641988
0.605985
0.597735
0.59805
0.592959
0.470645
0.516482
0.260807
0.237243
0.23385
0.359736
0.493228
0.367186
0.407073
0.404525
0.351761
0.338109
0.000846537
1.19805e-16
1.25349e-13
0.179617
0.00027704
9.76159e-09
0.000995694
0.000255125
0.000396609
0.000963311
0.80881
0.787717
0.836498
0.829988
0.799413
0.787168
0.69779
0.785697
0.630137
0.570162
0.573458
0.571213
0.575537
0.570459
0.56062
0.5606
0.47632
0.542612
0.356051
0.415282
0.342956
0.357272
0.00100536
4.55059e-11
0.000154997
0.00100202
0.000103589
0.000987509
1.21972e-11
0.00102119
0.356382
0.162802
0.409068
0.403298
0.51087
0.614723
0.740834
0.733794
0.775675
0.758109
0.823035
0.855489
0.322331
0.32336
0.285057
0.255593
0.155736
0.191369
0.116419
0.122835
0.117017
0.111725
0.0994035
0.104483
0.0301225
0.0549242
0.0867179
0.131261
0.180405
0.149119
0.10877
0.112462
0.0424354
0.0336386
0.0845381
0.135149
0.0589793
0.0992083
0.0979504
0.0699135
0.0639316
0.032066
0.0263324
0.0010229
0.000922287
0.000925111
0.000461563
0.107407
0.145592
0.107349
0.148419
0.505591
0.468094
0.367078
0.457644
0.3767
0.428442
0.437304
0.429018
0.435139
0.438933
0.349959
0.263268
0.193665
0.172269
0.252176
0.191415
0.176453
0.291212
0.181317
0.230965
0.167641
0.168974
0.178466
0.167382
0.181504
0.181082
0.179298
0.179901
0.17862
0.178668
0.187352
0.180165
0.195903
0.19143
0.190671
0.175473
0.182671
0.173498
0.145419
0.14258
0.173895
0.198795
0.193316
0.171888
0.151844
0.174572
0.218636
0.216879
0.225489
0.188513
0.221921
0.240484
0.271855
0.230862
0.232655
0.262328
0.292145
0.413827
0.491909
0.410606
0.450307
0.519888
0.580385
0.498747
0.360115
0.476546
0.374369
0.392439
0.129174
0.0759639
0.103234
0.083469
0.212377
0.327458
0.25535
0.328474
0.328289
0.350752
0.330816
2.95166e-09
0.000699573
0.000174233
5.27295e-06
0.000870405
0.000431376
0.000599399
0.00100998
0.000476803
0.00100962
0.000664765
0.00100889
0.000730728
0.000955715
0.000582482
0.000952703
0.831491
0.821575
0.85703
0.847849
0.827414
0.796319
0.727106
0.638729
0.574465
0.584483
0.563138
0.561399
0.542098
0.541575
0.521294
0.520777
0.471851
0.513052
0.436815
0.378963
0.324857
0.282955
0.000935758
0.00107419
0.0010742
0.000663073
0.000612285
0.000731205
0.000593346
0.00107421
0.00107417
0.00107417
0.00100999
0.00100984
0.000550093
0.00100942
0.000924102
0.000172183
0.000288255
0.000487392
0.000977135
0.00096135
7.31626e-08
0.000978536
0.000793614
1.85613e-05
0.0613384
5.55327e-24
0.267475
0.430688
0.435853
0.537979
0.748493
0.644418
0.767648
0.759023
0.782327
0.809746
0.841655
0.860969
0.241016
0.241885
0.194973
0.223919
0.162743
0.124837
0.114538
0.117214
0.111874
0.118793
0.0676734
0.0603346
0.00964458
0.0228276
0.0776831
0.0522347
0.0238312
0.0697205
0.0616259
0.0893678
0.000960687
0.000877153
0.0069238
0.0174897
0.0180841
0.000884153
0.000861626
0.000873819
0.000890713
0.000387281
0.000872478
0.260629
0.236851
0.234584
0.236211
0.257216
0.367493
0.32284
0.305472
0.182627
0.231631
0.208321
0.219944
0.116736
0.0557692
0.229794
0.349395
0.232758
0.241628
0.216811
0.301304
0.279675
0.352433
0.383273
0.313538
0.289251
0.32843
0.203503
0.175865
0.173868
0.177756
0.0926991
0.143736
0.0707457
3.08024e-05
0.00354725
0.121664
0.119902
0.169762
0.171083
0.168606
0.170922
0.168036
0.177761
0.170085
0.185203
0.17577
0.19012
0.184091
0.195665
0.194492
0.219749
0.207847
0.235826
0.232955
0.182432
0.163729
0.226918
0.215667
0.202351
0.218677
0.199718
0.18801
0.234363
0.216728
0.319883
0.329281
0.282773
0.321711
0.333424
0.304809
0.396235
0.364865
0.431724
0.453556
0.476032
0.387639
0.392193
0.392923
0.350227
0.333864
0.300413
0.387588
0.246982
0.219569
0.274196
0.295398
0.000625895
0.0225076
0.098499
0.226726
0.249959
0.295623
0.196828
0.157572
0.125097
0.0651133
0.000965631
0.000310861
1.42674e-06
1.84795e-07
0.000778321
0.000994324
0.000993891
0.000234006
0.00100979
0.000545241
0.00024476
0.000470015
0.000926911
0.000208943
0.000889372
0.000986846
0.000766556
0.000551352
0.000138864
0.000388285
0.00097475
0.00101
0.000135786
0.000999779
0.000909458
0.000354496
0.00117946
0.000898374
0.00107521
0.000976861
0.00117922
0.00117937
0.000907283
0.000999494
0.0009727
0.000201819
9.59135e-05
0.000989075
0.000892979
0.0009482
0.00100959
0.000881287
0.00100965
0.000996543
2.65749e-05
0.000931251
0.827358
0.83664
0.857306
0.848505
0.828764
0.752729
0.575027
0.661229
0.542376
0.542374
0.519512
0.525637
0.516129
0.512436
0.509827
0.505573
0.450526
0.424292
0.325355
0.363657
0.221195
0.262964
0.000980103
0.000624444
0.000948563
0.000967574
0.000969466
0.000982262
0.000975604
0.000870723
0.00101
0.000776564
0.000677989
0.000965569
0.000971308
0.000759356
0.000380116
0.000991326
0.000690401
0.00100737
0.000803925
0.000839513
0.000369052
0.000975289
0.000889611
0.000439439
0.000917861
0.00068906
0.00101
0.000641909
7.55517e-06
6.82991e-05
0.000555011
0.000719123
0.000351797
0.00069455
0.240703
0.0746344
0.457933
0.408487
0.471922
0.583677
0.686381
0.76346
0.775392
0.768822
0.810283
0.840557
0.826294
0.821356
0.00116261
0.000880505
0.000886173
0.000257926
0.000695702
0.000922867
0.00081396
0.000937231
0.000890554
0.000725685
0.000975785
0.00092383
0.000794854
2.99799e-07
0.000880516
0.00101
0.000170373
0.222033
0.223265
0.221949
0.186858
0.107365
0.143791
0.066582
0.0614358
0.0252106
0.0197382
0.000755392
0.000591589
0.000180758
0.00132317
0.000342125
0.000912501
0.000890452
0.0398001
0.022935
0.0232285
0.000712611
0.000921773
0.000703425
0.000536888
0.000770454
0.000815026
0.000964289
0.000555971
0.000325844
0.000996791
0.000920408
0.000390313
0.459875
0.430593
0.470182
0.481692
0.433043
0.381655
0.551622
0.571038
0.638883
0.649164
0.189342
0.229416
0.290023
0.368048
0.19327
0.136687
0.181525
0.173705
0.0131703
0.0673993
0.113461
0.000118116
0.219443
0.217667
0.217445
0.218128
0.239147
0.216913
0.232994
0.244256
0.127178
0.119646
0.0216449
0.108275
0.104471
0.0546642
0.0162067
0.0222721
2.69637e-84
0.000529526
0.000918484
0.0544223
0.118273
0.0497058
0.117403
0.170554
0.171123
0.167418
0.169513
0.171526
0.194556
0.186771
0.206086
0.202767
0.218065
0.214201
0.239787
0.236365
0.235939
0.232921
0.242115
0.235195
0.278664
0.247661
0.217025
0.21485
0.284072
0.250657
0.263378
0.304133
0.344144
0.344122
0.344683
0.341026
0.371732
0.423482
0.484866
0.50986
0.510554
0.493965
0.636547
0.567323
0.695822
0.735996
0.730701
0.767662
0.820917
0.689291
0.7748
0.796072
0.879925
0.928272
0.948061
0.972723
1.00347
0.942016
0.999619
0.956818
1.03897
1.03912
1.08691
1.05528
1.11711
1.14552
1.13705
1.08423
1.14776
1.17214
1.13913
1.13563
1.1978
1.1786
1.21021
1.14989
1.14993
1.21216
1.18154
1.13508
1.13462
1.16631
1.19814
0.193506
0.155596
0.326055
0.320454
0.291513
0.285602
0.284519
0.0524577
0.192313
7.47992e-05
0.000398834
0.0181579
0.00669124
9.59836e-05
0.00085293
0.000166213
0.120933
0.0271529
0.0290702
0.000497894
0.000973006
0.000421579
0.000951944
0.000348275
0.00101
5.27544e-07
5.8384e-05
9.70941e-06
5.35186e-05
0.00101
0.000966006
0.000995857
0.000569849
1.31636e-05
0.00165965
0.000842141
0.000928041
0.000844807
0.000691483
0.00037197
0.00069126
0.000943677
0.000831092
0.00132765
0.000408029
0.00012748
0.000146108
0.000949
0.000431299
6.93167e-06
1.61879e-05
0.000990101
0.00093513
0.00100829
0.000781642
0.000911134
0.000410555
0.00100928
0.00100997
0.000810376
0.000943386
0.00075839
0.000978582
0.000974989
0.000926586
0.00101
0.00057983
0.000950938
0.00102634
0.00105852
0.000956029
0.00102647
0.000929966
0.00101
0.00101
0.000467339
0.000585417
0.000993933
0.000773625
0.000877713
0.00099375
0.000922247
0.000776475
0.0010078
0.000994205
0.000136415
0.000956593
0.000950381
0.000921886
0.000915695
0.000919934
0.000616023
0.00101
0.000623175
0.000968314
0.817151
0.806926
0.778539
0.775805
0.693943
0.766692
0.587333
0.527314
0.510603
0.517508
0.515902
0.510555
0.455467
0.455398
0.299232
0.264434
0.220747
0.395997
0.393524
0.346118
0.341438
0.344489
0.000860164
0.000412084
0.00108432
0.00108208
0.000962471
0.000414864
0.00093308
0.000410365
0.00108353
0.000942373
0.000161511
0.00100893
0.000972717
0.000941946
0.000297472
0.000985833
0.000726155
0.00091818
0.00021426
0.00071546
0.000429082
0.000951565
0.00137665
0.00137679
3.81621e-05
5.88089e-06
0.000169957
0.000987693
0.0709361
6.23917e-18
0.241477
0.406501
0.439681
0.474654
0.546723
0.665991
0.730389
0.707736
0.750743
0.686421
0.732736
0.779608
0.727508
0.730331
0.00107373
0.000989567
0.00100999
0.000849207
0.000914329
0.00119429
0.000759187
0.000800981
0.00119429
0.000964874
0.000981161
0.000996251
2.39388e-05
1.14836e-05
0.000987846
0.000373012
6.41821e-13
0.00072123
0.00101
0.000253336
0.000277025
0.000765241
0.00096459
0.000879022
0.00204698
0.00101099
0.198075
0.198773
0.113857
0.130914
0.0121308
0.0351023
0.000999349
0.000570542
0.000561055
0.00127778
0.000275067
0.000751573
0.000686785
0.000630537
0.000187472
0.000310084
0.0117199
0.00094714
0.0114327
0.0125816
0.000581792
0.0002975
0.000457208
0.0008342
0.00030944
0.000950196
0.000717662
0.000602104
0.000980152
0.000764758
0.0012145
0.000700669
0.680828
0.680843
0.510827
0.424082
0.415774
0.397185
0.682446
0.588135
0.837033
0.917226
0.808909
0.737425
0.929478
0.908676
0.974948
1.02658
1.05679
1.05496
1.08372
1.05605
1.11167
1.13944
1.13141
1.13347
1.1494
1.13318
1.13448
1.18047
1.12522
1.11847
0.236554
0.17297
0.320715
0.384368
0.169735
0.124432
0.177158
0.178602
0.00202718
0.0575424
7.48454e-05
0.054273
0.000567046
0.218314
0.156486
0.21969
0.211304
0.213954
0.114963
0.0139989
0.000922582
0.000167322
1.75156e-06
0.000957499
9.38725e-323
4.95434e-29
1.81001e-06
0.000998818
0.000708381
0.000810978
3.63154e-05
0.00090283
0.0656772
0.010211
0.113841
0.0665766
0.105852
0.159076
0.200699
0.174013
0.208043
0.205499
0.218206
0.211139
0.246026
0.251977
0.245772
0.266224
0.273054
0.274062
0.306753
0.320643
0.312744
0.300106
0.31201
0.301199
0.314994
0.332644
0.381703
0.371569
0.340747
0.370484
0.364982
0.400914
0.429447
0.495851
0.523489
0.520329
0.530432
0.601203
0.68512
0.76032
0.776592
0.902573
0.772945
0.831383
0.980415
1.00141
1.00221
1.03799
1.08718
1.1342
1.1451
1.14762
1.17403
1.20622
1.22855
1.23237
1.23059
1.23064
1.22993
1.21312
1.15076
1.21458
1.18223
1.13721
1.13847
1.17004
1.20185
1.21299
1.13938
1.20054
1.15973
0.000404847
0.000872112
0.0418269
0.12054
0.0126674
0.0786315
0.21471
0.14419
0.177186
0.0141653
0.000812474
1.90491e-06
0.000712289
0.00369036
4.46907e-09
0.000207934
9.19393e-07
0.0005869
0.000975273
0.00122928
0.00122849
0.000284872
0.000460403
0.000269009
0.00100999
0.000871197
0.000795729
0.000978231
0.000444485
0.00145489
0.00145456
0.00086849
0.000172666
0.000451743
0.00165949
0.000981197
0.000711
0.000478021
0.000315336
0.000473407
0.00101
0.000874347
0.0013271
0.000928609
0.00101
0.00054676
0.000660221
0.000998234
0.000701989
0.000938544
0.000874495
0.00105207
0.00094525
0.000791252
0.000751098
0.000990039
7.57449e-05
0.00099613
0.000976554
0.000151024
0.000650036
0.000544652
0.000936558
0.000835023
0.00099709
0.000988437
0.0010367
0.000978339
0.000943996
0.000974885
0.00092222
0.000207016
0.000979907
0.000919067
0.00101
0.000732523
0.00100962
0.000641972
0.000367709
0.000916152
0.000960434
0.000963243
0.000892128
0.000596639
0.000479733
0.729508
0.726919
0.707613
0.713461
0.64334
0.706937
0.516311
0.578725
0.476724
0.4732
0.41626
0.402087
0.347118
0.345539
0.261605
0.151303
0.133334
0.301702
0.34552
0.347167
0.343192
0.344594
0.00108219
0.000993596
0.00108997
0.000578511
0.000973634
0.000973647
0.00094649
0.000972052
0.00100548
0.000830393
0.000135327
0.000443538
0.00093376
0.000997208
0.00060297
0.00100999
0.00098232
3.53596e-05
0.000985985
0.000873381
0.000276721
0.00045988
0.000655599
0.00101
0.000321117
3.32274e-05
0.00016739
0.000935205
0.134742
7.9169e-36
0.28058
0.413218
0.381847
0.505594
0.664677
0.563219
0.640627
0.64466
0.632007
0.663484
0.715568
0.715905
0.723762
0.685801
0.000769413
0.000922585
0.000565424
0.000958878
0.000712787
0.000933944
0.000627141
0.000452485
0.000819242
0.000879841
0.000957505
0.000856862
0.000968979
2.72634e-12
0.000922039
0.000873917
0.00096514
0.000987798
0.000743529
0.00100999
0.000468733
2.83925e-06
0.00191672
0.000901385
0.00101
0.000860782
0.000668131
0.000489708
0.000136748
1.14437e-10
0.00098545
0.0747473
0.0730899
0.0351034
0.0140445
0.00026874
0.000938332
0.000956993
0.000388913
0.119186
0.0563966
0.0337869
0.000187059
0.0009323
0.000408908
0.00100989
0.00126049
0.00126048
0.000244571
0.000583215
0.000438264
0.000807948
0.000196334
0.000801456
0.000830286
0.000590724
0.000349619
0.000323097
0.000587295
0.00100971
1.30661e-05
0.00052455
0.000737284
0.000689738
0.000594218
0.000809643
1.25597
1.26267
1.2955
1.27126
1.31535
1.30349
1.32412
1.31731
1.36896
1.35673
1.32119
1.37333
1.33887
1.38912
1.2273
1.1778
1.19971
1.24907
1.22925
1.19696
1.20199
1.25655
1.25745
1.2324
1.21276
1.26719
1.24858
1.25597
1.28416
1.13365
1.13631
1.13574
1.13401
1.15429
1.17521
0.729803
0.67205
0.568461
0.473602
0.38753
0.466741
0.664605
0.64473
0.886933
0.910681
0.797287
0.876381
0.915999
0.967093
1.01259
1.0573
1.05442
1.05689
1.0527
1.0837
1.09446
1.12042
1.10629
1.11053
1.10835
1.12042
1.09786
1.10302
0.289372
0.21942
0.165616
0.157481
0.21532
0.386519
0.369116
0.0927262
0.15374
0.0319945
0.000899134
1.24321
1.26481
1.28052
1.28869
1.29328
1.3051
1.30795
1.33596
1.31976
1.33923
1.3361
1.38613
1.40337
1.42661
1.42649
1.42857
1.4443
1.4673
0.000527202
0.000679096
0.00145719
0.140489
0.0326195
0.202015
0.10267
0.0233329
0.00132072
6.17595e-05
0.00132078
0.00132072
0.000150505
0.000195075
0.000879062
0.000634227
1.56935e-49
6.10001e-120
0.000954303
0.000793005
0.000395231
0.0113759
0.0124765
0.0117072
0.065541
0.025878
0.148849
0.0976006
0.188831
0.148884
0.180957
0.213294
0.236203
0.261345
0.278317
0.277144
0.286719
0.286617
0.338035
0.324192
0.314379
0.315513
0.365475
0.343258
0.41443
0.374598
0.350197
0.397784
0.442789
0.432209
0.453503
0.490514
0.490491
0.436895
0.54598
0.574551
0.546145
0.53281
0.618857
0.698671
0.778399
0.844672
0.788925
0.809962
0.938815
0.997898
1.03909
1.01957
1.08396
1.11335
1.15381
1.1697
1.16189
1.18474
1.2424
1.22028
1.23326
1.24189
1.23492
1.23041
1.23213
1.23262
1.23269
1.23303
1.2331
0.000978213
5.89083e-06
0.0026173
0.000654318
0.000308718
7.71654e-05
0.000379661
0.0200897
0.00078935
0.000960938
0.000906599
0.000992538
8.40412e-05
0.000348008
0.00145714
0.00100057
0.000894993
0.000211899
4.28478e-05
0.0012241
0.000320994
0.00038011
0.000796715
0.000714013
0.000735431
0.000980699
0.00100999
0.000918413
0.00112068
0.00112066
0.00145005
0.000779146
0.00101228
0.000979992
0.000776109
0.00096702
0.000896738
0.000998449
0.00026155
0.000888291
0.00100984
0.000894905
0.00112059
0.000253832
0.000398457
0.000668916
0.00101
0.000330569
0.000740386
1.9461e-15
3.18652e-10
0.00240482
0.000379096
0.000850418
0.000694792
0.000545923
0.000997667
0.0003892
0.00100993
0.000972649
0.000977525
0.000963111
0.000999516
0.000735111
0.00102929
0.000926085
0.000707778
0.000991643
0.000749978
0.00102944
0.00089779
0.000955844
0.000631827
0.000258775
0.000745081
0.000964465
0.000941166
0.000838222
0.00101
0.000334973
0.000769708
0.000685233
0.000978177
0.000925692
0.000935309
0.000893839
0.00091709
0.000695524
0.000567275
0.00206426
0.000187
0.000674617
0.000835469
0.000938582
0.00206421
1.42357
1.38917
1.35873
1.46589
1.49877
1.49752
0.705777
0.708652
0.694228
0.689398
0.613092
0.681776
0.508234
0.432633
0.360861
0.376358
0.344623
0.346968
0.34424
0.345957
0.222613
0.139543
0.231633
0.309441
0.308265
0.00093523
0.000794094
0.000875173
0.000890082
0.000922295
0.0009764
0.000965395
0.000493094
0.000931051
0.000554111
0.00100943
0.000959595
0.000969088
0.000968182
0.000165612
0.000398787
0.00100998
0.000498781
0.000128694
0.000927014
4.59314e-06
0.000276303
0.000921556
0.000785239
0.00052174
0.000783296
0.000978157
0.109046
0.248773
0.370832
0.366134
0.69021
0.603646
0.621255
0.400504
0.500644
0.578106
0.635539
0.635665
0.632628
0.6499
0.682566
0.669683
0.000707575
0.00115474
0.000624937
0.000982796
0.000704864
0.000720222
0.00100904
0.000845157
0.000719571
0.000865554
0.000823186
0.000932446
0.000763197
0.000831138
0.000896425
0.00058074
0.000627663
0.00100504
0.000978863
0.000935387
0.000938185
0.000682923
0.000770427
0.000937995
0.000997599
0.000978674
0.000347723
0.000953032
0.000978459
0.000973622
0.00101
0.000984843
0.000871643
0.000978065
0.000827832
0.000853205
0.000811322
0.0693071
0.109478
0.0927767
0.034423
0.0356005
0.00661393
0.0288586
0.00018178
0.00099935
0.000335929
0.000919076
0.0428151
0.0262882
0.000406768
0.000986977
0.000612942
0.000962556
0.000490688
0.000432878
0.000753925
0.000136085
7.42918e-05
0.00065721
0.000224512
0.000642279
5.79952e-05
0.000680105
0.000702988
0.00041265
0.000653842
0.000551523
0.000693939
9.93495e-05
0.000358069
0.000994303
5.93117e-05
0.000979051
1.25605
1.27375
1.29367
1.31724
1.3158
1.32265
1.355
1.34255
1.1907
1.18843
1.17189
1.19397
1.22507
1.18679
1.23131
1.20688
1.12011
1.10717
1.10696
1.13756
1.16929
1.1428
0.735258
0.652812
0.549343
0.636118
0.489542
0.402026
0.650722
0.650737
0.8935
0.895813
0.912254
0.803324
0.887712
1.00054
0.944063
0.888105
0.92982
1.03185
1.04627
1.03685
1.0416
1.05188
1.07156
1.0997
1.09029
1.09828
1.09732
1.09704
1.09323
1.10141
1.09861
0.135452
0.142565
0.272173
0.365374
0.140386
0.2248
0.380537
0.39693
0.138971
0.0762129
0.000706937
0.0559182
1.27359
1.23355
1.25018
1.29812
1.2956
1.29832
1.30985
1.33152
1.35365
1.36207
1.36517
1.36831
1.39142
1.42771
1.40802
1.42759
1.44615
1.49989
1.47188
1.30404
1.31482
1.33088
1.50282
1.49792
1.49541
0.00145702
0.00145698
0.00145704
0.000547181
0.000583593
0.000833362
6.12423e-08
0.000928091
0.000384693
0.000659527
0.000757232
0.000881632
0.000578176
0.00101
0.000702905
0.00100987
0.000969713
4.01742e-06
0.000753117
2.2427e-09
0.00186733
0.000578912
0.015531
0.000961496
0.087246
0.118825
0.0484421
0.0821359
0.151546
0.115909
0.243815
0.182929
0.252696
0.271678
0.269841
0.262895
0.312426
0.3512
0.393247
0.393065
0.398864
0.380367
0.412139
0.391062
0.438871
0.442128
0.468413
0.465336
0.443397
0.447639
0.566016
0.610653
0.511016
0.573777
0.624236
0.582304
0.688826
0.729022
0.831071
0.869153
0.846078
0.938384
0.994772
1.09078
1.07762
1.13481
1.10932
1.20311
1.20886
1.20291
1.23034
1.25715
1.26042
1.3146
1.27936
1.30886
1.26874
1.27037
1.30608
1.23724
1.27483
1.23639
0.000278737
2.52103e-06
0.000809039
0.000599838
0.000769361
0.000964183
0.00057408
5.38306e-07
0.00101
0.000199154
0.000126949
0.000512431
0.000270195
0.000632165
0.000566161
0.000339695
0.000358009
0.000121107
0.000508679
2.89784e-05
0.000124015
4.98173e-05
5.50518e-07
0.000218488
0.000787755
0.00103099
0.000967547
9.11049e-05
0.00112065
0.00112065
0.000976752
0.000995782
0.000992745
3.82214e-05
0.00101
0.000912008
0.0010004
0.000112849
0.00044385
0.000919656
8.0767e-11
0.000297927
0.00218311
3.02925e-10
0.000984734
5.90777e-05
0.0009581
0.000364482
0.00101
0.000172236
0.000992628
0.00220878
0.000975259
0.000134455
0.00096781
0.00100982
0.00128353
0.000389619
0.00100983
0.000979813
0.000465046
0.000983408
0.00101
0.000808151
0.00102953
0.00102929
0.000896998
0.000923244
0.00102905
0.00102932
0.000955402
0.000897651
0.000711032
0.000919589
0.00156753
7.86513e-05
0.00156739
0.000802238
0.00098702
0.000966821
0.00099923
0.00100984
0.00101
0.00100994
0.000799141
0.000805878
0.000827454
1.20946e-05
9.12481e-06
0
0.00090453
0.000799517
0.000430028
0.000851504
0.00128347
0.000898711
0.00100958
0.00100997
0.00082776
0.000998553
0.000946811
0.000914726
0.00101
1.38005
1.39208
1.39501
1.39373
1.43557
1.54561
1.52148
1.51735
1.54493
1.48662
0.617052
0.60084
0.537172
0.540317
0.495198
0.527794
0.437637
0.390373
0.381779
0.34499
0.320489
0.322422
0.228764
0.238082
0.112034
0.152188
0.153973
0.000529692
0.000965684
0.000913493
0.00101
0.000949844
0.000924031
0.000585991
0.00103021
0.0854921
3.02867e-07
0.000919443
0.000220381
0.000959565
0.000979614
1.45249e-06
0.000368616
0.00101
0.000973661
0.000800385
0.00102168
0.000849804
0.000994824
0.000944045
0.000847483
0.00025022
0.480352
0.479888
0.525953
0.227234
0.362147
0.364221
0.401037
0.525134
0.596249
0.558721
0.46024
0.544037
0.573011
0.577018
0.492793
0.521276
0.000957717
0.000982413
0.00115478
0.00101
0.000656027
0.000823908
0.00101
0.00117645
0.000958016
0.00099374
0.000160682
0.000986054
0.000875008
0.000936631
0.000510229
0.00102479
0.000969479
0.00102492
0.00102482
0.00101
0.000771965
0.000895476
0.000833864
0.000976221
0.00092185
0.00100577
0
0
0
0.00075538
0.00107575
0.000966976
0.00100563
0.000944429
0.000473953
0.000911195
0.000978965
0.000968087
0.00097325
0.000338297
0.000895901
0.000914242
0.000926795
0.000936046
0.00102485
0.0862382
0.0992265
0.108144
0.000358787
0.00105872
0.000663612
0.000967395
0.000907842
0.000750894
0.00147818
0.000671012
0.000826864
0.00147799
0.000465427
0.000491909
0.000406739
0.000485044
0.000242686
0.000584634
0.000439203
0.00103247
0.000270985
0.000575667
0.000666396
0.000877991
0.000945803
3.75291e-07
0.00015159
0.00118803
0.000493159
0.00103243
0.000312228
0.000747328
0.000806928
0.000346646
0.00101
0.000942721
0.000566024
0.00118802
1.26292
1.21318
1.29986
1.2591
1.26293
1.32272
1.29317
1.34706
1.32433
1.38425
1.33281
1.30483
1.38285
1.3302
1.15438
1.15556
1.14798
1.16036
1.17491
1.18342
1.18456
1.19276
1.0933
1.09521
1.11638
1.10282
1.13496
1.1407
0.736601
0.651893
0.575706
0.646858
0.449726
0.541304
0.650609
0.65594
0.882097
0.885316
0.887678
0.807266
0.974985
1.02159
0.92929
0.886205
1.02792
1.0288
1.04157
1.02804
1.06423
1.08459
1.1003
1.09687
1.10356
1.09605
1.0988
1.09614
1.10119
1.08948
0.13619
0.137977
0.295769
0.377695
0.27706
0.19764
0.428898
0.37577
0.111354
0.133798
0.110843
0.018465
1.27434
1.30749
1.29154
1.3166
1.33671
1.32471
1.35927
1.37336
1.34812
1.3609
1.35191
1.36078
1.36539
1.38854
1.40939
1.42616
1.43052
1.48052
1.4594
1.50899
1.51654
1.38277
1.39643
1.51578
1.52239
0.000415286
8.94152e-05
0.000696944
0.000551543
0.000525579
9.3846e-05
0.000260243
0.000187412
0.00101
1.00585e-05
0.000927799
0.000258474
0.000705117
0.000657476
5.07035e-06
0.000780461
0.00186729
0.000432248
0.000872027
0.000687083
0.000479753
1.82705e-16
0.00989352
5.33173e-241
0.107463
0.107014
0.0654714
0.0205713
0.140131
0.183767
0.24471
0.227373
0.243571
0.233786
0.364055
0.309514
0.415155
0.400502
0.433064
0.431116
0.415432
0.466311
0.511789
0.484068
0.468698
0.491617
0.544692
0.533107
0.508416
0.55498
0.64036
0.634387
0.634147
0.651355
0.779824
0.700336
0.869009
0.891898
0.893806
0.961367
1.03435
1.11168
1.11797
1.13027
1.17733
1.2248
1.2598
1.26172
1.30052
1.27194
1.32553
1.34145
1.3428
1.3405
1.34335
1.34205
1.31243
1.34337
1.30961
0.000852931
0.0001327
0.00686224
0.00102506
0.000696767
7.73581e-05
0.000686777
0.000538285
0.000924098
0.000700239
0.00101
0.00132923
0.00132646
0.00132976
0.00132507
0.00132425
0.00132715
0.00099626
0.00132282
0.00716387
0.000995742
0.000638589
0.000184916
0.0010311
0.000439044
0.00103095
0.00103098
0.000429268
9.27354e-05
0.00100217
0.000993637
0.000687571
0.000856518
0.000794817
0.00101
0.00103639
0.000781735
0.000959982
0.00100986
0.000887496
0.000962023
0.000996337
0.00186266
0.000972051
0.000146754
1.36216e-05
0.000607696
0.00096357
0.000988249
0.000479144
0.000826696
0.000961729
0.00100941
0.00031059
2.09937e-05
0.000987756
0.00100992
0.000817418
0.000560979
0.000715406
0.00101
0.000799183
0.000968609
0.000279366
0.000905419
0.000941315
0.000940438
0.0010008
0.000939674
0.000880492
0.000886752
0.00100949
0.00097168
0.000773375
0.000984106
0.000952799
0.000568957
0.00098992
0.000934564
0.000964099
0.000974876
0.000974485
0.00101
0.00099424
0.000905098
0.000464111
0
0
0
0
0
0
0
0
0
0
0
0
0
0
0
0
0
0
0
0.00099334
0.000891668
0.000937661
0.000812305
0.000916888
0.000434354
0.000930589
0.00106403
0.000325168
0.000811332
0.000498244
0.000885277
1.56023
1.5553
1.56948
1.56057
1.56982
1.57545
1.41701
1.40169
1.48219
1.44682
1.53284
1.55265
1.54935
1.4423
1.37216
0.478033
0.473602
0.478948
0.467994
0.474687
0.408926
0.453567
0.239693
0.300735
0.162418
0.161819
0.109174
0.109548
0.107296
4.53839e-05
0.000782753
0.000495047
0.000982711
0.00107054
0.101643
0.000109982
0.000948865
0.000967043
0.000964184
0.000758798
0.000977274
0.000808753
0.000970402
0.000977458
0.000717645
0.000335301
0.00102071
0.00102079
0.000314468
0.00102071
0.000932938
0.0004632
0.000564851
0.4818
0.482377
0.478101
0.481693
0.480051
0.199932
0.301324
0.247649
0.369397
0.431539
0.460748
0.382885
0.469485
0.422356
0.420289
0.411832
0.000954778
0.001105
0.000837934
0.000970576
0.000973219
0.000935143
0.000745326
0.00101463
0.000148015
0.000897828
0.0010126
0.000657495
6.92933e-05
0.000748222
0.00102033
0.000508825
0.000763669
0.000838189
0.000970909
0.000945676
0.00094707
0.000987504
0.000740767
0.000908685
0.000621516
0.00100955
0.000627569
0.000973579
0.000348921
2.15212e-05
0
0
0
0
0
0.000867166
0.00107607
0.000978274
0.00107637
0.000988902
0.000872265
0.00078846
0.000950347
0.00098805
0.00100037
0.00093197
0.000953825
0.000956596
0.000997349
0.000778615
0.00101
0
0
0
0
0
0
0.0865008
0.0146189
0.00303342
0.000918234
0.000569413
0.000680509
0.00078824
0.000960083
0.000791447
0.000311719
0.00100956
0.000846762
0.000375808
0.000550644
0.00033854
0.000760208
0.000752664
0.000795758
0.000905726
0.000971356
0.000997878
6.51335e-05
0.000918897
1.46728e-05
0.000486704
0.000793262
0.000634249
0.000404769
0.000958393
0.00027789
0.000607429
1.31742e-05
0.000467482
0.00182352
0.0018213
0.000648446
0.000959699
0.000281529
0.000798649
0.00100972
0.000818552
1.22442
1.21482
1.22247
1.22372
1.2439
1.23531
1.27959
1.32542
1.29312
1.30014
1.37556
1.33331
1.29921
1.1453
1.14486
1.17224
1.16111
1.18271
1.18689
1.20813
1.1958
1.09392
1.09905
1.12273
1.10739
1.12163
1.13022
0.774481
0.693664
0.617096
0.654379
0.603563
0.510432
0.693564
0.652778
0.887637
0.886107
0.845237
0.895416
0.982669
1.0272
0.893447
0.933791
1.03081
1.02742
1.05207
1.03301
1.07386
1.09413
1.08902
1.08811
1.10375
1.08913
1.09447
1.09535
1.09715
1.09547
0.127311
0.191046
0.37538
0.353958
0.275006
0.356474
0.377142
0.45127
0.125939
0.116596
0.116644
0.0358446
5.3971e-05
1.09975e-07
0.00193743
1.34223
1.34432
1.37092
1.36688
1.38871
1.39873
1.39899
1.40072
1.43477
1.41564
1.42515
1.39114
1.42605
1.43316
1.46063
1.47853
1.494
1.49231
1.54413
1.54407
1.56565
1.53995
1.45444
1.45866
1.57547
1.5695
0.00016622
0.000334169
0.00101
7.35586e-06
0.000729054
0.00124566
0.0012453
0.000972707
0.000305007
0.000124753
0.000110058
0.00205404
0.00105674
0.000750615
0.000822227
0.000857212
0.00100232
0.000626775
0.000320397
0.000824137
8.63116e-05
0.000995528
0.000301624
1.75491e-05
0.000860828
0.0546205
0.121273
0.000383259
0.222205
0.165385
0.229433
0.235479
0.335429
0.279083
0.390553
0.426543
0.418541
0.420265
0.547062
0.508122
0.474598
0.535113
0.55943
0.553776
0.551797
0.535893
0.550668
0.555032
0.633361
0.679267
0.712651
0.672583
0.715869
0.74032
0.879428
0.815315
0.907556
0.894229
0.972422
1.04819
1.13272
1.12881
1.16431
1.20185
1.27881
1.26598
1.29119
1.2936
1.32305
1.33489
1.35353
1.34504
1.35859
1.35258
1.34355
1.35496
1.3408
1.34359
0.000980452
0.000863994
0.00101
0.00067133
0.000948733
0.000657298
0.000566723
0.000789161
0.000642839
0.00132709
0.000394665
0.00093221
0.000295436
0.00132392
0.00132638
0.00132458
0.00132625
0.00132606
0.00132419
0.000450298
0.000371652
0.00100968
0.000655711
0.000938422
0.000788581
0.00100179
0.000690775
0.000997704
0.000180038
0.000954666
0.000624923
0.00101
0.000209386
0.000613088
0.00100863
0.0010364
0.000666135