/*--------------------------------*- C++ -*----------------------------------*\
  =========                 |
  \\      /  F ield         | OpenFOAM: The Open Source CFD Toolbox
   \\    /   O peration     | Website:  https://openfoam.org
    \\  /    A nd           | Version:  8
     \\/     M anipulation  |
\*---------------------------------------------------------------------------*/
FoamFile
{
    version     2.0;
    format      ascii;
    class       volScalarField;
    location    "19140";
    object      nut;
}
// * * * * * * * * * * * * * * * * * * * * * * * * * * * * * * * * * * * * * //

dimensions      [0 2 -1 0 0 0 0];

internalField   nonuniform List<scalar> 
526318
(
2.19704e-05
0.000125245
5.11372e-05
0.000139562
0.00021528
0.000181845
0.000301804
0.000350435
0.000370746
0.0003006
0.000367255
0.000336996
0.000325348
0.000248911
0.000247043
0.000178074
0.000218386
0.000234961
0.000277653
0.000151506
0.000232694
0.000236275
0.000186571
0.000292259
0.000277705
0.000280523
0.000210093
0.000413171
0.000355414
7.46234e-05
5.68537e-05
0.000162643
6.05155e-05
0.000293809
0.000250905
0.000345056
0.000365195
0.000226774
0.000295493
0.000300795
0.000260953
0.000246868
0.000203167
0.000186635
0.000122032
0.000179736
0.00018345
0.000375333
0.000429111
0.000302084
0.0003428
0.000333102
0.000213322
0.000303486
0.000212851
0.000136604
0.000243413
0.00012474
0.000303942
0.000254872
0.000280172
0.000275769
0.000335711
0.000188599
0.000165191
0.000225699
0.000345523
0.000304446
0.000444547
0.000409464
0.000322865
0.000357024
0.000391038
0.000470551
0.000453116
0.000482678
0.000452035
0.000518814
0.000560893
0.000497334
0.000508208
0.000499656
0.000523768
0.000578598
0.000566904
0.000501896
0.00046079
0.000549692
0.000416656
0.000480159
0.000514642
0.000527802
0.000367976
0.000308858
0.000382998
0.000450793
0.000448102
0.000346242
0.000270563
0.000378905
0.000224737
0.000237296
0.00024602
0.000101868
0.00020003
0.000227348
0.000170743
0.000187737
0.000148535
0.000198487
0.000254934
0.000204258
0.000336504
0.000321632
0.000276901
0.000164522
0.000138668
6.64545e-05
6.80454e-05
0.000169257
0.000232717
0.000207701
0.000283982
0.000116426
0.00013668
0.000124203
0.000197855
7.51771e-05
7.41587e-05
5.68857e-05
0.000138001
7.69268e-05
3.68706e-05
5.68983e-05
3.45389e-05
3.60672e-05
8.25147e-05
5.50376e-05
4.61247e-05
2.3032e-05
5.96511e-05
8.48006e-05
5.10191e-05
3.89173e-05
8.8859e-05
2.93454e-05
0.000100732
9.96318e-05
9.56e-05
0.000108016
3.85748e-05
0.000146247
9.11585e-05
8.26756e-05
6.99174e-05
0.000103108
0.000197964
0.000285779
0.000130219
0.000137784
0.000209679
0.00015562
4.89319e-05
0.000346419
0.000346237
0.000340538
0.000308824
0.000438794
0.000464064
0.000560587
0.000484186
0.000619387
0.000529715
0.000518249
0.000584451
0.00047292
0.000466847
0.000493953
0.00043935
0.000439528
0.000450578
0.000387433
0.000360075
0.000206189
0.000338973
0.000209886
0.000108036
4.2642e-05
0.000120933
6.81887e-05
0.000111182
9.06152e-05
6.97373e-05
8.15853e-05
0.000114807
0.000110847
4.35823e-05
6.36919e-05
5.2039e-05
8.89713e-05
7.68718e-05
0.000144951
0.000166355
0.000219755
0.000180859
3.74962e-05
0.000110559
0.000230499
0.000198418
0.000194824
0.000336392
0.000294264
0.000270841
0.000361378
0.000268529
0.000300578
0.000265312
0.000264128
0.000285119
0.000356035
0.000171708
0.000180974
0.00047882
0.000489184
0.000322942
0.000404765
0.000386527
0.000257087
0.00038917
0.000219874
7.56922e-05
0.000131567
0.000337553
0.000438649
0.000271102
0.000359178
0.000337442
0.000254496
9.31117e-05
0.000201308
0.000276158
0.000136501
0.000168655
0.000228795
0.000365939
0.000430829
0.000353069
0.00040735
0.000465773
0.000465051
0.000463263
0.000475982
0.000450194
0.000386732
0.000455528
0.000320075
0.00041187
0.000255726
0.000325539
0.000176289
0.000240638
4.73223e-05
0.000102893
0.000204588
0.000128024
0.000221268
0.000310713
0.000275166
0.000157654
0.000154188
0.000250718
0.00017817
0.000239307
0.000263253
0.000280732
0.000309558
0.000290146
0.000138482
0.000203412
0.000106487
0.000150884
9.42574e-05
0.000176609
9.70928e-05
5.17989e-05
3.12732e-05
7.72063e-05
2.96811e-05
7.54608e-05
8.83022e-05
3.04119e-05
4.66216e-05
8.70738e-05
0.000238407
0.000166697
0.000255513
0.000216612
0.000324431
0.000321917
0.000324935
0.000286668
0.00018543
0.000244575
0.00017425
0.000271342
0.000209143
8.95618e-05
7.09387e-05
9.7619e-05
9.3561e-05
0.000119309
0.00011529
0.000131706
0.000114632
0.000178489
0.000114692
0.000263605
0.000327161
0.000300112
0.000333566
0.000401071
0.000363198
0.000370797
0.000387988
0.00052131
0.000470918
0.000480955
0.000569401
0.000472693
0.000585316
0.000458136
0.000368357
0.000311781
0.000295477
0.000391543
0.00032431
0.000413055
0.000447329
0.000410116
0.000349267
0.00037039
0.000168517
7.44096e-05
0.000203224
9.05856e-05
0.000128241
0.000121314
8.12546e-05
0.000149065
7.79192e-05
0.000130706
4.07453e-05
9.18462e-05
3.73993e-05
7.1927e-05
6.47816e-05
9.99574e-05
5.11777e-05
0.000206536
8.37613e-05
0.00016312
0.000164825
0.000213975
0.0001425
0.000242553
0.000187268
0.000208527
0.000286852
0.00037367
0.000344921
0.000374876
0.000315273
0.000344069
0.000349036
0.000329116
0.000350482
0.000375304
0.000263464
0.000235586
0.000239193
0.000263985
0.000189303
8.7435e-05
0.000418946
0.000417356
0.000315488
0.000304995
0.0001694
0.000457173
0.000405663
0.0002497
0.000311983
0.000500045
0.000488859
0.000398533
0.000402588
0.000479307
0.000330709
0.000451687
0.000102662
0.000208194
0.000243695
0.000193282
0.000375354
0.000219595
4.23923e-05
5.37937e-05
5.15054e-05
4.22009e-05
0
0.000278285
0.0003841
0.000381512
0.000133603
8.8894e-05
0.000187552
0.000271071
0.00015708
0.00016655
0.000241787
0.000350205
0.000329574
0.000396362
0.000410659
0.000420091
0.000433136
0.000389123
0.000358569
0.000430382
0.000386458
0.000298938
0.000237324
0.000305892
0.000251762
0.000179515
0.000176608
0.00011898
0
2.47812e-11
1.10675e-10
0
0
0
0
8.05147e-11
1.1558e-10
1.55244e-10
4.0248e-05
0
0
0
1.8518e-05
0
3.03923e-05
4.14078e-05
6.38874e-05
0.000107969
0.000254101
0.000160239
0.000272898
0.000236165
0.00015445
0.000261509
0.000241247
0.000182715
0.000231047
0.000243466
0.000269516
0.000249147
0.00025782
0.000232059
0.000193747
0.00013891
5.29834e-05
0.000104573
0.00012899
6.99173e-05
5.46793e-05
0.000101825
0.000103682
4.81428e-05
3.97745e-05
0.000104425
5.07607e-05
0.000110557
0.000102328
8.0197e-05
0.00018058
0.000227874
0.000221921
0.000246818
0.000226416
0.000323613
0.000331801
0.000323894
0.000235107
0.000205617
0.000172317
0.000106743
0.00010616
0.000108244
0.000103829
0.000126444
0.000131629
4.73953e-05
0.00014166
0.000336639
0.000340969
0.000347368
0.000346128
0.00038698
0.000411683
0.000416222
0.000360915
0.000372059
0.00035874
0.000356325
0.000336505
0.000339459
0.000341055
0.000486088
0.000473594
0.000357451
0.000485094
0.000399241
0.000413662
0.000541179
0.000425462
0.000397917
0.000540301
0.00025116
0.000408029
0.000258904
6.51055e-05
0.00010844
0.000235019
0.000347252
0.000255877
0.000442872
0.000379496
0.000354837
0.00030171
0.000354392
0.000154376
8.90808e-05
0.000215896
9.59443e-05
0.00011439
0.000152594
7.53834e-05
0.000141856
9.94373e-05
0.000130259
3.17543e-05
3.06596e-05
6.51455e-05
6.74263e-05
5.89545e-05
7.66391e-05
0.000107583
0.000159453
0.000154609
0.000169475
0.000157727
0.000299512
0.000254199
0.000197452
0.000184664
0.000302681
0.00031058
0.000346581
0.00032565
0.00032455
0.000330769
0.000332881
0.000338829
0.000398794
0.000357973
0.000407826
0.000425546
0.000391378
0.000202936
0.000163057
0.000271357
0.000256632
0.000193247
0.000313801
0.000250663
0.000412366
0.000287744
0.000378819
0.000265116
0.000281324
0.000425834
0.000326262
0.000444838
0.000438145
0.000469267
0.000423652
0.000499789
0.000358761
0.000447408
0.000135625
0.00010559
0.000214917
0.000117721
0.000100824
0.00030563
4.44805e-06
0
2.12197e-07
0
9.97664e-05
0
0.000189562
0.000118599
8.60784e-05
0.000131008
0
0
0
0
0
0
0
0
0
0
1.75466e-09
0
0
6.31241e-10
7.05661e-10
1.85705e-09
0
0
0
0
0
0
0
0
0
0
0
0
0
0
0.000242086
0.000174609
0.000109873
0.000145249
0.000222877
0.000328405
0.000341812
0.000332771
0.000357893
0.000390161
0.000391037
0.000325452
0.000286282
0.000355812
0.000250058
0.000295463
0.000272825
0.000220145
0.000159583
0.000213192
0.000105701
0.000161283
0
0
0
0
0
0
0
0
0
0
0
0
0
0
0
0
0
0
0
0
0
0
0
0
2.5236e-06
2.81019e-05
4.493e-05
9.53318e-05
8.71819e-05
0.000164346
0.000328176
0.000177857
0.000265901
0.000276759
0.000216914
0.000236792
0.000231754
0.000218775
0.000207792
0.000220142
0.000220324
0.000240004
0.000208598
0.00022436
0.000138511
0.000102526
7.042e-05
7.31852e-06
6.41084e-10
0
0
0
0
0
0
0
0
0
0
0
0
0
0
0
0
0.000111031
9.91468e-05
0.000108761
8.30618e-05
6.29963e-05
0.000109792
6.59003e-05
0.000108762
8.16101e-05
0.000114019
0.000105843
8.6743e-05
0.000200869
0.000252965
0.000237086
0.000166185
0.0002818
0.000253188
0.000304693
0.000317336
0.000159886
0.000194835
0.000237026
0.000188451
9.31957e-05
0.000104369
0.000110247
8.22261e-05
4.1093e-05
0.000127669
0.000149148
0.000111166
0.000408486
0.000445445
0.00045859
0.000461645
0.000448895
0.000440954
0.000492039
0.000468011
0.000496549
0.000498931
0.00034917
0.000378816
0.000433411
0.000437694
0.000333054
0.000381918
0.0003662
0.000339549
0.000335009
0.000349578
0.000270673
0.000406729
0.000472926
0.000349935
0.00053477
0.000390067
0.000365394
0.000530336
0.000455281
0.000222367
0.000342751
0.000179882
0.000133644
0.000202985
0.000279068
8.61808e-05
0.000338672
0.000265115
0.00036162
0.000399249
0.000341225
0.000301171
0.000147622
0.000313404
0.000121252
9.8981e-05
0.000125803
0.000116023
8.54044e-05
0.000147924
0.000140364
3.18376e-05
4.87475e-05
7.95015e-05
6.34207e-05
4.16162e-05
0.000114824
0.000110026
0.000118672
0.000157922
0.000245676
0.000250258
0.000176142
0.000127483
0.000253448
0.000269203
0.000209379
0.000264669
0.000300953
0.000297912
0.000329496
0.000313879
0.000331078
0.000280412
0.000353641
0.000348833
0.000382059
0.000395814
0.000439604
0.000451286
0.000523503
0.000472536
0.000525126
0.000503421
0.000520302
0.000581916
0.00059241
0.000532894
0.000534779
0.000545394
0.000576958
0.000607918
0.00060524
0.000690064
0.000664074
0.000678361
0.000676264
0.000755776
0.000761567
0.000721956
0.000757698
0.00080468
0.000774182
0.000768882
0.000770616
0.000744817
0.000759439
0.000710291
0.000712683
0.000650999
0.000704106
0.000628129
0.000601894
0.000545348
0.0005514
0.000611779
0.000505761
0.000472186
0.000483499
0.000437351
0.000517509
0.00023007
0.00030243
0.000244072
0.000217192
0.000112367
0.000186
0.00023319
0.000277164
0.000375828
0.000238485
0.00037389
0.00026586
0.00033003
0.000146963
0.000318441
0.000239441
0.000377881
0.00041083
0.000357879
0.00038243
0.000425497
0.000400006
0.000394186
0.000170379
9.45076e-05
0.000192488
0.000142538
0.00017617
0.000217212
0
0
0
0
0
0
0.000131694
3.70596e-05
0.000128604
0.000177918
0
0
0
0
2.9696e-09
0
0
0
0
0
0
0
0
0
0
0
0
0
0
0
0
2.97327e-10
0
2.62741e-10
0
0
0
0
1.39511e-09
0
3.193e-09
2.41621e-09
0
7.36167e-10
1.41515e-09
1.8941e-09
0
0
0
0
0
0
0
0
0
0
0
0
0
0
0
0
0
0
0
0
0.000144215
0.000218593
0.000117413
6.38255e-05
0.000300719
0.000254678
0.000313507
0.000310936
0.000331436
0.000302953
0.000282746
0.000321009
0.000256615
0.00028762
0.000163927
0.000152736
0.000127231
0.000241111
0.000270384
0.000205228
0.000242513
0.00020857
0
0
1.03401e-09
7.60181e-10
0
0
0
0
1.82467e-09
0
0
0
0
0
0
0
0
0
0
2.99171e-07
0.000126843
0.000116534
3.9481e-05
0.000140605
0.000198974
7.73061e-05
0.000220693
0.000319583
0.000282929
0.000260578
0.000206341
0.000262115
0.000180472
0.000229402
0.000196437
0.000228445
0.000225846
0.000215952
0.00018222
0.000190185
0.000137493
5.02101e-05
8.03837e-05
2.75101e-05
0
0
0
0
0
1.88027e-11
0
0
1.02792e-11
0
0
0
0
0
0
0
0
0
0
0
0
0
0
0
5.95445e-07
0
0.000115058
0.000123188
0.000107717
0.000101314
0.00010356
8.69804e-05
8.15142e-05
9.90205e-05
9.86908e-05
8.0997e-05
9.53195e-05
8.24189e-05
0.000179656
0.000244066
0.000235095
0.000236366
0.000290929
0.000287313
0.000315313
0.00031784
0.000186627
0.000150278
0.000175365
0.000227075
8.77495e-05
9.381e-05
8.93605e-05
0.000107083
0.000109752
0.000108071
0.000135549
0.000135383
0.000544315
0.000512297
0.000509025
0.000485402
0.000453276
0.000449269
0.000539164
0.000557918
0.000645179
0.000682437
0.000639168
0.000571674
0.000761256
0.000728457
0.000799315
0.000786552
0.000739356
0.000758563
0.000660619
0.000673223
0.000598894
0.000576669
0.000526272
0.000498076
0.000372139
0.000430476
0.000412599
0.000434692
0.000445663
0.000474855
0.000415295
0.000392835
0.000448458
0.000459539
0.000371561
0.000368327
0.000389749
0.000326002
0.000338795
0.000389572
0.000432124
0.000462588
0.00024938
0.000497133
0.000292399
0.000341564
0.000254868
0.000480661
0.000407487
0.000240033
0.000284495
0.000262205
0.000145219
0.000307567
0.000345152
0.000221805
0.000308012
0.000375815
0.00033112
0.000339072
0.000350571
0.000273674
0.000116526
0.000201618
0.000126624
8.12676e-05
8.05049e-05
0.000134255
0.000135302
7.94323e-05
7.0696e-05
9.6827e-05
6.80262e-05
4.44595e-05
5.09429e-05
0.000114206
0.000121536
4.72439e-05
0.000176013
0.000223108
0.000178846
0.000202698
0.000227465
0.000143903
0.000248289
0.000211778
0.000243957
0.000247359
0.000255467
0.000257042
0.000336088
0.000321537
0.000293616
0.000273453
0.000356512
0.000357776
0.00038905
0.000399746
0.000403312
0.000466072
0.000451337
0.000476405
0.000506119
0.000578811
0.00050934
0.000531982
0.000631408
0.000632091
0.000679157
0.000691452
0.000728932
0.000731405
0.000765433
0.000754976
0.000760994
0.000703502
0.000697116
0.000578469
0.000466554
0.000579907
0.000469514
0.000393013
0.000364291
0.000380406
0.00032649
0.000312779
0.000313431
0.000264834
0.000311556
0.000273601
0.000280973
0.000239325
0.000280723
0.000202757
0.000209121
0.000322653
0.000250242
0.000261884
0.000111069
0.000287402
0.0003531
0.00028627
0.000332866
0.000193389
0.000388369
0.000202228
0.000391846
0.000351673
0.00011862
7.74876e-05
0.000103345
0.000127883
0.000225573
0.000177616
0.000128974
0.000265591
0.00010587
0.000148553
0.000166124
0.000125607
0.000214761
6.64719e-05
8.50297e-05
0.000212063
0
0
0
0
0
0
1.09872e-05
0
6.50829e-05
0
0
4.06456e-09
0
0
0
0
0
0
0
0
1.74144e-11
0
0
0
0
0
0
0
0
0
0
0
0
0
0
0
0
0
0
0
0
0
0
0
0
0
0
0
0
0
0
0
0
0
0.000164173
0.00018685
7.92966e-05
8.35869e-05
0.000262352
0.00022319
0.000269548
0.000269323
0.000260797
0.000264036
0.000255483
0.000257267
0.00025419
0.000244301
0.000171889
0.000166308
0.000142301
0.000218267
0.00021321
0.000242088
0.000251204
0.000238434
6.17819e-10
0
5.27495e-11
0
0
0
0
0
0
0
0
0
0
0
0
0
0
0
0
8.61056e-05
0.000187647
7.1619e-05
9.48952e-05
8.98044e-05
0.000130392
0.000261586
0.000272141
0.000334224
0.000282716
0.000246286
0.000212187
0.000269314
0.000196509
0.000224882
0.000237338
0.000196189
0.000202628
0.000224283
0.000183991
0.000166997
9.43575e-05
2.7278e-05
6.31489e-05
0.000151615
0
0
0
0
0
0
0
0
0
0
0
0
0
0
0
0
0
0
0
0
0
0
4.80538e-07
0
0
0
0
0
0
0
0
0.000131106
0.000117315
8.0551e-05
0.000131015
0.000129366
6.4034e-05
6.43928e-05
0.000131613
0.000168741
0.000150909
0.000130237
0.000123846
7.19455e-05
9.34466e-05
0.000110563
0.00020765
0.000246546
0.000246922
0.000248835
0.000295636
0.000298249
0.000328371
0.000327911
0.000178837
0.000176818
0.000245306
0.000217237
9.95151e-05
0.000120089
0.000124285
0.000104222
0.000125226
0.00014195
0.000183453
0.000157558
0.00037582
0.000381971
0.000405752
0.000398136
0.000426212
0.000377795
0.000413043
0.000492482
0.00053057
0.000485968
0.000540631
0.000603083
0.000558239
0.000495006
0.00023612
0.000252724
0.000254419
0.000241319
0.000255055
0.000256761
0.000279694
0.000240777
0.000315088
0.000311636
0.00025588
0.000323677
0.000356733
0.000336927
0.000305939
0.00038357
0.00036185
0.000322666
0.000341912
0.000302468
0.00029373
0.000573725
0.000573585
0.00052055
0.000488928
0.000463677
0.000486809
0.000564021
0.000561314
0.000713078
0.000758753
0.000663347
0.000667227
0.000786276
0.000807887
0.000792672
0.000777042
0.000742881
0.000701683
0.000651187
0.000608635
0.000574121
0.000526061
0.000512285
0.000472174
0.000437029
0.000404569
0.000472407
0.000440638
0.000440361
0.000417312
0.000420002
0.000402916
0.000403617
0.000474189
0.000474093
0.000376895
0.000248567
0.00031043
0.000348831
0.000235284
0.000248261
0.000225661
0.000252124
0.000229193
0.000267666
0.000298938
0.000357402
0.000355561
0.000421994
0.000440107
0.000428888
0.000520504
0.000523352
0.000561066
0.000546155
0.000649802
0.000578995
0.000434865
0.000204581
0.000425625
0.000469935
0.000229939
0.000231103
0.000409648
0.000270699
0.000366688
0.000343415
0.000362971
0.000229895
0.0003474
0.000208343
0.000272431
0.000360354
0.000367452
0.000302112
0.000274576
0.000293504
0.000320957
0.000190728
6.14748e-05
0.000118529
8.16239e-05
6.52682e-05
0.000131681
0.000100069
0.000127708
4.0424e-05
7.14016e-05
7.44493e-05
5.58167e-06
0.000103036
0.000176189
0.000102138
0.000185122
0.000120589
0.000176387
6.61441e-05
8.81009e-05
0.000220593
0.000133455
0.00019525
0.000266655
0.000218017
0.00012658
0.000240686
0.000243232
0.000295742
0.000340634
0.00033552
0.000310994
0.000292631
0.000384913
0.000426602
0.000420094
0.000409155
0.000436941
0.000437805
0.000488111
0.000542737
0.000509178
0.000492886
0.00056716
0.000603763
0.000616867
0.000678141
0.000660673
0.000723112
0.000736066
0.000712581
0.000743639
0.000751939
0.000676774
0.000741999
0.000541172
0.000656287
0.000530445
0.000417709
0.000344883
0.000410714
0.000282182
0.000331597
0.000281318
0.000394031
0.000167685
0.00032636
0.000376618
0.000206895
0.000293225
0.000298288
0.000388105
0.000114794
0.000249358
0.00019194
0.000136635
0.000340978
0.000411134
0.000132769
0.00013775
0.000109682
0.000154788
0.00021265
4.26254e-05
0.000121427
0.000158247
0.000196047
0.00011456
0.000159664
8.33583e-05
4.76292e-05
0.000193782
7.89502e-05
0.000133849
4.41247e-05
0.000378904
0.000329687
0.00030214
0
0
0
0
0
0
0
0
3.47962e-05
0
0
0
0
0
0
0
0
2.75024e-07
0
0
0
0
0
0
0
0
0
0
0
0
4.17386e-10
0
0
0
0
2.61165e-09
0
0
0
0
0
0
0
0
0
0
0
0
0
0
0
0
0
0
0
2.14626e-09
0
0
0
0
2.35742e-09
0.000668857
0.000544856
0.000377881
0.000694723
0.000775304
0.000567241
0.000154807
0.000101557
9.32527e-05
8.97779e-05
0.000223777
0.00015292
0.00021435
0.000231407
0.000221738
0.00020563
0.000237106
0.000212027
0.000241877
0.000261022
0.000217501
0.000214434
0.000249102
0.000251765
0.000258178
0
0
0
0
0
0
0
0
0
0
0
0
0
0.000326615
0.000276578
0.000346934
0
0
0
0
0.000123197
0.000111234
3.65834e-05
0.000159801
0.00020622
0.000109107
0.000206918
0.000261625
0.000309449
0.00025688
0.000208162
3.89758e-05
0.00011693
5.33918e-05
0.000183532
0.000225447
0.000188177
0.000244322
0.000220739
0.000175805
0.000179357
0.000156764
0.000125106
0
2.75525e-10
0
0
0
0
0
0
0
0
0
0
0
0
0
0
0
0
0
0
0
0
0
0
0
0
0
0
0
0
0
0
0
0
0
0
0
0.000136026
0.000189032
0.000189108
0.000116
9.74838e-05
0.000113392
7.01756e-05
0.000104176
6.75412e-05
7.03145e-05
8.65549e-05
0.000129141
0.000100998
7.14989e-05
7.87267e-05
0.000116881
6.76825e-05
0.000225914
0.000254504
0.000262311
0.000274323
0.000288114
0.000322278
0.000334327
0.000318211
0.000209933
0.000229056
0.000238736
0.000236803
0.000150274
7.17546e-05
0.000159766
0.000100383
0.000140681
0.000200021
0.000171362
0.000218109
0.000360612
0.000289311
0.000451223
0.000390717
0.000623071
0.000381337
0.000152023
0.000699928
0.000280642
0.000273342
0.000296894
0.000286173
0.000330951
0.000298416
0.00026963
0.000348767
0.000361289
0.000394166
0.000339092
0.000327478
0.000303226
0.000316758
0.000616179
0.000582043
0.000520668
0.000531285
0.000518563
0.000520905
0.000542789
0.00055316
0.000775912
0.000798746
0.000799843
0.000708842
0.000733446
0.000796167
0.000854995
0.000868252
0.000825184
0.000845141
0.000743257
0.000738657
0.000638952
0.000630554
0.000557208
0.000510547
0.000572059
0.000477621
0.000531477
0.000399864
0.000428868
0.000482135
0.000441862
0.000394945
0.000408749
0.000477512
0.000457956
0.000429614
0.000460123
0.000479612
0.000473865
0.000359356
0.000396948
0.000377469
0.000359634
0.00022647
0.000249402
0.000251619
0.000242182
0.000247881
0.000259625
0.000289997
0.000342454
0.000371345
0.000424878
0.000393728
0.000505696
0.000488463
0.000613857
0.000605566
0.000586887
0.000698207
0.000684696
0.00069893
0.000298629
0.00033531
0.000361921
0.00071211
0.000837964
0.000738033
0.000389873
0.000421467
0.000159217
0.000190419
0.000388331
0.000205101
0.000285299
0.000343332
0.000440607
0.000255495
0.00024181
0.000409787
0.000280778
0.000378825
0.000352539
0.000273471
0.000236766
0.000299625
0.000124644
0.000147863
0.000125449
8.91934e-05
0.000121436
4.39648e-05
4.50043e-05
0.000129952
9.45615e-05
0.000130125
6.40814e-05
3.06176e-05
0.000141473
4.99558e-05
5.62334e-05
0.000108714
0.000200758
2.57242e-05
9.30171e-05
0.000233499
7.924e-05
0.000163678
0.000210155
0.000181525
0.000193619
7.78605e-05
0.000214234
0.000262793
0.000237928
0.000203985
0.000278582
0.000313771
0.000358985
0.000368686
0.000291537
0.000367628
0.000370816
0.00043974
0.000461351
0.000502104
0.000357222
0.000598706
0.000503635
0.000535815
0.000533754
0.000571597
0.000597252
0.000671663
0.000612899
0.000671494
0.000719107
0.000741817
0.00071081
0.000731554
0.000714211
0.000704566
0.000619211
0.00060646
0.000490782
0.000373849
0.000466974
0.000292217
0.000336194
0.000277971
0.00011474
0.000380625
0.000122026
0.000369765
0.000331479
0.000273911
0.000243016
0.00054073
0.000459719
3.99142e-05
0.000243813
0.000117532
0.000316742
6.31762e-05
0.000341511
0.000388385
9.89478e-05
2.44021e-05
2.71534e-05
0.000104887
0.000293754
0.00019181
0.000234354
5.45355e-05
6.43652e-05
1.66575e-05
1.90703e-05
1.89272e-05
4.68656e-05
7.37498e-05
2.47184e-05
0.000198829
0.0002482
0.000292366
0.000378023
0.000193415
0
0
0
0
0
0
3.28905e-07
0
0
3.19948e-06
0
0
0
0
0
1.73996e-07
0
0
0
0
1.23363e-09
0
0
0
0
0
0
0
3.88734e-10
4.10892e-10
0
0
9.95789e-10
1.95415e-09
0
0
0
0
2.86296e-09
0
3.72242e-09
0
0
0
0
0
0
0
0
0
0
0
0
0
0
0
0
0
1.34628e-09
0
0
0
0
0
0
0
0
0.000765216
0.000959316
0.000626009
0.00073057
0.000523392
0.000554979
0.000682416
0.000871952
0.000928051
0.000339939
0.000153417
0.000151546
0.000119892
0.000103912
0.000182547
0.000174089
0.000161192
0.00018328
0.000186958
0.000218723
0.000246853
0.000228063
0.000258028
0.000255153
0.000234593
0.000233499
0.000253867
0
0
0
0
0
0
0
0.000350307
0.000348718
0.00026822
0
0
0
0
0.000257813
0.000207087
1.98905e-05
0
3.45428e-05
0.000103839
3.81921e-05
0.000111755
0.000131381
0.000119306
0.000140645
0.000100882
0.000155762
9.59229e-05
0.000272761
0.000304536
0.000237022
0.00025431
0.000158797
0.000119955
0.000221525
0.000208585
0.00019115
0.000213894
0.00017338
0.000187201
0.000197861
0
0
2.60738e-10
0
0
0
0
4.60518e-10
0
0
0
0
0
0
0
0
0
0
0
0
0
0
0
0
0
0
0
0
0
0
0
6.01131e-09
0
0
0
0
0
0
0
0
0
0
0
0
0
0.000158387
0.000217915
0.000197527
0.0001178
0.00016141
8.69864e-05
8.50029e-05
7.5179e-05
6.76629e-05
5.69673e-05
7.57614e-05
5.45891e-05
8.16102e-05
0.000104969
9.42901e-05
6.4027e-05
0.000107635
8.0075e-05
0.000133048
0.000244016
0.000257118
0.000306905
0.000280286
0.000319665
0.000350551
0.000352209
0.000330768
0.000206138
0.000201263
0.000227742
0.000245589
9.93612e-05
0.000136704
0.000137407
0.000163469
0.000178081
0.000188811
0.000187714
0.000167681
0.000381779
0.000352123
0.000273021
0.000445278
0.000645854
0.000523405
0.000855411
0.000971567
0.000826127
0.000482995
0.000365586
0.000630887
0.000398493
5.73115e-05
0.000300516
0.000293374
0.000320701
0.000313692
0.000337313
0.000321851
0.000372406
0.000492443
0.00036257
0.000377683
0.000341836
0.00034941
0.000347489
0.000322419
0.000634116
0.000560574
0.000574254
0.000522669
0.000486267
0.00052534
0.000559578
0.000524391
0.000832574
0.000840547
0.000786602
0.000731909
0.000912506
0.00080605
0.000869953
0.000916547
0.000707983
0.000824504
0.000625007
0.000702323
0.000644214
0.000584209
0.000604546
0.000538327
0.000488005
0.000545037
0.000429844
0.000403688
0.00044836
0.000483735
0.000418768
0.000412466
0.000495949
0.000494911
0.000483224
0.000451805
0.000498296
0.000506958
0.000413699
0.000400794
0.000398494
0.000404235
0.000276767
0.000252519
0.000241789
0.000252931
0.000257469
0.00027914
0.000335189
0.00038947
0.000382208
0.00043865
0.000411104
0.000486547
0.000521308
0.000537048
0.000542625
0.000666845
0.000604667
0.000724015
0.00072081
0.000816971
0.000750978
0.000449389
0.000429896
0.000760061
0.000785034
0.000400108
0.000283907
0.000224805
0.000276897
0.000215022
0.000230572
0.000365639
0.000218986
0.000248743
0.000428873
0.000289981
0.000383018
0.000357325
0.000286367
0.000177213
0.000426176
0.000154103
0.000304248
0.000120787
9.61909e-05
0.000154899
7.70897e-05
5.8027e-05
8.72085e-05
5.94732e-05
6.37384e-05
0.000147948
0.000130056
0.000104975
0.000110651
9.07675e-05
5.24071e-05
0.000192407
5.62649e-05
0.000114776
2.03418e-05
5.47223e-05
0.000156879
0.000153378
0.000149558
0.000101985
0.000140653
0.000231212
0.000185681
0.000296863
0.000238104
0.00015924
0.000302124
0.000256336
0.00035776
0.000333491
0.000360278
0.000349229
0.000389018
0.000429802
0.00040662
0.000486971
0.000431598
0.000543266
0.000474974
0.00056305
0.000520392
0.000592819
0.000575077
0.000660172
0.000653812
0.00069524
0.000703367
0.000699387
0.000703253
0.000696394
0.000644785
0.00065262
0.000561706
0.000546382
0.000458503
0.00037006
0.000411985
0.000248091
5.4561e-05
2.3222e-05
2.30058e-05
2.66357e-05
0.000271306
0.000388465
0.000172798
0.000219795
0.000357103
0.000376199
8.24367e-05
0.000206549
8.89818e-05
0.00011718
0.000327004
0.000407315
0.000152428
0.000206301
0.000452478
8.82436e-06
9.41651e-06
0
0
2.66258e-05
3.88489e-07
2.81258e-05
1.40221e-05
3.93169e-06
1.54343e-05
0
0
0
0
0
0
2.32177e-07
0
0
0
0
0
0
5.47775e-07
0
0
0
0
0
0
0
0
0
0
0
0
0
0
0
0
0
0
0
0
0
0
0
0
0
0
0
0
0
0
0
0
0
0
0
0
0
0
0
0
0
0
0
0
0
0
0
0
0
0
0
0
0
0
0
0
0
0
0
0
0
0
0
0
0
0
0
0
0
1.58661e-11
0
0
0
0
0.000748583
0.000927272
0.000838098
0.00089556
0.000988627
0.000796311
0.00075419
0.000781505
0.000972285
0.000763688
0.00107199
0.00120247
0.000439461
0.000238406
0.00126036
9.37509e-05
0.000157718
0.000199471
0.000169307
0.000177922
0.000183578
0.000186642
0.000221132
0.000221589
0.000239727
0.000241216
0.000241274
0.000223669
0.000238527
0
0
0
0
0.000336762
0.000319438
0.000273179
0
0
0.000261695
0.000232898
0
6.59214e-06
0
0
0.000102912
0.000179085
2.47011e-05
2.78767e-05
8.34529e-05
1.41525e-05
0.000102591
8.75483e-05
0.000150416
0.000120369
0.000141885
0.000165272
0.000162313
0.000136474
0.000289215
0.000257332
0.00022979
0.000192032
0.000163627
0.000198738
0.000215657
0.000181132
0.000193216
0.0001686
0.000202493
0
7.57557e-10
0
0
0
0
0
0
0
0
0
4.2397e-07
0
0
0
0.000100431
8.88164e-05
1.15791e-05
0
0
5.22844e-05
0
0
0
0
0
0
0
0
0
0
0
0
0
0
0
2.07303e-09
0
7.77925e-10
0
0
0
0
0
0
0
0
0
0
0
0.000143317
0
0
0
0
0
0
0.000206667
0.000193205
0.000212811
0.00017516
0.000158951
0.00011462
0.000125597
7.8197e-05
7.7631e-05
7.19682e-05
8.16283e-05
7.8164e-05
9.04871e-05
0.000113442
8.44146e-05
0.000111831
7.14181e-05
0.000111845
0.000130663
0.00012833
0.000122335
0.000359893
0.000397627
0.000348439
0.000279447
0.000273283
0.000319693
0.000323044
0.000335735
0.00022094
0.000192217
0.000265727
0.00023616
0.000136458
0.00013147
0.000162834
0.00019006
0.000185461
0.000191853
0.00019524
0.000192701
0.000368888
0.000429904
0.000799948
0.000349486
0.00137731
0.000522449
0.00102273
0.00127066
0.00061498
0.000435714
0.00109611
0.000631532
0.000754027
0.000328338
0.00033527
0.000353664
0.000337984
0.000395771
0.000384989
0.000149285
0.000387311
0.000415991
0.000383294
0.000375016
0.000409808
0.000383596
0.000367556
0.000667317
0.000567506
0.000525515
0.000527989
0.000525393
0.00054018
0.000538169
0.000513884
0.000873874
0.000885259
0.00076557
0.000841848
0.00091765
0.000810648
0.000963403
0.000889957
0.000809317
0.000718213
0.000662716
0.000716974
0.000668211
0.000611797
0.000601664
0.000545469
0.000539069
0.000496909
0.00043143
0.000465494
0.00050308
0.00047979
0.000423722
0.000434038
0.000504511
0.000493699
0.000485381
0.000486
0.000495766
0.00050397
0.000418138
0.000420353
0.000416918
0.000412517
0.000375889
0.000369421
0.00041576
0.000354927
0.000290432
0.000295143
0.000296013
0.000305245
0.000418379
0.00037383
0.000427356
0.000475879
0.000461392
0.000484291
0.000516394
0.000578448
0.000574506
0.000671849
0.000629575
0.000685306
0.000706066
0.000756659
0.000738037
0.000857114
0.000818344
0.000534739
0.00054902
0.000945133
0.000850831
0.000361205
0.000148798
0.00027859
0.000201738
0.00024565
0.000285064
0.000216085
0.000388973
0.000242013
0.000328897
0.000262734
0.00026002
0.000241844
0.000301478
0.000278723
0.000135395
0.000196959
8.16759e-05
9.50788e-05
7.25071e-05
0.000139747
5.25563e-05
0.000145102
8.75966e-05
6.48401e-05
0.00021481
0.00012841
0.000114902
5.98315e-05
0.000205519
0.000112933
7.68431e-05
7.98521e-05
7.81058e-05
4.32334e-05
0.00014445
0.000161887
1.09575e-05
0.000203698
0.000115984
3.22938e-05
0.000124261
0.000219931
0.000257527
0.000290093
0.000239993
0.000272045
0.000270778
0.000320057
0.000352167
0.000434204
0.000382627
0.000409078
0.000347501
0.000455195
0.000420875
0.000474457
0.000482403
0.000534536
0.000524656
0.000571937
0.000548151
0.000611346
0.000602978
0.000667339
0.000663192
0.000685745
0.000677974
0.000677172
0.000647536
0.000650576
0.000593644
0.000592721
0.000509882
0.000427663
0.000488104
0.000371089
0.000397876
3.7841e-07
0
1.43179e-05
4.59951e-06
0
0
0
0.000207519
2.51986e-06
0.000413408
0.000163871
6.4798e-05
0.000194853
6.66798e-05
0.000247734
0.000320074
0.000451768
0.000265414
0.00058493
0.000412559
0.000280254
0
0
0
0
0
3.66472e-06
0
0
0
0
0
0
0
0
1.36311e-07
0
0
0
3.1875e-08
0
0
0
0
0
0
0
0
0
0
0
0
0
0
0
0
0
0
7.06545e-08
0
0
0
0
0
6.57214e-10
8.55174e-10
1.4076e-09
0
0
0
0
0
0
0
0
0
0
0
0
0
0
0
0
0
0
0
0
0
0
0
0
0
0
0
0
0
0
0
0
0
0
0
0
0
0
0
0
0
3.01367e-09
0
6.48885e-10
0
2.25338e-09
0
0
0
0.00088071
0.000929688
0.000844277
0.000977544
0.00097358
0.000985115
0.00083453
0.000176626
0.000787571
0.00139877
0.000343907
0.000547301
0.000742223
0.00112686
0.000657121
0.000922477