/*--------------------------------*- C++ -*----------------------------------*\
  =========                 |
  \\      /  F ield         | OpenFOAM: The Open Source CFD Toolbox
   \\    /   O peration     | Website:  https://openfoam.org
    \\  /    A nd           | Version:  8
     \\/     M anipulation  |
\*---------------------------------------------------------------------------*/
FoamFile
{
    version     2.0;
    format      ascii;
    class       volScalarField;
    location    "11820";
    object      alpha;
}
// * * * * * * * * * * * * * * * * * * * * * * * * * * * * * * * * * * * * * //

dimensions      [0 0 -1 0 0 0 0];

internalField   nonuniform List<scalar> 
526318
(
0.000289027
0.000538371
0.000814436
0.000228763
0.000329849
0.000584748
0.000995175
0.000903961
0.000308502
0.00059538
0.000355156
0.000185294
0.00065051
0.000546679
0.000238511
0.000469211
0.000923575
0.000472416
0.000208337
0.00020768
0.000348452
0.000633501
0.00222053
0.000744121
0.000378072
0.000873981
0.000105386
0.00104359
0.00038321
0.000239832
0.000470259
0.000439834
0.000552695
0.000838035
0.0010293
0.000252079
0.00086909
0.000113125
0.000288104
0.000750372
0.000664307
0.000909238
0.00164679
0.00151525
0.00439013
0.0031637
0.00219151
0.000418876
0.000677563
0.00107779
0.000900672
0.000267056
0.000277881
0.000705823
0
0.00396892
0.0015115
0.188751
0.000426236
0.000606122
0.00040621
0.000437805
0.00103491
0.000306218
0.000486082
0.000265511
0.000683377
0.00026663
0.000717967
0.000943566
0.000328296
0.000478322
0.00073356
0.00117786
0.000239508
0.000683279
0.00165282
0.00153302
0.00171268
0.0018086
0.00111158
0.00104269
0.000760543
0.00204438
0.00109952
0.00034402
0.00063229
0.000643229
0.000371556
0.00110581
0.000471195
0.00170771
0.0013173
0.000692665
0.000505588
0.00167862
0.000453235
0.000830054
0.000454034
0.000388575
0
0
0
0
0
0
0.00126574
0.0316724
0.00277545
0.00192778
0.00136703
0.00120465
0.000664457
0.000459737
5.65724e-06
0.000566208
0.00025522
0.000416428
0.000491252
0.000577113
0.000676253
0.000825484
0.000838306
0.00216602
0.000355866
0.00026457
0.00192162
0.00134957
0.000241619
0.00202637
0.000836979
0.0024426
0.00287208
0.00371982
0.0028208
0.0105765
0.00461767
0.00672269
0.00115451
0.00627084
0.00602082
0.00939973
0.00363175
0.00665254
0.00496827
0.0117224
0.00950424
0.0037361
0.00311362
0.00978567
0.00735946
0.0163199
0.00593277
0.010894
0.0134468
0.0516828
0.0108479
0.00781184
0.0500735
0
0.0141712
0.0600398
0.0163007
0.000858997
0.000419214
0.00068391
0.000171004
0.00142615
0.000698584
0.00014644
0.00125387
0.00137176
0.0020665
0.0012
0.00220359
0.000675526
0.00139617
0.00256708
0.000743448
0.000293289
0.00144624
0.000889215
0.00102652
0.000771339
0.00114732
0.00352888
0.00057959
0.00407297
0.00217095
0.00233922
0.0045047
0.00626929
0.00388503
0.00540236
0.000578009
0.00696906
0.00611686
0.0050861
0.0055918
0.00442524
0.0083748
0.0166465
0.00960381
0.0104485
0.0107335
0.00635769
0.0240517
0.0198655
0.00471923
0.00793042
0.000648355
0.00121258
0.000472191
0.00111953
0.00115443
0.000334333
0.000233484
0.000501472
0.000266388
0.00184254
0.00404161
0.00439603
0.00213105
0.000407654
0.000837629
0.000443433
0.00067085
0.000411463
0.000950262
0
0
0
0.00734762
0
0
0
0
0
0
0.000384826
0.000682281
0.000479012
0.000467193
0.000349076
0.000419663
0.000872595
0.000640591
0.00137618
0.0013205
0.00100115
0.000835713
0.00049959
0.000763293
0.000412477
0.000735429
0.000258156
0.000416685
0.000408658
0.000593413
0.000386904
0.000393395
0
0
0
0
0
0
0
0
0.00240975
0.01166
0.00144688
0.00167091
0.000429309
0.000850105
0.000215479
0.000488544
0.000574616
0.000295639
0.000460669
0.000210416
0.0010426
0.000163842
0.00114051
0.00134697
0.00238896
0.00169869
0.00829022
0.00254212
0.00373112
0.00597915
0.0123567
0.00694312
0
0.0686374
0.00807213
0.00671505
0.0102885
0.000704709
0.0192253
0.0154636
0.252928
0
0.00563593
0.0125657
0.0417397
0.00634372
0.0123632
0.111149
0.0590956
0
0
0
0
0
0
0.0063933
0.0115084
0.017477
0.0035751
0.000496413
0.00151142
0.00235283
0.00138802
0.000802169
0.00208985
0.00177975
0.00125156
0.00189896
0.00208339
0.00394609
0.00251434
0.00519122
0.00314756
0.00305586
0.00119507
0.00331865
0.000790989
0.00333011
0.000530809
0.00157119
0.0029554
0.00293345
0.00541551
0.00289246
0.00409042
0.000350368
0.00388036
0.00453372
0.00401225
0.00236745
0.000226393
0.0040522
0.00135009
0.00669217
0.00344813
0.00937928
0.00307776
0.00688382
0.0128125
0.00571559
0.00733228
0.00799601
0.0117055
0.00936098
0.00258863
0.0042976
0.00531621
0.0023976
0.00546623
0.00657847
0.00114422
0.00263642
0.00261481
0.0037944
0.00172581
0.00233819
0.00144979
0.000793513
0.00212935
0.000981397
0.00102071
0.000612678
0.000884273
0.00220977
0.00117833
0.00126846
0.00152089
0.0165465
0.0496495
0.00790941
0.0114274
0.00145588
0.00110352
0.00194836
0.00171126
0.000992703
0.000261632
0.000809102
0
0
0
0
0
0
0
0
0
0
0
0
0
0
0
0
0.00032382
0.000372126
0.000256144
0.000232356
0.000517915
0.000312049
0.000722323
0.00100919
0.000962638
0.000921357
0.000583362
0.000574787
0.000412736
0.000360738
0.000290065
0.000271064
0.000323313
0.000274897
0.000238789
0.000466984
0.000234806
0.000851352
0
0.00289965
0.0012146
0
0
0
0
0.00144733
0.00345111
0.00352799
0
0
0
0
0
0
0
0
0
0
0
0
0
0
0.0645327
0
0.0041879
0.00170474
0.000775517
0.000642444
0.000489009
0.000415952
0.000310613
0.000354035
0.000521816
0.00026942
0.00035435
6.64508e-05
0.0014703
0.00125054
0.00200234
0.00142401
0.00444181
0.00384015
0.00312093
0.00179574
0.00764458
0.00300482
0.0294291
0.0272902
0
0
0.00754616
0.0436011
0
0.0189386
0.0417238
0.0234282
0
0
0
0
0
0
0
0
0
0
0
0.0042414
0.00286824
0.00132045
0.00138754
0.000257405
0.000660648
0.00252813
0.00236174
0.00710002
0.00548013
0.00152865
0.000834361
0.0146697
0.0201591
0.00107406
0.00153087
0.00391775
0.00274863
0.00780461
0.00441277
0.00295051
0.0032395
0.00286525
0.00423655
0.00364339
0.00623051
0.00790149
0.00845545
0.00722882
0.00483855
0.0155101
0.00918876
0.024661
0
0
0.00321482
0.00188195
0.00722781
0.00439747
0.00201799
0.00189828
0.00493585
0.00207359
0.00505193
0.0043782
0.00598459
0.00283136
0.00656071
0.00850615
0.00516381
0.00177182
0.00319314
0.00216486
0.00211772
0.00583281
0.00687869
0.00333249
0.0035823
0.0051623
0.00338092
0.00420142
0.00237985
0.00477329
0.00279256
0.00265561
0.00169367
0.00434434
0.00118055
0.00234195
0.00198702
0.00134067
0.00126379
0.00150319
0.000371542
0.000933694
0.00058082
0.00135758
0.000858264
0.00214656
0.00197345
0.00139257
0.00120941
0.00507892
0.00821391
0.00497598
0.00548315
0
0
0.00951622
0.000760503
0.00291199
0.0027649
0.00575573
0.0116566
0.00912995
0.0346306
0
0
0
0
0
0
0
0
0
0
0
0
0
0
0
0
0
0
0
0
0
0
0
0
0
0
0.00809515
0
0.00191069
0
0.0034151
0.00877357
0
0
0
0
0
0
0
0
0
0
0
0
0
0
0.000136563
0.000204488
0.00025409
5.71522e-05
0.000393811
0.000200481
0.000676829
5.4114e-05
0.000299977
0.000544778
0.000388141
0.000247203
0.00017003
0.000283017
0.000336565
0.000113479
0.000449418
0.000417587
0.000424465
0.000314615
0.00169869
0.00168065
0
0
0
0
0
0
0
0
0.0242236
0
0
0
0
0
0
0
0
0
0
0
0
0
0
0
0
0
0
0
0
0
0
0
0
0
0.00348232
0.027129
0.000758281
0.00164096
0.000835444
0.000250953
0.000533806
0.000244449
0.000120676
0.000488574
0.000545738
0.000111038
0.000278574
0.000406307
0.00303279
0
0
0
0
0
0
0
0
0
0
0
0
0
0
0
0
0.00161597
0.00214425
0.000867617
0.00160878
0.00330158
0.00151418
0.0133989
0.033602
0
0
0
0
0
0
0
0
0
0.225731
0
0
0
0
0
0
0
0
0
0
0
0
0
0
0.000485354
0.000242706
0.00143941
0.000692051
0.00240126
0.000995838
0.000492009
0.000764504
0.000762484
0.000419549
0.003011
0.00443606
0.0019466
0.00148488
0.00486976
0.00306802
0.00563294
0.00520439
0
0.0312373
0.0178537
0
0.00529008
0.0107824
0.00314814
0.00817176
0.00858895
0.00829268
0.0106642
0.0066511
0.0394776
0.0249646
0
0.0125167
0.0136962
0.0556949
0
0
0
0
0
0.0648415
0.00574043
0.0470976
0.00190746
0.0043575
0.0051691
0.00677925
0.00555056
0.00805066
0.0025336
0.00700185
0.00281465
0.00444879
0.00487182
0.00233672
0.00264966
0.00318937
0.00404507
0.00247373
0.00241955
0.00383573
0.00260579
0.00385182
0.00277003
0.0077296
0.00333096
0.00362057
0.00535056
0.000607913
0.00126585
0.00145065
0.000171693
0.0011372
0.00156372
0.000876326
0.00102146
0.000892928
0.0003027
0.000976694
0.000511545
0.000433692
0.00059623
0.000447104
0.000695489
0.000512415
0.000723671
0.000713969
0.000581881
0.000648897
0.000502993
0.00046212
0.000527443
0.000482877
0.000397237
0.000491674
0.000430624
0.000457618
0.000442981
0.000416181
0.000395526
0.000425471
0.000326521
0.000370485
0.000331633
0.000415384
0.00030051
0.000412751
0.000329743
0.000487837
0.000325486
0.000384895
0.000407787
0.000471013
0.000468838
0.00034497
0.000442453
0.000443312
0.000509994
0.000420641
0.00037825
0.00566641
0.00874545
0.00225448
0.00135844
0.00310072
0.00122149
0.00368671
0.165617
0.00702546
0
0
0
0
0
0
0
0.0125657
0
0
0
0
0
0
0
0
0
0
0
0
0
0
0
0
0
0.00689163
0
0
0
0
0
0
0
0
0.00859146
0
0
0
0
0
0
0
0
0
0
0
0
0
0
0
0
0
0
0
0
0
0
0
0
0.012936
0.0192333
0
0.0146828
0
0
0
0
0
0
0
0
0
0
0
0
0
0
0
0
0
0
0
0
0
0
0
0.000112793
0.000133128
0.000299579
0.000364908
0.00027071
0.000219029
0.00029721
0.000566237
0.000152018
0.00031884
4.64509e-05
0.000172614
0.000338593
0.000527006
0.000945681
0.000628253
0.00112522
0.00061984
0.000328296
0.000344524
0.000527624
0.000684984
0
0
0.0474007
0.0482258
0
0
0
0
0.0153392
0
0
0
0
0
0
0
0
0
0
0
0
0
0.00977112
0.00808596
0
0
0
0
0.0396916
0
0.00106735
0.000754957
0.00122204
0.000928205
0.00110835
0.000512747
0.000299783
0.000862055
0.00036116
0.000727963
0.000703746
0.000412715
0.00049795
0.000502868
0.0408705
0
0
0
0
0.000121019
0
0
4.63449e-05
0
0
0
0
0
0
0
0
0
0
0
0
0
0
0
0.511393
3.28687
0.00157841
0.00225345
0.0114974
0.010549
0
0
0
0
0
0.00465615
0
0
0
0
0
0
0
0
0.0492508
0.0427287
0
0
0
0
0
0
0
0
0
0
0.00131253
0
0.000550115
0.000688372
0.00150315
0.000665244
0.0019329
0.00183323
0.000593869
0.000599588
0.000584029
0.000527593
0.000464754
0.000599877
0.000594764
0.000418893
0.000537218
0.000481585
0.000404119
0.000487939
0.000473711
0.00055606
0.000552669
0.000492783
0.000556098
0.000464529
0.000452566
0.000498831
0.000447332
0.000381298
0.000475085
0.000561304
0.00158625
0.00212995
0.0017621
0.00229583
0.00593591
0.00812583
0.00190567
0.00170835
0
0.0468693
0
0.165184
0
0.00590354
0.0249172
0.0125949
0.0113325
0.0104546
0.0409781
0
0
0
0
0
0
0
0
0
0
0
0
0
0.0181117
0
0.00909404
0.055558
0.0155777
0.0054194
0.00450742
0.00892043
0.00637506
0.00581787
0.00239598
0.00626428
0.00367062
0.00315589
0.00169806
0.00420032
0.00458483
0.00311284
0.00278634
0.00142348
0.00371775
0.00375146
0.00257437
0.00335413
0.00345204
0.00177185
0.00155004
0.00142323
0.00132047
0.00120476
0.00135333
0.000705044
0.000912604
0.00086864
0.000978523
0.000440027
0.000705461
0.00103068
0.000668241
0.000717686
0.000673157
0.000469319
0.000682588
0.000671953
0.000430346
0.000438865
0.000405161
0.000439302
0.000342851
0.000387345
0.000315226
0.000410424
0.000313992
0.000412912
0.000274562
0.000367719
0.000355041
0.000281076
0.000315624
0.000370246
0.000412492
0.000345802
0.000407171
0.000446085
0.000454685
0.000419618
0.000405958
0.000459423
0.000423935
0.000425359
0.000464321
0
0
0.190335
0.022893
0
0.0334872
0.00499871
0.00880635
0.00629646
0
0
0
0
0.360697
0
0
0
0
0
0.0153078
0.0115621
0
0
0
0
0
0
0
0
0.00362281
0.0147764
0
0
0
0.00831135
0
0
0
0
0
0
0
0.00938804
0
0
0
0
0
0
0
0
0.000119204
0
0
0
0
0
0
0
0
0
0
0
0
0
0
0
0
0
0
0
0
0
0
0
0
0
0
0
0
0
0
0
0
0
0.000290145
0.000262337
0.000470504
0.000359214
0.000436005
0.000174931
0.000364413
0.00019868
0.000286008
0.000194232
0.000383902
0.000260897
0.000551056
0.00086269
0.00171738
0.00299455
0.00394959
0.00108406
7.3012e-05
0.000195485
0.000205966
0.000864861
0.00532442
0
0.0616491
0
0
0
0
0
0
0
0
0
0
0
0
0
0
0
0
0
0
0
0
0
0
0
0
0
0.0162066
0
0.0025481
0.000519301
0.000601728
0.00106979
0.000614354
0.000871525
0.00113265
0.000486966
0.00060078
0.000519771
0.000206481
0.00037623
0.000491683
0.000748813
0
0
0
0
0
0
0
0
0
0
0
0
0
0
0
0
0
0
0
0
0
0
0.460165
0
0
0
0
0
0
0
0
0.0246835
0.0596667
0.195287
0
0
0
0
0
0.00658461
0.134332
0.539371
0
0
0
0
0.0012854
0.00206001
0
0
0
0
0
0
0
0
0
0
0
0
0
0
0
0
0
0
0.000335574
0.000302266
0.00015938
0.000222894
0.0001852
0.000232342
0.00015573
0.000122792
0.000156852
9.16726e-05
0.000146545
9.00474e-05
0.000165195
0.000111114
0.000450052
0.000444997
0.00048125
0.000475898
0.000413494
0.000471266
0.00049468
0.000459406
0.000356243
0.000423219
0.000432052
0.00037911
0.000359836
0.000361154
0.000282776
0.00051327
0.000503337
0.000486894
0.000485818
0.000442914
0.00041642
0.000506757
0.000825284
0.000854859
0.00119562
0.00104201
0.000793184
0.000497868
0.000525803
0.000388652
0.000601821
0.000593606
0.000448759
0.000550195
0.00064242
0.000635562
0.000565686
0.000611713
0.000592805
0.000699666
0.000600649
0.00063534
0.000583507
0.000610096
0.000555992
0.000589989
0.000550914
0.000638503
0.00055286
0.000261468
0.00387325
0.0019822
0.00796114
0.00237472
0.00230416
0.00156771
0.00600145
0.00778683
0
0
0.000375323
0.000422613
0.000383904
0.000349094
0.000399081
0.000336686
0.000290102
0.000243753
0.000227352
0.00020851
0.000173413
0.000131928
9.97754e-05
0.000121422
0.000124347
0.000184244
0.000141975
0.000157651
0
0
0.00264601
0.0265947
1.2091
0.00349126
0.0424017
0
0.00229492
0
0.00615453
0.00931184
0
0
0
0
0
0
0
0
0
0
0.00704741
0
0.0379707
0
0.010972
0.024004
0.00363288
0.0122014
0.00266448
0.00459824
0.00418199
0.00330347
0.000645423
0.00344168
0.00206052
0.00331843
0.00301696
0.00199012
0.0023016
0.00285414
0.0013141
0.00312393
0.00172731
0.00215605
0.0023429
0.00183657
0.00120594
0.00117598
0.00123155
0.000924132
0.00119427
0.00164862
0.00130532
0.000581855
0.00155462
0.00148903
0.00130709
0.00103475
0.000949462
0.000523755
0.000779071
0.000885893
0.000576424
0.00044776
0.000466392
0.000483289
0.000393181
0.000425663
0.0003784
0.000323471
0.000345948
0.000399453
0.000364411
0.00026281
0.000304542
0.000208009
0.000245361
0.000313939
0.000329041
0.000317052
0.000366309
0.000382134
0.000427884
0
0
7.15019
0
0
0
0
0
0
0
0
0
0
0
0.00764989
0
0
0
0
0.0238838
0
0
0
0
0
0
0
0
0.00329305
0.00372245
0.0335902
0
0.000750724
0
0
0
0
0
0
0
0
0
0.0121863
0
0
0
0
0
0
0
0
0.197801
0
0
0
0
0
0
0
0
0
0
0
0
0.00440669
0
0
0
0
0.01297
0
0
0
0
0
0
0
0
0
0
0
0
0
0
0
0
0
0
0
0.00257329
0
0
0
0
0.00293529
0.000207068
0.000179404
0.000314519
0.000285969
0.000174019
0.000160233
0.000299002
0.00033424
0.000242402
0.000298133
0.000263001
9.95748e-05
0.000212298
0.000401728
0.000398158
0.000211703
0.000733721
0.000547733
0.000267697
0.000308574
0.00110304
0.00320694
0.00239375
0.000393414
0.0010406
0
0
0
0
0
0
0
0
0
0
0
0
0
0
0
0
0
0
0
0
0
0
0
0
0
0
0
0.0185454
0.00373175
0.000291326
0.000850552
0.000156713
8.32536e-05
0.000375494
0.00134291
0.00100658
0.00067789
0.000324074
0.000315121
0.000859138
0.000370354
0.000194058
0.000414574
0
0.00105297
0
0
0
0
0
0
0
0
0
0
0
0
0
0
0
0
0
0
0
0
0
0
0
0
0
0
0
0
0
0
0
0
0
0
0
0.0218785
0.00629692
0.00582619
0
0
0
0
0
0
0
0
0.287633
0
0
0
0
0
0
0
0
0
0
0
0
0
0
0
0
0
0
0
0
0
0
0
0
0
0.000353137
0.000265438
0.000303984
0.000189008
0.000133355
0.000201962
0.000355
8.21093e-05
0.000481406
0.000416778
0.000461086
0.000494121
0.000490757
0.00043447
0.000387746
0.000444662
0.000604467
0.00059593
0.000552537
0.000531635
0.000447896
0.000455314
0.000515734
0.00079746
0.000708799
0.000248923
0.00101737
0.000281199
0.000447026
0.000356729
0.00070382
0.000595709
0.000579807
0.000794838
0.000488748
0.00071148
0.000725085
0.000619445
0.000682482
0.000676207
0.000739642
0.000720697
0.00078095
0.000682911
0.000769325
0.000669665
0.000664192
0.000575519
0.000734509
0.000636767
0.00065761
0.000646489
0.000550115
0.00941343
0.00381677
0.00221257
0.00124869
0.00674975
0.00491523
0.00191531
0.00266063
0.0136237
0.0240606
0
0.0699823
0.000332295
0.000324676
0.000368352
0.00031414
0.000321353
0.000288151
0.00024191
0.000222857
0.000190582
0.000199989
0.000155355
0.000139576
0.000136829
0.000118232
0.000103711
0.000107129
0.000170045
8.80978e-05
0.000178967
0.000218947
0.000209195
0.000182007
0.000195779
0.000168376
8.39846e-05
0.00402347
0.00977198
0.00545611
0
0
0
0
0
0
0
0
0
0
0
0
0
0
0
0
0
0.00393356
0
0
0
0.0316582
0.0224632
0.685445
0.0561784
0.0021848
0.00607728
0.00376433
0.00473621
0.00168246
0.00178408
0.00233464
0.00196466
0.00162153
0.00168629
0.0020102
0.00143414
0.0018531
0.00217042
0.00223848
0.00186219
0.00118603
0.00167727
0.00160095
0.00140988
0.00232395
0.00169018
0.000795762
0.0011907
0.00119208
0.0011123
0.00144738
0.00151143
0.00138069
0.000895925
0.00100151
0.000701846
0.000622565
0.000687345
0.000517132
0.000519755
0.000486522
0.000462342
0.00048935
0.000401541
0.000385007
0.000370662
0.000366529
0.000290923
0.00031635
0.000163136
0.000256826
0.000134638
0.000242999
0.000281817
0.000248135
0.000287527
0.00032652
0.00037871
0
0
0
0
0
0
0
0
0
0
0
0
0
0
0
0
0
0
0
0
0
0
0
0
0
0
0
0
0.00854855
0.00223796
0
0
0
0
0
0
0
0
0
0
0
0
0.285479
0
0
0
0
0
0.00978087
0
0
0.446851
0
0
0
0.00658383
0.00396048
0
0
0
0
0
0
0
0.00885245
0.00817654
0
0
0.00950156
0.0132861
0
0
0
0
0.00713324
0
0.00976463
0
0
0
0
0
0
0
0
0
0
0
0
0
0
0
0
0
0.00446038
0
0
0
0
0
0
0
0
0.000213642
0.000211592
6.57e-05
1.89175e-05
0.000196414
0.000111902
5.09279e-05
0.000190375
2.25821e-05
0.000168032
0.000553558
0.000466829
0.000929387
0.000213161
0.000456829
0.000259483
0.000575978
0.000407579
0.000608378
0.000314075
0.000572495
0.000628535
0.00216289
0.00202519
0.00907014
0.00496793
0.00500185
0
0
0
0
0
0
0
0.00223684
0.0460773
0
0
0
0
0
0
0
0
0
0
0.000101778
0
0
0
0
0
0.000253373
0.000692383
0.000333153
0.00820216
0.000833899
0.00198113
0.00118697
0.00057187
0.000536846
0.000383283
0.00103228
0.0010368
0.000511367
0.000509196
0.000439118
0.000498211
0
0
0.000991906
0
0
0
0
0.000164895
0
0
0
0
0
0
0
0.0111722
0
0.00486589
0.00837065
0
0
0
0
0
0
0
0
0
0
0
0.0126509
0
0
0
0
0
0
0
0
0
0
0
0
0
0.00391652
0.0076518
0.0201876
0.00645968
0
0
0
0
0
0
0.00145251
0
0
0.000386265
0
0
0
0
0
0
0
0.00327754
0
0
0
0
0
0
0
0.00292361
0
0.0046631
0
0
0
0
0
0
0
0.0038789
0.000204507
0.0002856
0.000237153
0.000181717
0.000153106
0.000327826
0.000229572
0.000341846
0.000119447
0.000253574
0.000393158
0.000178754
5.93475e-05
0.000163359
0.000451771
0.000470736
0.000434835
0.000484161
0.000450566
0.000465525
0.000372103
0.000402824
0.000647704
0.000603075
0.000556363
0.00059815
0.000523026
0.000530106
0.000516186
0.000700084
0.000541484
0.000280359
0.000385524
0.00119456
0.000477379
0.000432679
0.000700139
0.000677675
0.000612385
0.000672612
0.000689354
0.000677162
0.000749971
0.000808389
0.000760501
0.000623893
0.000692154
0.000686367
0.000685822
0.000647168
0.000533998
0.000672203
0.000599309
0.000582962
0.000562076
0.000636952
0.000521182
0.000637811
0.0050085
0.00389121
0.000610079
0.000417464
0.00233324
0.00255323
0.00163796
0.00147451
0.00909146
0.00468682
0.0208964
0
0.000249981
0.000231291
0.000255858
0.000238772
0.000229952
0.000214886
0.000191753
0.000143398
0.000165885
0.000143229
0.000190236
0.000150768
0.000146722
0.000111946
0.000177352
0.000115124
0.000177182
0.000134844
0.000126507
0.000139749
0.000168096
0.000146972
0.000176125
0.000134247
9.15191e-05
0
0
0
0
0
0
0
0
0
0
0
0
0
0
0
0
0.00395524
0
0
0
0
0
0
0
0.00945744
0.0336616
0.0685878
0
0.00745924
0.00291464
0.00285557
0.00553171
0.00287791
0.00116011
0.00107561
0.00130295
0.00169327
0.00165615
0.00216501
0.0021498
0.00203657
0.0020415
0.00115481
0.00134965
0.0016132
0.00210255
0.00164607
0.00137014
0.001409
0.00136321
0.00141487
0.00137931
0.00149829
0.0013701
0.000783937
0.00148971
0.00101879
0.000850024
0.000882738
0.000709906
0.00066842
0.00054988
0.000566165
0.000530587
0.000517765
0.000462355
0.000445609
0.000384669
0.000296322
0.000368149
0.000194488
0.000182481
6.9009e-05
0.000167037
0.000121336
0.000214038
0.000265371
0.000199496
0.000169084
0
0
0.132443
0.000201237
0
0
0
0
0
0
0
0.0234878
0.0237864
0.0354475
0.0259205
0.0161312
0.0253217
0
0.0214508
0.017636
0
0
0
0.0034489
0
0.00498882
0.00985448
0
0
0
0
0
0
0
0
0.000138526
0
0
0
0
0
0
0.436355
0
0
0
0
0
0
0
0
0
0
0
0
0
0
0
0
0
0
0
0
0
0
0
0
0
0
0
0
0
0
0
0
0
0
0
0
0
0
0
0
0
0
0
0
0
0
0
0
0
0
0
0
0
0
0
0
0
0
0
0
0
0
0
0
0
0
0
0
0
0.000142815
0
0
0
0
2.0288e-05
0.000156656
3.28152e-05
7.8874e-05
0.000259092
6.15079e-06
8.30203e-05
8.11295e-05
0.000122618
0.000117053
0.000379478
0.000228102
0.000396346
0.00026428
0.000243204
0.00077734
0.00110136
0.000176597
0.000329799
0.00113855
0.000101555
0.000420075
0.000896241
0.000799644
0.00221144
0.00331377
0.00556826
0.00581163
0.00618057
0
0
0
0
0
0.0149039
0
0
0
0
0
0
0
0
0
0
0
0.00986024
0.0141735
0
0.0164283
0
0
0
0.000184945
0.000303538
0.000845738
0.000552617
0.000566615
0.00943265
0.00166906
0.0029948
0.00124862
0.000633291
0.000714307
0.000729103
0.00132305
0.000366993
0.000913207
0.000178943
0
0.00351164
0
0
0
0
0
0.000157416
0
0
0.000176478
0
0
0
0.00140404
0
0
0
0
0
0
0
0
0
0
0
0
0
0
0
0
0
0
0
0
0
0.00448123
0
0.0137972
0
0
0
0
0
0
0
0
0
0
0
0
0
0
0
0
0
0
0.010196
0
0
0
0
0
0
0
0
0
0
0
0
0
0
0
0
0
0
0
0
0
0
0
0
0
0
0
0
0
0
0
0
0.00683288
0.00798129
0
0
0
0
0
0
0.000242286
0.000547533
0.00032764
0.000804744
4.31612e-05
0.000607578
0.000421662
0.000851759
0.000596821
0.000124013
0.000278929
0.000219048
0.000211437
0.000465593
0.000462635
0.0004065
0.000399115
0.000419798
0.000406721
0.000369986
0.000370095
0.000592436
0.000636374
0.00055922
0.000533571
0.000573593
0.000478829
0.000487143
0.000545513
0.000788049
0.000403685
0.000570143
0.000979705
0.00041261
0.000704317
0.00070707
0.000831826
0.000647012
0.000723168
0.00067067
0.000585785
0.0007609
0.000771142
0.000565137
0.000503178
0.000469571
0.000567569
0.000542442
0.000432589
0.00062613
0.000351356
0.000723915
0.000691953
0.000522667
0.000497343
0.000472308
0.000600337
0.0133896
0.00420243
0.000371646
0.000684957
0.000116157
0.00181171
0.000475912
0.0010253
0.00570531
0.0190261
0.0320259
0.00766676
0
0
0
0.000290127
0.000170928
0.000163569
0.000136722
0.000110655
0.000160493
0.000150068
0.00014107
0.000180293
0.000150492
0.000181463
0.000170434
0.000126934
0.000176286
0.000132981
0.000128509
0.000130908
0.000169177
0.000157644
0.000110361
0.00012601
7.62249e-05
0.000199288
0.000187796
9.07062e-05
9.51986e-05
0
0
0
0
0
0.0112083
0.0279928
0
0
0
0
0.00409815
0.00572548
0
0
0
0
0
0
0
0
0
0
0
0
0.0186399
0.00583956
0
0.0039291
0.0134643
0.0040334
0.00212485
0.00244735
0.00272766
0.00319286
0.00220041
0.00280632
0.00335268
0.00173662
0.00205664
0.00269934
0.00201887
0.00129576
0.001219
0.0015795
0.00169129
0.00205056
0.00127253
0.00144904
0.00122639
0.00115918
0.00158024
0.00121597
0.00118161
0.000902726
0.00103815
0.000932262
0.00094669
0.000792499
0.000706635
0.000585965
0.000603725
0.000560234
0.000539329
0.000443556
0.000492873
0.000324974
0.000393473
0.000182554
0.000167433
8.51459e-05
0.000119052
5.17173e-05
0.000108966
0.000138086
0.000125902
0.000175624
0.000170543
0
0
0
0
0
0
0
0
0
0.0294732
0
0
0
0.0282664
0.0175957
0.0145163
0.0213222
0.0200894
0.0103486
0
0
0
0
0
0
0
0
0
0
0
0
0
0
0
0
7.05584e-05
0
0
0
0.174078
0
0
0
0
0
0
0
0
0
0
0
0
0
0
0
0
0
0
0.0848846
0
0
0
0
0
0.0025991
0.00193739
0.00464609
0
0
0
0
0
0
0
0
0
0
0
0
0
0
0
0
0
0
0
0
0
0
0
0
0
0
0
0
0
0
0
0
0
0
0
0
0
0
0
0
0
0.00715449
0
0.00277388
0
0
0.00239331
0
0
2.59534e-05
4.54425e-05
0.000143946
0.000131052
6.88077e-05
0.000288909
0.000118832
0.00014322
9.24353e-05
0.000248175
0.000177484
0.000237025
0.00032591
0.000126092
3.02191e-05
0.000131794
0.000126142
8.33552e-05
8.44825e-06
0.000408222
0.00032218
0.000706077
0.000540814
0.000634266
0.000860696
0.000928425
0.00244169
0.00287721
0.00433608
0.00693858
0.00490566
0.00464431
0.0087773
0
0
0
0.0155224
0
0
0
0.0187099
0
0
0
0
0
0
0
0
0
0
0
0
0.00986568
0
0
0
0.000187519
0.000299861
0.000406199
0.000302411
0.00530693
0.00718995
0.00143686
0.0028457
0.000202966
0.00128715
0.00114668
0.00173489
0.00103624
0
0
0
0
0
0
0.0161561
0.00702719
0
0
0
0
0
0
0
0
0
0.0111535
0
0
0
0
0
0
0
0.00154452
0
0
0.0258865
0
0
0
0
0
0
0
0
0
0
0
0
0
0
0
0
0
0
0
0
0
0
0.00249654
0
0
0
0
0
0
0
0
0
0
0
0
0
0
0
0.000248947
0
0
0
0.00725551
0
0
0
0
0
0
0
0
0
0
0
0
0
0
0
0
0
0
0
0
0
0
0
0
0
0.0041213
0
0
0
0
0
0
0
0
0.000469441
0.000600233
0.00121994
0.00078992
0.000235581
0.000303679
0.000430319
0.000240765
0.000107522
0.000188843
0.000147975
8.09631e-05
9.30405e-05
7.10202e-05
0.000422632
0.000409391
0.000387874
0.000356812
0.000366867
0.000379963
0.000381994
0.000624962
0.000545053
0.000476262
0.000415144
0.000546862
0.000480799
0.000479528
0.000503234
0.000695525
0.000566203
0.000336686
0.000882351
0.000527086
0.000814935
0.000455846
0.000890308
0.000674351
0.000585518
0.000744236
0.000508808
0.000453038
0.000710948
0.000494378
0.000380935
0.000292956
0.000380338
4.74099e-05
0.000502828
0.000271503
0.000542204
0.000560524
0.000531397
0.000133578
0.000329247
0.000389261
0.000294914
0.000348749
0.00325056
0.014438
0.00131016
0.00168327
0.00262836
0.00135782
0.000900722
0.00121488
0.00870187
0.00219547
0.0401615
0.0262777
0
0.0267213
0.000184563
0.000103588
7.56218e-05
0.000166493
0.000199378
0.000189946
0.000180824
0.000202703
0.000198922
0.000227238
0.000164975
0.000192526
0.000171264
0.000133342
0.000152907
0.000129156
0.000126295
0.000141174
0.000153554
9.51454e-05
8.58883e-05
0.000223273
0.000236096
6.91315e-05
9.44393e-05
0
0
0
0
0
0
0
0
0
0.00451624
0
0
0
0
0
0.000148206
0.000163738
0
0
0
0
0
0
0
0
0.143195
0.0764397
0.00387797
0.00821942
0.00302978
0.000719267
0.0041888
0.00192772
0.00508349
0.00385269
0.00182287
0.00373482
0.00220557
0.00210593
0.00180123
0.0025679
0.00231749
0.00168922
0.00139172
0.00100425
0.0017054
0.00230197
0.0011685
0.00122215
0.00117824
0.000865052
0.000879388
0.00108946
0.00102731
0.00069163
0.000923474
0.000775252
0.000812277
0.000612818
0.000610003
0.000560831
0.000541153
0.000477877
0.000453051
0.000353928
0.000320951
0.000157661
0.000148565
9.74673e-05
5.76141e-05
8.30123e-05
7.14736e-05
8.9928e-05
4.05429e-05
6.7001e-05
0.000106822
0.000151403
8.04735e-05
0
0
0
0
0
0
0
0
0
0.000543329
0
0
0
0
0
0
0
0.0262879
0
0
0.0218949
0
0
0
0.0036883
0
0
0
0
0
0.00135535
0
0
0
0
0
0
0
0
0
0
0
0
0
0
0
0.0161863
0.0106632
0.0118572
0
0
0
0
0.00361826
0
0
0.004299
0
0
0
0
0.00690895
0
0.00372919
0
0
0
0
0
0
0
0
0
0
0
0
0
0
0
0
0
0
0
0
0
0
0
0
0
0
0
0
0
0
0
0
0
0
0
0
0
0
0
0
0
0
0
0
0
0
0
0
0
0
0
0
0
0.0030799
0
0
0
0.0135065
0
0
6.63074e-05
7.71742e-05
0.000122965
0.000163463
0.000205096
0.000101917
6.29512e-05
0.000128017
4.58744e-05
0.000119737
9.87708e-05
0.000275055
0.000386199
4.32137e-05
6.95881e-05
2.75741e-05
0.000275406
4.61302e-05
4.5898e-05
0.000138593
0.000124889
6.57028e-05
9.28416e-05
0.000127154
0.00361511
0.000467578
0.00207818
0.00170334
0.000374406
0.0066709
0.0083947
0.00823995
0.00103686
0.00316023
0.00743395
0.0270154
0.0516397
0
0
0.0723611
0.00951673
0
0
0.00553345
0
0
0
0
0.00024478
0
0
0
0.000151574
0
0
0
0.00164601
0
0
0
0
0.000700862
0.000607121
0.00199917
0.00161923
0.00312061
0.00226957
0.00263488
0.0029854
0.00043304
0.00203358
0.00143968
0.00142057
0
0
0.000635232
0
0
0.00121095
0.000656806
0
0
0
0
0
0
0
0
0.0159302
0.0292665
0
0
0.00758663
0
0.00234153
0
0
0
0
0.0241471
0
0.00726194
0.0169016
0
0
0
0
0
0
0
0
0
0
0
0
0
0
0
0
0
0
0.0195468
0
0
0
0
0
0
0
0
0
0
0
0
0
0
0
0
0
0
0
0
0
0
0
0
0
0
0.00202301
0.00473956
0
0
0
0
0
0
0
0
0.00179417
0
0
0
0
0
0
0.001219
0
0
0
0
0
0
0
0
0
0
0
0
0
0
0
0
0
0
0
0
0
0
0
0
0.000221494
0.000780342
0.000106863
0.000260683
0.000140739
0.000290209
5.56098e-05
0.000208187
0.000175144
0.000103418
0.000158718
0.000197829
0.000196426
0.000104292
0.00013388
0.000399397
0.000360465
0.000391347
0.000378578
0.000342818
0.000418126
0.000410504
0.000476881
0.000470258
0.000265902
0.000242562
0.00035025
0.000418681
0.000400083
0.000829032
0.000579367
0.000523451
0.000429712
0.000967375
0.000642664
0.000744824
0.000610699
0.000493243
0.000447151
0.000494981
0.000658299
0.000278593
0.000207332
0.000208006
0.000274638
9.31704e-05
7.59458e-05
0.000215683
0.000301228
0.000507062
0.000482266
0.000735407
0.000876417
9.90239e-05
0.000387011
0.000266846
0.000255447
5.32215e-05
0.00101791
0.0189002
0.00281886
0.00285558
0.00398511
0.0018563
0.000713801
0.00217783
0.00886654
0.00298531
0.0449779
0.01185
0.012409
0.0114498
0.000205178
5.81387e-05
0.000202313
0.000149842
0.000202107
0.000219532
0.000238095
0.000219159
0.000238602
0.000193706
0.000204722
0.000187818
0.000176249
0.000161597
0.000106571
0.000135465
8.82549e-05
0.000138707
0.00010026
6.49877e-05
0.000246193
0.000241018
0.000133395
1.81092e-05
0.00739348
0.0109444
0.0149326
0
0
0
0
0
0
0
0
0
0
0
0
0
0
0
0
0
0
0
0
0
0.422436
0.0199638
0.0193925
0.00726437
0.00843354
0.00241226
0.0074993
0.00348491
0.00384963
0.00238045
0.00283308
0.00367518
0.00289442
0.0022418
0.00202544
0.00225954
0.00184667
0.00238489
0.00198091
0.0019774
0.00154278
0.00103426
0.00182301
0.00115594
0.00138955
0.0013705
0.000762208
0.000852439
0.00107407
0.00101646
0.000776937
0.00089765
0.000737929
0.000697291
0.000612886
0.000600261
0.000566487
0.000486116
0.00039751
0.000314682
0.00016953
0.000148095
8.86079e-05
9.27196e-05
5.77429e-05
7.59047e-05
7.94606e-05
0.000104068
0.000132262
8.73499e-05
9.95559e-05
0.000146622
0.000157569
0.000110099
0.0100785
0.00394952
0
0
0
0
0
0
0
0
0
0.00228626
0
0.00326255
0
0.00102146
0.00726293
0
0
0
0
0
0
0
0
0
0
0
0
0.0018531
0
0
0
0
0
0
0
0
0.00837587
0.00529673
0
0
0.00356159
0
0
0
0.00514718
0
0
0
0
0
0
0
0.0101045
0
0
0
0
0
0
0
0
0
0
0.0124748
0
0
0
0
0
0
0
0
0
0.000125094
0
0
0
0
0.000628118
0
0
0
0
0
0
0
0
0
0
0
0
0
0
0
0
0
0
0
0
0
0
0
0
0
0
0
0
0
0
0
0
0
0
0
0
0
0
0
0
0
0
0
0
0
5.60177e-05
9.2784e-05
0.000180848
8.42266e-05
6.23951e-05
0.000138597
0.000127974
5.19318e-05
8.42407e-05
1.5295e-05
9.80373e-05
0.000129513
0.000174239
9.33051e-05
3.82211e-05
4.76744e-05
8.76168e-05
2.42941e-05
0.000120224
0.000126771
0.000211524
0.000160537
0.000162475
0.000107283
0.000102273
0.000102523
8.33092e-05
0.00106945
0.0033989
0.00365742
0.00725964
0.00558062
0.00266551
0.00275653
0.00588385
0.0422319
0.0387202
0
0
0
0.00727999
0.0225943
0.490631
0
0
0.0007176
0
0
0
0
0
5.23101e-05
0