/*--------------------------------*- C++ -*----------------------------------*\
  =========                 |
  \\      /  F ield         | OpenFOAM: The Open Source CFD Toolbox
   \\    /   O peration     | Website:  https://openfoam.org
    \\  /    A nd           | Version:  8
     \\/     M anipulation  |
\*---------------------------------------------------------------------------*/
FoamFile
{
    version     2.0;
    format      ascii;
    class       volScalarField;
    location    "11820";
    object      nut;
}
// * * * * * * * * * * * * * * * * * * * * * * * * * * * * * * * * * * * * * //

dimensions      [0 2 -1 0 0 0 0];

internalField   nonuniform List<scalar> 
526318
(
7.92134e-05
0.000128391
0.00024204
5.14276e-05
9.51825e-05
0.000146057
0.000253499
0.000173646
7.55746e-05
9.1242e-05
5.02741e-05
4.27074e-05
0.000122744
0.000116821
4.29714e-05
9.48122e-05
0.000173494
0.000167607
5.52972e-05
6.45949e-05
0.000106143
0.000165832
0.00022029
0.000196085
6.72132e-05
8.60837e-05
3.00379e-05
0.000295369
0.000109556
7.05612e-05
0.0001526
0.000163873
0.000193003
0.000204897
0.000248538
5.46362e-05
0.000194884
3.30921e-05
6.93323e-05
0.000153392
0.000162471
0.000202811
6.74712e-05
9.01517e-05
0.000130159
0.000137553
7.98395e-05
3.28615e-05
0.000125778
0.00013302
0.000152952
4.61782e-05
4.02819e-05
8.77217e-05
0
8.78071e-05
3.03509e-05
1.88569e-06
0.00013148
0.000194598
0.000140555
0.000131266
0.00025633
0.000113877
0.000176279
8.54284e-05
0.000213909
8.23312e-05
0.000165961
0.00020951
0.000103877
6.82022e-05
0.000133884
0.000137134
2.17474e-05
6.00761e-05
0.000233916
0.000212698
0.000158162
0.000201482
0.000178629
0.000169786
0.000101288
0.000221379
0.000135498
5.60648e-05
0.000103329
9.68002e-05
4.43924e-05
0.000184026
5.05701e-05
0.000140424
0.000108711
3.75566e-05
2.54778e-05
8.72752e-05
2.41595e-05
4.29687e-05
2.32066e-05
1.97556e-05
0
0
0
0
0
0
3.0807e-05
1.7779e-05
0.000181582
9.58431e-05
9.03125e-05
0.000149814
0.000186353
9.06826e-05
1.6244e-06
0.00016975
8.98916e-05
0.000139831
0.000186686
2.9164e-05
3.34976e-05
4.1773e-05
4.40902e-05
8.21462e-05
1.74308e-05
6.42729e-06
6.77702e-05
1.97522e-05
5.93532e-06
2.74953e-05
1.2223e-05
3.00265e-05
2.39829e-05
2.90624e-05
3.06298e-05
4.35851e-05
5.07045e-05
3.07647e-05
7.39811e-06
1.13627e-05
1.28686e-05
3.56902e-05
2.34864e-05
3.66244e-05
9.016e-06
1.97783e-05
2.78075e-05
7.30092e-06
5.76955e-06
2.21376e-05
2.41858e-05
3.76018e-05
1.42564e-05
2.62823e-05
3.25371e-05
3.83324e-05
2.52428e-05
1.98933e-05
3.68504e-05
0
3.36445e-05
1.78953e-05
4.92146e-05
0.000163102
0.000109242
0.000151134
3.55111e-05
0.000123912
8.77988e-05
1.32322e-05
0.000110577
0.000122387
0.000180253
0.000117578
0.000197706
4.10859e-05
6.91116e-05
0.00010205
1.69404e-05
1.14555e-05
7.6074e-05
4.73261e-05
5.37032e-05
1.61452e-05
3.8115e-05
3.37705e-05
6.571e-06
5.08031e-05
2.25995e-05
2.71186e-05
5.26317e-05
6.33962e-05
4.10605e-05
5.10758e-05
4.65348e-06
4.01805e-05
4.96804e-05
3.84367e-05
2.71629e-05
1.30702e-05
4.47209e-05
5.65734e-05
3.19668e-05
4.63149e-05
4.72529e-05
2.66337e-05
3.37524e-05
5.05828e-05
2.7496e-05
4.50653e-05
0.000117341
0.000235744
0.000100634
0.000209318
0.000204667
6.08848e-05
4.16009e-05
5.28663e-05
3.35631e-05
4.55853e-05
8.25242e-05
8.50751e-05
0.000116029
4.72362e-05
5.01112e-05
3.31064e-05
4.95911e-05
2.201e-05
4.42075e-05
0
0
0
7.35371e-05
0
0
0
0
0
0
0.000139912
0.000233652
0.000185863
0.000179471
0.000122315
0.00014569
0.00022648
0.000217703
0.000280897
0.000218499
0.000166438
0.000136587
8.22048e-05
0.000127982
6.3389e-05
0.000117096
2.79936e-05
6.02857e-05
2.23677e-05
4.64903e-05
1.92182e-05
2.14449e-05
0
0
0
0
0
0
0
0
0.000129238
9.41079e-05
0.000105319
0.000121514
5.56361e-05
0.000165185
6.3849e-05
0.000144756
0.000188148
9.20173e-05
0.000173605
8.6157e-05
4.46288e-05
7.05136e-06
3.6027e-05
3.28552e-05
1.52615e-05
1.91847e-05
2.31667e-05
9.0947e-06
1.04453e-05
1.49824e-05
2.21619e-05
1.49458e-05
0
1.35633e-05
9.72059e-06
3.00082e-05
9.10572e-05
3.69282e-06
5.75687e-05
3.68558e-05
4.97905e-06
0
5.31321e-06
7.20212e-05
1.14704e-05
1.20907e-05
2.48589e-05
4.965e-05
2.23008e-05
0
0
0
0
0
0
1.36606e-05
6.06759e-05
4.05078e-05
2.30598e-05
6.2104e-05
0.000158383
0.000133294
0.00013172
4.93369e-05
0.000169601
0.000155488
0.000104866
0.000165252
0.000187256
0.000213468
6.50273e-05
5.99048e-05
2.79809e-05
7.03371e-05
1.45079e-05
3.45098e-05
2.61193e-05
3.30435e-05
1.04082e-05
1.33605e-05
2.43522e-05
2.65904e-05
4.8125e-05
2.94062e-05
4.00017e-05
3.39956e-06
3.8063e-05
4.36631e-05
3.97331e-05
2.59981e-05
2.25097e-06
4.87444e-05
1.62985e-05
8.76206e-05
3.16222e-05
9.91837e-05
2.74552e-05
3.68141e-05
7.78969e-05
5.01166e-05
9.19168e-05
8.96391e-05
9.90551e-05
5.61247e-05
2.27001e-05
6.53992e-05
9.07726e-05
4.40655e-05
5.6669e-05
0.000110013
2.30062e-05
8.10691e-05
5.06733e-05
7.30257e-05
4.43759e-05
8.01236e-05
0.000112695
9.14904e-05
0.00016464
9.39072e-05
0.000137034
0.000105131
0.000106608
0.000121854
0.000124185
7.60966e-05
0.000103312
6.0276e-05
2.9459e-05
1.67479e-05
1.41966e-05
2.03168e-05
4.92026e-05
4.916e-05
7.6839e-05
4.38968e-05
1.39122e-05
3.52379e-05
0
0
0
0
0
0
0
0
0
0
0
0
0
0
0
0
0.000125737
0.000140412
0.000106286
9.3395e-05
0.000198192
0.000109284
0.000205127
0.000212649
0.000157611
0.000157266
9.181e-05
9.11399e-05
5.96038e-05
5.23948e-05
3.82969e-05
3.63755e-05
3.3663e-05
3.51151e-05
2.12655e-05
2.91787e-05
1.04017e-05
2.59887e-05
0
6.70897e-10
2.80994e-10
0
0
0
0
3.34806e-10
7.98685e-10
8.16361e-10
0
0
0
0
0
0
0
0
0
0
0
0
0
0
1.29938e-05
0
0.000112718
0.000141786
6.97777e-05
8.99746e-05
0.000148529
9.08846e-05
9.96555e-05
0.000112897
0.000172446
9.76347e-05
0.000140379
2.74719e-05
3.06197e-05
2.68008e-05
2.42111e-05
2.43726e-05
3.26627e-05
1.43717e-05
8.99785e-06
5.00178e-06
1.89019e-05
8.93255e-06
1.30523e-05
8.12117e-06
0
0
5.95037e-06
4.70127e-06
0
9.93156e-06
1.53976e-05
2.37712e-05
0
0
0
0
0
0
0
0
0
0
0
0.000111471
5.78764e-05
2.64235e-05
2.76795e-05
6.02684e-06
3.89037e-05
0.00011006
8.79164e-05
7.49976e-05
9.53877e-05
2.3806e-05
1.39137e-05
4.6514e-05
3.00398e-06
2.08077e-05
7.78221e-05
7.34649e-05
5.82216e-05
0.000120542
0.0001585
9.05943e-05
0.000173035
0.000186374
0.000171151
0.000121521
0.000280869
0.000111463
7.55824e-05
7.16085e-05
4.17815e-05
2.33691e-05
5.23295e-05
1.2369e-05
0
0
1.0378e-05
6.22242e-06
6.18993e-05
3.67522e-05
1.77847e-05
1.63124e-05
4.04525e-05
1.79335e-05
4.13808e-05
4.24217e-05
5.25443e-05
3.5198e-05
7.20651e-05
0.000105201
6.28612e-05
2.89944e-05
4.40117e-05
3.90401e-05
3.91146e-05
6.11667e-05
4.83558e-05
6.26257e-05
5.24041e-05
6.5715e-05
5.74434e-05
5.74163e-05
2.63551e-05
0.000104388
4.60235e-05
0.000113233
7.55691e-05
0.000138834
4.91853e-05
0.000108753
7.26508e-05
9.10704e-05
7.03543e-05
0.000134417
3.56245e-05
0.000101808
3.82319e-05
9.27059e-05
5.80654e-05
0.000116161
8.95401e-05
5.111e-05
8.26241e-05
0.000106809
0.000140636
0.000136379
0.000180757
0
0
1.8321e-05
1.27411e-05
7.01901e-05
9.13241e-05
7.57375e-05
8.01332e-05
3.0694e-05
1.39439e-05
0
0
0
0
0
0
0
0
0
0
0
0
0
0
0
0
0
0
0
0
0
0
0
0
0
0
2.25961e-09
0
4.4586e-10
0
9.52827e-10
2.44798e-09
0
0
0
0
0
0
0
0
0
0
0
0
0
0
5.16558e-05
8.09509e-05
0.000106068
2.28598e-05
0.000150342
6.11626e-05
0.000112864
1.2295e-05
4.35446e-05
8.05358e-05
5.17414e-05
3.26732e-05
2.1937e-05
3.63934e-05
4.20156e-05
1.42659e-05
4.30376e-05
3.40305e-05
1.87552e-05
1.8373e-05
3.01787e-05
4.20149e-05
0
0
0
0
0
0
0
0
5.02602e-09
0
0
0
0
0
0
0
0
0
0
0
0
0
0
0
0
0
0
0
0
0
0
0
0
0
7.61163e-05
1.6421e-05
7.14001e-05
0.000123271
8.96177e-05
4.26561e-05
0.000133918
7.73377e-05
4.01952e-05
0.000156297
0.000195493
4.35729e-05
0.000104695
0.00015351
8.39713e-10
0
0
0
0
0
0
0
0
0
0
0
0
0
0
0
0
2.72411e-05
3.7262e-05
1.49228e-05
1.71039e-05
7.36783e-06
8.11975e-06
6.49037e-06
1.03384e-05
0
0
0
0
0
0
0
0
0
2.77733e-06
0
0
0
0
0
0
0
0
0
0
0
0
0
0
4.88447e-05
2.04706e-05
0.000153488
7.5798e-05
0.000212019
6.45624e-05
7.43726e-05
0.000124904
0.000160195
9.03233e-05
3.66066e-05
8.72014e-05
6.27522e-05
8.54393e-05
6.16601e-05
1.44577e-05
5.67391e-05
4.61762e-05
0
1.3037e-05
4.97622e-05
0
8.63591e-05
0.000179968
5.16186e-05
0.000135593
0.000180942
0.000135852
0.000205459
0.000149781
0.000143139
8.29202e-05
0
2.63399e-05
2.44905e-05
1.25049e-05
0
0
0
0
0
1.03037e-05
1.78615e-05
4.56159e-06
5.30331e-06
3.44444e-05
4.23382e-05
5.73951e-05
5.06289e-05
6.87983e-05
2.97152e-05
7.61637e-05
3.56834e-05
5.86253e-05
8.19512e-05
3.38401e-05
4.99251e-05
6.38362e-05
8.11888e-05
5.04104e-05
5.21546e-05
8.32405e-05
8.32917e-05
8.81162e-05
4.70868e-05
0.000135841
0.000105146
8.86832e-05
0.000140026
2.04258e-05
6.05887e-05
7.19141e-05
8.10585e-06
5.48095e-05
9.34256e-05
7.21777e-05
0.00011523
0.000111804
3.86621e-05
0.0001136
0.000105958
7.01661e-05
0.000154339
0.000131587
0.000201512
0.000165675
0.000276468
0.000181132
0.000191295
0.000230842
0.000215044
0.000223157
0.000274293
0.000260878
0.000230062
0.000251888
0.000251322
0.000241392
0.000278066
0.000262825
0.000277159
0.000278263
0.000243007
0.000293059
0.000256908
0.00028951
0.000239442
0.0003439
0.000256999
0.000377192
0.000285725
0.000322212
0.000363874
0.00037426
0.000372641
0.000309188
0.000375288
0.000343217
0.000394373
0.000346857
0.000330444
6.89035e-05
6.10894e-05
9.66192e-05
5.7143e-05
0.000106505
4.02182e-05
0.000117829
2.42721e-05
7.80617e-05
0
0
0
0
0
0
0
4.37771e-05
0
0
0
0
0
0
0
0
0
0
0
0
0
0
0
0
0
3.95197e-09
0
0
0
0
0
0
0
0
2.98875e-09
0
0
0
0
0
0
0
0
0
0
0
0
0
0
0
0
0
0
0
0
0
0
0
0
2.70746e-09
4.35638e-09
0
3.07456e-09
0
0
0
0
0
0
0
0
0
0
0
0
0
0
0
0
0
0
0
0
0
0
0
4.19785e-05
4.73334e-05
9.89456e-05
0.000120729
6.86803e-05
6.97561e-05
5.28168e-05
7.50912e-05
1.94397e-05
4.08025e-05
5.97466e-06
2.21387e-05
3.21362e-05
5.1626e-05
3.45605e-05
1.64471e-05
1.96569e-05
4.30596e-05
2.30704e-05
1.71329e-05
2.7129e-05
3.47947e-05
0
0
9.93033e-09
1.00678e-08
0
0
0
0
3.20109e-09
0
0
0
0
0
0
0
0
0
0
0
0
0
3.76091e-09
3.11301e-09
0
0
0
0
2.34772e-05
0
2.29385e-05
5.74569e-05
0.000109261
9.57186e-05
0.000168903
0.000117817
8.50682e-05
0.000230055
0.000110187
0.000182956
0.000204241
0.000136244
0.000143697
0.000143978
1.12237e-08
0
0
0
0
3.52265e-11
0
0
1.34903e-11
0
0
0
0
0
0
0
0
0
0
0
0
0
0
0
4.0383e-07
6.63695e-07
1.9626e-05
2.83055e-05
3.28558e-05
4.21987e-05
0
0
0
0
0
1.83493e-09
0
0
0
0
0
0
0
0
1.57281e-08
1.37549e-08
0
0
0
0
0
0
0
0
0
0
3.98569e-10
0
0.000135331
0.000167519
0.000194347
5.49065e-05
0.000151926
0.00013339
0.000145075
0.000108331
0.000229926
0.000249839
0.000170318
0.000174598
0.000289883
0.000197637
0.000295856
0.00029315
0.000263481
0.000317881
0.000327954
0.000362823
0.000404098
0.000380719
0.000427463
0.000357996
0.00036134
0.000386754
0.000347454
0.000322364
0.000362538
0.000423583
3.3208e-05
1.98969e-05
7.19468e-05
0.000146408
5.13819e-05
2.52033e-05
1.67428e-05
1.59971e-05
0
1.04476e-05
0
3.05079e-05
0
0.000100915
0.000182783
0.000205393
0.000170469
0.000178634
0.000119387
0
0
0
0
0
0
0
0
0
0
0
0
0
6.47048e-06
0
2.53515e-05
2.07907e-05
3.21414e-05
4.09771e-05
5.66071e-05
7.72825e-05
9.10294e-05
8.22397e-05
3.94941e-05
9.03347e-05
8.05051e-05
7.6733e-05
3.97915e-05
0.000114411
0.000128758
9.1843e-05
0.000101748
5.87778e-05
0.000141566
0.000132975
8.99153e-05
0.000119619
0.000136101
7.69679e-05
9.59574e-05
8.31848e-05
6.19269e-05
7.23195e-05
7.80605e-05
4.83735e-05
7.79732e-05
0.000101347
0.000130916
5.87587e-05
9.74341e-05
0.000192101
0.00016684
0.000227127
0.000221022
0.000215969
0.000224989
0.000253779
0.000236351
0.000256453
0.000236726
0.000279194
0.000241552
0.000300624
0.000250142
0.000327364
0.000263942
0.000366119
0.000255878
0.000341666
0.000330614
0.000261907
0.000293743
0.000333627
0.000329291
0.000310511
0.0003457
0.000347219
0.0003545
0.000346308
0.000355001
0.000409377
0.000330533
0.00037059
0.000377536
0
0
1.08749e-05
8.06688e-05
0
2.65239e-05
7.76046e-05
5.4838e-05
5.98169e-05
0
0
0
0
8.9902e-07
0
0
0
0
0
5.10668e-09
3.85545e-09
0
0
0
0
0
0
0
0
1.52272e-09
6.19542e-09
0
0
0
4.76504e-09
0
0
0
0
0
0
0
3.26494e-09
0
0
0
0
0
0
0
0
2.6335e-11
0
0
0
0
0
0
0
0
0
0
0
0
0
0
0
0
0
0
0
0
0
0
0
0
0
0
0
0
0
0
0
0
0
8.30462e-05
7.3925e-05
0.000125832
9.74091e-05
9.22432e-05
4.67822e-05
4.66153e-05
3.33014e-05
3.04884e-05
2.05839e-05
3.03501e-05
1.88805e-05
2.77325e-05
4.39186e-05
4.34456e-05
2.05859e-05
1.73568e-05
3.83815e-05
3.69869e-06
9.90062e-06
1.0407e-05
4.3438e-05
1.11367e-09
0
1.30849e-08
0
0
0
0
0
0
0
0
0
0
0
0
0
0
0
0
0
0
0
0
0
0
0
0
0
7.84937e-05
0
7.65927e-05
3.97574e-05
4.01863e-05
0.000124862
0.000141882
0.000139726
0.00024196
0.00010332
0.000124867
0.00012024
5.71345e-05
0.000103015
0.000137753
0.000188628
0
0
0
0
0
0
0
0
0
0
0
0
0
0
0
0
0
0
0
0
0
0
2.90978e-07
0
0
0
0
0
0
0
0
1.41065e-05
2.94953e-05
8.38171e-07
0
0
0
0
0
1.70536e-05
2.13251e-05
1.86924e-06
0
0
0
0
4.29891e-10
6.88951e-10
0
0
0
0
0
0
0
0
0
0
0
0
0
0
0
0
0
0
0.000324352
0.000297392
0.000165087
0.000222979
0.00019902
0.0002439
0.000170326
0.000132781
0.000187008
0.000106998
0.00016039
0.000107164
0.000186029
0.000137063
0.00041043
0.000373639
0.000417693
0.000451663
0.000379215
0.000408058
0.000429854
0.000439811
0.000346087
0.000391147
0.000384894
0.000371833
0.000341513
0.000349663
0.000285819
0.000398475
0.000391625
0.000380876
0.000377079
0.000356267
0.000350593
0.000146273
0.000196529
0.000142353
0.000128691
7.09795e-05
7.95901e-05
0.000116138
0.000115894
0.000172861
0.000283091
0.000206104
0.000197857
0.000266053
0.000341339
0.000379915
0.000365589
0.000395952
0.000383295
0.000451981
0.000413048
0.000452143
0.000438283
0.000446174
0.000410654
0.000437698
0.000417279
0.00046187
0.000399557
9.12753e-06
6.86928e-05
1.52413e-05
5.50237e-05
3.84846e-05
0.000148665
8.85638e-05
1.02996e-05
4.60147e-05
0
0
0.000352783
0.00041151
0.000385211
0.000354885
0.000408141
0.000351953
0.000306582
0.000269709
0.000246167
0.000231472
0.000195023
0.000159152
0.000125672
0.000158251
0.000161609
0.000241046
0.000188964
0.000217897
0
0
1.17785e-09
0.000165049
7.42627e-07
4.4931e-05
8.01771e-05
0
8.14157e-10
0
2.18359e-09
3.30345e-09
0
0
0
0
0
0
0
0
0
0
2.21592e-09
0
1.38064e-05
0
6.80357e-05
4.10241e-05
3.48693e-05
6.75857e-05
3.00198e-05
6.6537e-05
8.79247e-05
7.82766e-05
1.83774e-05
0.000101273
6.25131e-05
9.78619e-05
0.000140495
8.70796e-05
9.29278e-05
0.00011562
7.83098e-05
0.000155639
0.000131107
0.000130581
0.000126529
0.000129815
0.000108118
0.000101128
0.000120021
0.000108475
0.00014153
0.000147264
0.000194007
9.71646e-05
0.000230406
0.00021276
0.000257342
0.000272827
0.000312297
0.000206049
0.000265793
0.000317708
0.000288945
0.000257517
0.000295961
0.000295215
0.000275435
0.000317994
0.000306218
0.000269583
0.000285088
0.000341037
0.00034468
0.000240951
0.000283972
0.000198028
0.000229666
0.000291436
0.00030516
0.000294628
0.000338702
0.000353728
0.000394808
0
0
8.64063e-06
0
0
0
0
0
0
0
0
0
0
0
3.405e-09
0
0
0
0
7.96034e-09
0
0
0
0
0
0
0
0
8.27579e-10
9.35454e-10
1.40599e-08
0
1.53542e-10
0
0
0
0
0
0
0
0
0
3.06194e-09
0
0
0
0
0
0
0
0
2.63739e-07
0
0
0
0
0
0
0
0
0
0
0
0
9.75862e-10
0
0
0
0
2.86506e-09
0
0
0
0
0
0
0
0
0
0
0
0
0
0
0
0
0
0
0
2.3936e-09
0
0
0
0
2.73018e-09
0.000264376
0.000217932
0.000372139
0.000389727
0.000250277
0.000227714
7.89506e-05
8.98723e-05
6.17835e-05
7.46173e-05
5.09059e-05
2.43188e-05
2.71855e-05
3.4405e-05
2.23142e-05
1.3015e-05
3.71837e-05
2.75816e-05
1.35351e-05
1.54194e-05
1.83008e-05
1.64164e-05
4.30149e-05
1.53815e-05
4.06119e-05
0
0
0
0
0
0
0
0
0
0
0
0
0
0
0
0
0
0
0
0
0
0
0
0
0
0
0
4.27265e-05
8.82415e-05
1.67972e-05
4.90495e-05
3.93387e-05
1.54285e-05
7.43997e-05
9.91473e-05
0.000116702
0.000116371
6.80967e-05
6.69611e-05
0.000174529
8.08473e-05
4.81829e-05
9.87985e-05
0
2.82555e-10
0
0
0
0
0
0
0
0
0
0
0
0
0
0
0
0
0
0
0
0
0
0
0
0
0
0
0
0
0
0
0
0
0
0
0
1.06117e-05
1.40214e-05
8.70125e-06
0
0
0
0
0
0
0
0
5.3762e-06
0
0
0
0
0
0
0
0
0
0
0
0
0
0
0
0
0
0
0
0
0
0
0
0
0
0.000338402
0.000262923
0.000313434
0.000203486
0.00014764
0.000221882
0.000416872
9.13937e-05
0.000413124
0.000356078
0.000380826
0.000424547
0.000447201
0.000368609
0.00035795
0.000391183
0.00045702
0.000439629
0.000408002
0.000420083
0.000373708
0.000359576
0.000150758
0.000180351
0.000107739
5.43571e-05
0.000117101
2.07294e-05
0.000100603
8.04545e-05
0.000315394
0.000275157
0.000272704
0.000284984
0.000217618
0.000409552
0.000371685
0.000274534
0.000340419
0.000419403
0.000468794
0.000451993
0.000494862
0.000441427
0.000521413
0.000479057
0.000466942
0.000414674
0.000529929
0.000457739
0.000475663
0.000463177
0.000398375
4.60159e-05
1.97492e-05
6.45054e-05
7.37704e-05
3.55527e-05
8.80536e-05
0.000121239
0.000185212
6.3951e-05
1.57058e-05
0
8.07908e-06
0.000329012
0.000298914
0.000350688
0.000324906
0.000330466
0.00029837
0.000255582
0.000244736
0.000218358
0.000233882
0.000180503
0.000164422
0.000167889
0.000154598
0.000131489
0.000138822
0.000226847
0.000125787
0.000246942
0.000229633
0.000223646
0.000200736
0.000278989
0.000242732
0.000119673
1.79048e-09
4.34833e-09
2.42812e-09
0
0
0
0
0
0
0
0
0
0
0
0
0
0
0
0
0
2.97264e-09
0
0
0
3.53181e-05
6.19813e-05
2.86807e-05
6.16725e-05
1.27456e-05
1.61216e-05
7.63827e-05
5.4131e-05
3.77317e-05
4.79768e-05
6.70764e-05
5.1374e-05
6.59815e-05
9.2161e-05
0.000141556
9.89522e-05
0.000133141
0.000142981
0.000173811
0.000132153
0.000107588
0.000156052
0.00017142
0.000148752
0.000220491
0.000159854
0.000127399
0.000228628
0.000151886
0.000184277
0.000290594
0.000263655
0.000344389
0.000257181
0.000382568
0.000298497
0.000246824
0.000346675
0.000294962
0.000369411
0.000335435
0.000359735
0.000361478
0.000356188
0.000345985
0.000328859
0.000342159
0.000285717
0.000309215
0.000175525
0.000259141
0.00014254
0.000240606
0.00027847
0.000261185
0.000267301
0.000324797
0.000351984
0
0
0
0
0
0
0
0
0
0
0
0
0
0
0
0
0
0
0
0
0
0
0
0
0
0
0
0
2.14821e-09
5.62395e-10
0
0
0
0
0
0
0
0
0
0
0
0
3.07577e-07
0
0
0
0
0
1.99692e-09
0
0
4.88017e-07
0
0
0
1.3444e-09
1.30999e-09
0
0
0
0
0
0
0
1.95952e-09
1.8095e-09
0
0
2.09964e-09
2.93784e-09
0
0
0
0
3.22323e-09
0
4.41131e-09
0
0
0
0
0
0
0
0
0
0
0
0
0
0
0
0
0
1.47518e-09
0
0
0
0
0
0
0
0
0.000255681
0.000260261
8.09453e-05
2.34621e-05
0.00025299
0.000168721
7.514e-05
0.000282474
3.45144e-05
0.000233066
0.000107631
8.62028e-05
0.00013293
3.05284e-05
5.36392e-05
3.53817e-05
5.17812e-05
2.79242e-05
3.82792e-05
1.59325e-05
2.40926e-05
2.6278e-05
3.92962e-05
4.18436e-05
2.13792e-05
3.34032e-05
3.05477e-05
0
0
0
0
0
0
0
4.79685e-10
4.90731e-05
0
0
0
0
0
0
0
0
0
0
2.11035e-11
0
0
0
0
0
2.81203e-05
7.56036e-05
4.59321e-05
0.000142217
4.85836e-05
0.000112162
8.57317e-05
7.61988e-05
9.61595e-05
5.91029e-05
0.000104754
0.000152582
8.43327e-05
8.66127e-05
5.22139e-05
6.72011e-05
0
0
2.66186e-10
0
0
0
0
4.7336e-11
0
0
0
0
0
0
0
2.31378e-09
0
1.00813e-09
1.73396e-09
0
0
0
0
0
0
0
0
0
0
0
2.56995e-09
0
0
0
0
0
0
0
0
0
0
0
0
0
8.1139e-10
9.11557e-06
3.60639e-05
1.43194e-05
0
0
0
0
0
0
6.6365e-10
0
0
1.76565e-10
0
0
0
0
0
0
0
7.02133e-10
0
0
0
0
0
0
0
8.28059e-10
0
9.98865e-10
0
0
0
0
0
0
0
1.09859e-09
0.00019943
0.000256915
0.000242606
0.000175016
0.000151785
0.000341912
0.000245469
0.000391521
0.000134478
0.000300661
0.000455096
0.000192933
7.0083e-05
0.000185018
0.000364781
0.000379299
0.000343153
0.000391715
0.000373155
0.000392664
0.000314585
0.000343018
0.000465521
0.000433648
0.00041997
0.000437052
0.000405936
0.000419591
0.000151677
0.000159711
9.12156e-05
6.43553e-05
3.67743e-05
0.000170736
0.000106729
0.000100812
0.000309243
0.000302595
0.000271558
0.000249072
0.000378449
0.000415975
0.000376425
0.000358287
0.000472199
0.000386351
0.000440949
0.000424188
0.000458828
0.000453429
0.000378339
0.000478926
0.000425403
0.000413306
0.000405198
0.000457982
0.00037254
0.000456883
2.20834e-05
1.87141e-05
2.25121e-05
2.67223e-05
7.62414e-05
3.39449e-05
0.000140351
8.92105e-05
2.532e-05
1.9241e-05
4.31701e-05
0
0.000248191
0.000244331
0.000262342
0.000255324
0.000254079
0.000233215
0.000221374
0.000169158
0.000188663
0.000167536
0.000217837
0.000175069
0.000173239
0.000136537
0.00022429
0.000149907
0.000229964
0.000188474
0.000170294
0.000203058
0.000246963
0.000178297
0.000216804
0.000196294
0.000137027
0
0
0
0
0
0
0
0
0
0
0
0
0
0
0
0
2.98886e-09
0
0
0
0
0
0
0
1.96799e-05
6.51271e-05
2.77233e-05
0
3.55258e-05
3.20986e-05
6.08763e-05
9.18303e-05
6.95378e-05
2.42702e-05
6.20347e-05
4.95345e-05
0.000130585
0.000121124
0.000181813
0.000189353
0.000154504
0.000210385
0.0001481
0.000151918
0.000165717
0.000251482
0.000243373
0.000189577
0.000180785
0.000208881
0.000303944
0.000292688
0.000316682
0.000305924
0.000262519
0.000389282
0.000434402
0.000381722
0.000400677
0.000375673
0.000423543
0.000406163
0.000426745
0.000408488
0.000437268
0.000426462
0.000439274
0.00037906
0.000311124
0.000370157
0.000213487
0.000204555
7.73181e-05
0.000186838
0.000135381
0.000239517
0.000281423
0.00022233
0.000179016
0
0
1.8107e-06
4.20236e-11
0
0
0
0
0
0
0
8.4847e-09
8.59721e-09
1.28327e-08
9.35568e-09
5.83796e-09
9.16471e-09
0
7.74633e-09
2.36301e-07
0
0
0
7.5182e-10
0
1.08742e-09
2.14813e-09
0
0
0
0
0
0
0
0
2.9655e-11
0
0
0
0
0
0
3.29809e-07
0
0
0
0
0
0
0
0
0
0
0
0
0
0
0
0
0
0
0
0
0
0
0
0
0
0
0
0
0
0
0
0
0
0
0
0
0
0
0
0
0
0
0
0
0
0
0
0
0
0
0
0
0
0
0
0
0
0
0
0
0
0
0
0
0
0
0
0
0
3.23459e-11
0
0
0
0
3.18937e-05
0.000245936
5.22146e-05
0.000123887
0.000416165
9.81849e-06
0.000103952
0.000103497
0.000170139
0.000155233
0.000590294
0.000363527
0.00060276
0.00033283
0.000285293
8.60081e-05
0.000118955
1.90717e-05
3.38804e-05
0.000123819
7.75113e-06
4.0258e-05
1.9244e-05
2.76165e-05
1.56587e-05
2.46615e-05
1.29319e-05
1.38149e-05
1.5159e-05
0
0
0
0
0
3.61945e-05
0
0
0
0
0
0
0
0
0
0
0
2.00551e-09
2.88595e-09
0
3.34684e-09
0
0
0
2.05026e-05
3.34644e-05
9.27905e-05
6.08549e-05
6.28908e-05
0.000113084
6.44875e-05
7.07645e-05
7.38704e-05
5.43324e-05
7.00828e-05
4.84371e-05
0.000139337
2.97479e-05
7.4622e-05
1.34329e-05
0
8.72203e-10
0
0
0
0
0
3.21488e-11
0
0
3.59573e-11
0
0
0
2.90372e-10
0
0
0
0
0
0
0
0
0
0
0
0
0
0
0
0
0
0
0
0
0
9.10155e-10
0
2.80062e-09
0
0
0
0
0
0
0
0
0
0
0
0
0
0
0
0
0
0
1.11359e-05
0
0
0
0
0
0
0
0
0
0
0
0
0
0
0
0
0
0
0
0
0
0
0
0
0
0
0
0
0
0
0
0
4.99566e-09
5.84884e-09
0
0
0
0
0
0
0.000224218
0.000482299
0.00031341
0.000767138
4.00163e-05
0.000609632
0.000415266
0.000849178
0.000624619
0.000131222
0.000332585
0.000247383
0.000221186
0.000368257
0.000365908
0.000337774
0.000325529
0.000355139
0.00034595
0.000326253
0.000318193
0.000427369
0.000463108
0.000425919
0.00039376
0.000436751
0.000369819
0.000161838
0.000141955
0.000154329
9.12315e-05
0.000103893
0.00012592
0.00010613
0.00015716
0.000318538
0.000369636
0.000263417
0.000327407
0.000375458
0.000365506
0.000344171
0.000386826
0.000353476
0.000314471
0.000307889
0.000353008
0.000368894
0.000305724
0.000447387
0.000247851
0.000505151
0.000492075
0.000373849
0.000353281
0.000332429
0.000425364
4.88864e-05
4.90208e-05
2.29805e-05
3.66329e-05
3.45873e-06
0.000102278
2.96614e-05
9.62619e-05
2.00392e-05
6.48278e-05
9.54836e-05
3.14287e-09
0
0
0
0.000324782
0.000192583
0.000192612
0.000159159
0.000134023
0.000198501
0.000185506
0.000174585
0.000236389
0.000191475
0.000234411
0.000208947
0.000164358
0.000231308
0.000180476
0.000179089
0.000186535
0.000239495
0.000240895
0.000169306
0.000199391
0.000116115
0.000269808
0.00025632
0.0001462
0.00015264
0
0
0
0
0
3.51222e-09
8.81407e-09
0
0
0
0
3.78682e-09
1.33799e-09
0
0
0
0
0
0
0
0
0
0
0
0
1.94655e-06
1.94052e-05
0
6.77332e-05
0.000100249
8.20529e-05
4.36377e-05
0.00010862
7.54695e-05
0.000215258
0.000177225
0.000219593
0.000277501
0.0002534
0.000257313
0.000297074
0.000283498
0.000202128
0.00018713
0.000236186
0.000243005
0.000310231
0.000194033
0.000304826
0.000297491
0.000315748
0.0003792
0.00033088
0.000351789
0.000393222
0.000383488
0.000438092
0.00042514
0.000435958
0.00045709
0.000454783
0.000462651
0.000462869
0.000475797
0.000448983
0.00049083
0.00033486
0.000411193
0.000199566
0.000185165
9.73071e-05
0.000134005
5.93084e-05
0.00012431
0.000154941
0.000143239
0.000196556
0.000190547
0
0
0
0
0
0
0
0
0
1.0608e-08
0
0
0
1.0168e-08
6.26718e-09
5.27334e-09
7.65429e-09
7.27696e-09
3.75364e-09
0
0
0
0
0
0
0
0
0
0
0
0
0
0
0
0
1.51051e-11
0
0
0
5.89701e-07
0
0
0
0
0
0
0
0
0
0
0
0
0
0
0
0
0
0
2.64163e-07
0
0
0
0
0
7.96345e-10
5.93497e-10
1.42333e-09
0
0
0
0
0
0
0
0
0
0
0
0
0
0
0
0
0
0
0
0
0
0
0
0
0
0
0
0
0
0
0
0
0
0
0
0
0
0
0
0
0
2.65764e-09
0
7.34011e-10
0
0
6.33171e-10
0
0
4.21231e-05
7.64128e-05
0.000245468
0.00021135
0.000110817
0.000452754
0.000191415
0.000196026
0.000128714
0.000352398
0.000252231
0.000352949
0.000506567
0.000200751
3.88641e-05
0.000178631
0.000149916
0.000102317
1.04732e-05
4.33285e-05
3.40971e-05
4.30672e-05
2.56298e-05
5.53401e-05
5.11312e-05
5.65725e-05
5.60823e-05
7.87398e-05
1.79084e-05
1.72751e-05
1.23369e-05
1.09675e-05
9.08464e-06
0
0
0
6.99725e-05
0
0
0
4.08417e-09
0
0
0
0
0
0
0
0
0
0
0
0
2.01189e-09
0
0
0
1.64267e-05
3.32321e-05
3.97057e-05
2.60456e-05
6.80053e-05
9.1268e-05
2.44857e-05
9.25466e-05
1.52791e-05
9.66703e-05
6.46265e-05
0.000129818
7.81581e-05
0
0
0
0
0
0
5.93742e-09
2.58201e-09
0
0
0
0
0
0
0
0
0
4.11333e-08
0
0
0
0
0
0
0
3.13688e-10
0
0
5.77021e-09
0
0
0
0
0
0
0
0
0
0
0
0
0
0
0
0
0
0
0
0
0
0
2.22023e-09
0
0
0
0
0
0
0
0
0
0
0
0
0
0
0
5.48353e-11
0
0
0
1.67912e-09
0
0
0
0
0
0
0
0
0
0
0
0
0
0
0
0
0
0
0
0
0
0
0
0
0
1.37006e-09
0
0
0
0
0
0
0
0
0.000417071
0.000561548
0.00103549
0.000779713
0.000224397
0.000300434
0.000445908
0.000239214
0.000109374
0.000213161
0.000152581
9.54541e-05
0.000102823
8.80056e-05
0.000320805
0.000326278
0.000305635
0.000293282
0.000291348
0.000314223
0.000334199
0.000509749
0.000386988
0.000343125
0.000302857
0.000410149
0.000361243
0.000356962
0.000194265
0.000212192
0.000118538
7.5863e-05
0.000139806
0.000114912
0.000184698
0.000126809
0.00040214
0.000308024
0.000268128
0.000320715
0.000288437
0.000283152
0.000367892
0.000230804
0.000238397
0.000184908
0.000243463
3.17659e-05
0.000357718
0.000185277
0.00038021
0.000395843
0.000380447
9.30434e-05
0.000235105
0.000280477
0.000207685
0.000242452
4.87481e-05
4.64885e-05
8.35708e-05
0.000113441
9.35367e-05
9.32927e-05
6.04932e-05
0.000135072
2.53518e-05
5.86504e-06
6.77566e-05
2.56677e-05
0
7.36018e-05
0.000211948
0.000122654
9.28602e-05
0.000215765
0.000256838
0.000251945
0.000245805
0.000277929
0.000276674
0.000309305
0.000227922
0.000273303
0.000248942
0.000199219
0.000228457
0.000195124
0.000195446
0.000226099
0.000250889
0.000154649
0.000140855
0.000309335
0.000320429
0.000117082
0.000165438
0
0
0
0
0
0
0
0
0
4.17275e-09
0
0
0
0
0
3.28807e-11
3.63263e-11
0
0
0
0
0
0
0
0
1.54307e-05
1.0159e-05
2.14362e-05
0.000106498
2.5286e-05
1.67434e-05
5.29708e-05
0.000127799
0.000200102
0.000314271
0.000144694
0.000332665
0.00025587
0.000414637
0.000363403
0.000412941
0.000418704
0.000344318
0.000233157
0.000250544
0.000327251
0.000398371
0.00023416
0.000379704
0.000380871
0.000334674
0.000390277
0.000348856
0.000426445
0.000407931
0.000483257
0.000474804
0.000466068
0.000522814
0.000488106
0.000509145
0.000506337
0.000507953
0.000488803
0.00042316
0.000361695
0.000192284
0.00017532
0.000118621
7.42292e-05
0.000102104
9.24196e-05
0.000117456
4.96278e-05
8.06886e-05
0.000137067
0.000193954
9.88051e-05
0
0
0
0
0
0
0
0
0
1.25936e-10
0
0
0
0
0
0
0
9.48884e-09
0
0
7.87834e-09
0
0
0
1.15539e-09
0
0
0
0
0
6.72265e-10
0
0
0
0
0
0
0
0
0
0
0
0
0
0
0
3.28765e-09
2.17412e-09
2.41294e-09
0
0
0
0
1.01684e-09
0
0
1.20796e-09
0
0
0
0
2.56613e-09
0
9.86716e-10
0
0
0
0
0
0
0
0
0
0
0
0
0
0
0
0
0
0
0
0
0
0
0
0
0
0
0
0
0
0
0
0
0
0
0
0
0
0
0
0
0
0
0
0
0
0
0
0
0
0
0
0
0
8.14986e-10
0
0
0
3.57325e-09
0
0
0.000116268
0.000131353
0.000214654
0.000274914
0.00034112
0.000174996
0.000106134
0.00021054
7.73727e-05
0.000165718
0.00013956
0.000393572
0.000566644
6.82607e-05
0.000117365
4.75336e-05
0.000414519
5.74929e-05
5.95548e-05
0.000175467
0.000157042
8.17327e-05
0.000121542
0.000141447
7.39814e-05
2.19585e-05
4.26845e-05
5.11673e-05
1.13544e-05
7.28805e-05
8.8274e-05
9.15231e-05
1.1714e-05
3.50227e-05
5.58794e-05
2.70881e-05
1.09827e-05
0
0
7.36268e-05
0.000124707
0
0
1.22848e-09
0
0
0
0
4.99187e-11
0
0
0
3.88339e-11
0
0
0
4.21709e-10
0
0
0
0
3.5246e-05
1.66967e-05
4.43358e-05
7.42362e-05
4.09343e-05
3.71315e-05
0.000144243
9.56519e-05
2.01837e-05
0.000152098
0.000106016
3.49636e-10
0
0
1.70956e-10
0
0
4.45023e-10
2.41463e-10
0
0
0
0
0
0
0
0
5.9715e-08
1.10192e-07
0
0
2.83998e-08
0
2.08245e-09
0
0
0
0
6.44636e-08
0
1.61932e-09
4.35828e-08
0
0
0
0
0
0
0
0
0
0
0
0
0
0
0
0
0
0
5.49407e-09
0
0
0
0
0
0
0
0
0
0
0
0
0
0
0
0
0
0
0
0
0
0
0
0
0
0
4.45598e-10
1.04397e-09
0
0
0
0
0
0
0
0
9.79045e-10
0
0
0
0
0
0
6.65182e-10
0
0
0
0
0
0
0
0
0
0
0
0
0
0
0
0
0
0
0
0
0
0
0
0
0.000184884
0.000714302
8.99139e-05
0.000231066
0.00012624
0.000272699
5.01185e-05
0.000199988
0.000173258
0.00010877
0.000167048
0.000207974
0.000218938
0.000110127
0.00016629
0.000297726
0.000270479
0.000299487
0.000290232
0.000263703
0.000320403
0.000318384
0.000378986
0.000372652
0.000192028
0.000177352
0.000258409
0.000312367
0.000297756
0.000289744
0.000249593
0.00012754
0.000102508
0.000174203
0.000161376
0.000228856
0.000151551
0.000231161
0.000215657
0.00024286
0.00030947
0.000174045
0.000120609
0.00011263
0.000159065
6.04573e-05
4.81965e-05
0.000145096
0.000210144
0.000378896
0.000343661
0.000526515
0.000631676
7.21165e-05
0.000283076
0.000190917
0.0001835
3.9424e-05
1.44662e-05
5.90009e-05
0.000197141
0.000195777
0.000139636
0.00013162
8.20093e-05
0.000142543
3.27419e-05
1.07992e-05
8.56578e-05
7.89235e-05
0.000129275
6.97158e-05
0.000275194
7.88271e-05
0.000291445
0.000213545
0.000293434
0.000322744
0.000358374
0.000315763
0.000332319
0.000276867
0.000302487
0.000278787
0.000262896
0.000244205
0.000170773
0.000211376
0.000146384
0.000230199
0.000172144
0.000110862
0.000365873
0.000348454
0.000236641
3.21019e-05
1.60877e-09
2.38323e-09
3.24959e-09
0
0
0
0
0
0
0
0
0
0
0
0
0
0
0
0
0
0
0
0
0
1.88692e-06
6.89895e-05
4.54624e-05
4.94959e-05
0.000173459
0.00010789
3.89426e-05
6.55696e-05
0.00027707
0.000183067
0.000233022
0.000282932
0.000377343
0.000396394
0.000466709
0.00048364
0.000401498
0.000495084
0.00042035
0.000385035
0.000411582
0.000334841
0.000493777
0.000371569
0.000472587
0.000455008