/*--------------------------------*- C++ -*----------------------------------*\
  =========                 |
  \\      /  F ield         | OpenFOAM: The Open Source CFD Toolbox
   \\    /   O peration     | Website:  https://openfoam.org
    \\  /    A nd           | Version:  8
     \\/     M anipulation  |
\*---------------------------------------------------------------------------*/
FoamFile
{
    version     2.0;
    format      ascii;
    class       surfaceScalarField;
    location    "18720";
    object      phi;
}
// * * * * * * * * * * * * * * * * * * * * * * * * * * * * * * * * * * * * * //

dimensions      [0 3 -1 0 0 0 0];

internalField   nonuniform List<scalar> 
788991
(
-0.0509767
0.000981176
-0.0300259
-0.0267092
-0.013654
-0.03739
-0.0219051
0.0426625
-0.043407
0.0597421
-0.00444218
0.0574501
0.00689276
-0.0687228
-0.0338415
-0.0598572
0.0700276
-0.0198682
-0.0464272
0.0400417
0.0105363
0.00575685
-0.0125187
0.0164654
-0.0227796
0.00213345
0.00191027
0.0538079
-0.0207093
0.0305496
-0.00591559
0.0182835
0.0433122
-0.0163275
0.0342143
0.0106182
-0.0122195
-0.0293118
-0.0238138
0.00683487
-0.0209861
0.0314983
0.00352204
-0.0396485
-0.0137879
0.00920108
0.022283
0.00490607
-0.00501999
-0.0365159
-0.00972764
0.0358858
-0.0521394
-0.0574357
0.0093108
0.0478873
0.00595829
0.0131653
0.0233492
0.0355903
0.0506421
-0.00204884
-0.0675243
0.0247818
-0.0139055
0.0624848
-0.00693885
-0.0309709
0.0516089
-0.0630479
-0.058505
0.0205351
0.00786966
0.0076819
0.0363413
-0.0438641
0.041633
-0.0255469
0.00421413
0.04211
0.0419118
-0.0386639
0.0306611
-0.021478
0.00658477
-0.0377604
0.037646
-0.0386822
-0.0292481
-0.0162219
0.0545421
-0.00770737
-0.0592837
-0.0496337
0.0143619
0.0698408
-0.0064361
0.0976314
-0.0686515
-0.0270904
0.076574
-0.0193456
-0.111907
-0.091897
-0.0269528
0.0418739
-0.0323995
0.110008
-0.0944098
0.0461589
-0.0133217
-0.0652042
-0.0930244
-0.0913428
-0.0918317
-0.0521237
-0.120395
-0.0747479
-0.0734926
0.105389
0.0595645
-0.133535
0.0597523
-0.0212145
-0.0543099
-0.111629
0.0355764
-0.0365883
-0.0461115
0.0825339
0.0337895
0.00951579
-0.112164
-0.0456164
0.0921549
-0.00108904
0.0174814
0.0310805
0.0305603
-0.00111797
0.00454698
0.0151576
0.00922973
0.00662163
-0.00255167
-0.0234877
0.0173016
-0.00943208
0.0295965
0.0216586
-0.00836023
-0.0494294
0.0133604
-0.0242017
0.0427385
0.0148181
-0.0247822
-0.0321289
-0.0746128
0.0261179
-0.0449649
0.0672162
-0.0223927
-0.0626219
0.0299361
-0.0323331
0.0540017
-0.0101038
-0.0512904
0.0252969
-0.0320503
0.0342401
-0.00396742
-0.0363421
-0.0213711
-0.0232189
-0.0246186
0.00207529
-0.0235804
-0.0142635
-0.0145218
0.0112288
0.00446615
-0.0108467
0.0114576
-0.00949416
0.0042115
0.00711259
-0.0035274
-0.0137244
-0.00773255
-0.00349408
0.00980243
-0.00727497
0.0212197
-0.0165115
0.00742587
0.007525
-0.0114029
0.0214657
-0.0231622
-0.00891466
0.00796801
-0.0110754
-0.0192344
-0.0217227
0.00735504
0.018796
-0.0149686
-0.0255078
-0.01612
0.00975413
-0.000589399
0.045793
0.0466887
0.00820938
0.0260251
0.0413339
0.0965735
0.00386824
0.0825757
0.0968016
0.00478868
-0.117873
0.088331
-0.0166446
-0.121392
0.0416021
-0.0349675
0.111685
-0.0472443
-0.077255
-0.0826151
-0.0680395
-0.14288
0.0578094
-0.0747589
-0.126455
-0.0308903
0.0505211
-0.0430104
-0.0221184
-0.0339899
-0.0679669
0.0222719
-0.0216511
-0.0676615
-0.0254403
-0.0109593
-0.0498494
0.023974
-0.00379653
-0.0358877
0.0187977
0.00335203
-0.022056
0.0151473
0.00831868
-0.00855655
-0.0137091
0.0111154
-0.00582653
0.019749
0.0107357
-0.0158502
-0.0251208
0.00959189
-0.0170316
0.024185
0.00515412
0.0211372
-0.00271377
-0.0271469
-0.0103479
0.027251
-0.0287273
-0.0293981
-0.00021897
-0.00354705
0.0383156
-0.0362269
0.0180274
-0.0681553
-0.0222227
0.0342803
0.0255882
0.057124
-0.0136404
0.0377241
0.0250759
-0.0200066
-0.0869942
-0.100271
0.0133855
0.0654398
-0.0217822
0.0397103
0.0562992
0.00155626
-0.0692106
0.00819874
-0.0199245
0.0465819
-0.0312927
-0.0331901
-0.0319488
-0.0918106
-0.0653562
0.0130123
0.0133634
-0.03719
0.0653253
0.0391034
-0.033182
-0.0337355
-0.0724926
0.320298
0.0222126
0.221515
-0.0428281
0.0241551
-0.0990181
0.0727105
-0.027977
-0.0201349
-0.0145204
-0.0117162
-0.00385406
-0.0269724
-0.0402019
-0.0422243
-0.0152919
-0.0458114
-0.0524222
0.0235888
-0.0520463
-0.069655
-0.0311983
-0.0423508
-0.0778887
-0.0388287
-0.000626484
-0.0784339
-0.0653073
0.0298701
-0.0668607
0.0845858
0.0505212
-0.0555392
0.0992117
0.036321
-0.0516524
0.0857943
0.0302598
-0.0516021
0.0777422
0.192692
-0.0519549
-0.0106616
0.0417028
0.0342856
0.100811
0.170033
0.00829711
0.0287348
0.101385
0.00913803
0.0206785
0.0490096
0.00726074
0.00734996
0.0181275
0.0123105
0.0287179
-0.00392026
-0.0235934
0.0420848
0.00537372
-0.038072
0.0215084
-0.00220969
0.0349994
0.0143398
-0.0100891
-0.044161
0.0198009
-0.0463263
0.0509728
0.0105873
-0.0380312
-0.0361286
0.0034758
-0.0266645
0.0239229
-0.00420874
-0.0164205
0.011741
-0.00524988
-0.00834895
-0.00289163
-0.00496019
-0.0055484
-0.00239954
-0.0347887
-0.02149
0.0109182
0.0588136
-0.0383584
0.0305176
-0.075436
-0.0307112
-0.0338708
0.0416809
-0.0364431
-0.0320534
-0.0020131
0.0125101
0.0294556
-0.0164694
-0.0335646
-0.00643962
-0.00939654
-0.00327413
-0.0072557
-0.0204302
0.00934935
-0.0114867
-0.0235351
0.00500664
-0.030001
-0.0165912
-0.0106731
-0.0468158
-0.0251831
-0.0186365
-0.0378693
-0.07492
-0.0395746
0.0740179
-0.0291227
0.00952683
0.00874299
-0.0352038
0.0708877
0.0847206
-0.0648977
0.120957
0.0202832
-0.106328
0.110986
0.0168171
0.117111
0.0828649
-0.0047539
0.102604
0.00873621
-0.0329686
-0.06949
-0.0785702
-0.0812054
0.0470917
-0.0955856
-0.128707
0.0259444
-0.0900367
-0.126909
0.0104745
0.0823559
-0.0484605
-0.0161607
-0.0371874
-0.0734437
-0.0186886
-0.0235308
-0.0542354
0.0188032
-0.0111126
-0.0430283
0.0185233
-0.00187383
-0.026102
-0.015563
0.00613064
-0.0176234
0.0140389
0.00984039
-0.0102262
0.0161787
0.0102912
-0.0149824
0.0241997
0.0108582
-0.0199026
-0.0279626
0.0177653
-0.0160601
-0.0252985
0.00715463
0.0293571
-0.0312666
-0.00276943
0.0356293
0.0285116
0.00907245
0.050948
0.0318692
0.00507905
0.0466865
-0.0342812
0.058523
0.0233556
-0.0254354
0.0365847
-0.0651618
0.0299564
0.0353986
0.0306529
0.0631083
-0.0265704
0.0496611
-0.0395713
0.0140126
0.0267389
0.0325671
-0.0223235
-0.111783
0.00551286
-0.0542005
0.0574655
0.0417817
-0.00568029
0.0403068
0.0758139
0.0297128
0.0303159
0.0468105
0.0163517
-0.110249
-0.123185
-0.00240154
0.0754541
-0.00928679
0.0219986
0.0604193
0.0271087
0.0247813
-0.0352379
0.013595
-0.00154326
0.041952
-0.0502353
-0.0228381
0.0151892
-0.100548
-0.0559849
-0.0102157
0.00832836
-0.0781971
-0.0816354
0.0318458
-0.0448366
0.0572912
0.0272331
-0.0162984
0.0883149
0.00919407
-0.0285617
0.027847
-0.00929795
-0.0633344
-0.404115
-0.0416115
0.12668
-0.0474028
-0.205551
-0.0817369
0.0156096
-0.145621
0.111865
-0.0294353
-0.0202186
-0.0154344
-0.0292168
0.00239714
-0.0298754
-0.0243305
-0.0410581
-0.0243918
-0.043811
-0.0491931
-0.0286989
-0.034901
-0.0673179
0.0346873
-0.00553429
-0.0682231
-0.0573448
0.0175389
-0.063532
0.0626137
0.0360552
-0.0565119
-0.0821572
0.0269102
-0.0530265
0.0751226
0.0231394
-0.0507699
-0.0660002
0.0148362
-0.0522017
-0.0521062
6.4128e-07
0
1.3749e-06
0
0
-3.87211e-06
5.48424e-07
1.77825e-06
1.20879e-06
-4.55869e-08
2.65777e-07
-0.00808801
-0.209175
0
0
0
0.0359869
-0.0431085
-0.194261
0.0924586
0.221893
0.0341366
0.0517687
0.035529
0.122335
0.0486533
0.0206669
0.0894018
0.10994
-0.00901786
0.0459163
0.0997792
0.0115826
0.0297596
0.0494998
-0.0115957
0.0186434
0.0173552
-0.0116438
0.0314726
0.0075014
0.0228265
0.0388521
0.00380143
-0.0318597
0.0234075
0.00318108
-0.0371028
0.00140867
-0.0146439
-0.0240384
0.00343467
-0.0433878
-0.0306409
-0.000235213
-0.0291774
0.0177096
-0.00637537
-0.0177543
-0.00894309
-0.00865385
-0.011114
0.00258363
-0.00879602
-0.00693271
-0.00449034
-0.00908005
-0.00597974
0.00494285
-0.0381453
-0.0271255
0.0112258
-0.043655
-0.0283046
0.033785
-0.0309119
-0.00551253
-0.0760974
-0.0697001
0.041717
0.021785
-0.0539366
-0.0530804
0.0281756
0.0208828
-0.0095918
-0.0158843
-0.00581019
-0.0146627
-0.0232231
-0.00859041
-0.0261088
-0.0207376
0.0016154
-0.0250205
-0.0237397
-0.000152166
-0.0585683
-0.0383841
0.0179961
-0.0370293
0.0125476
0.0225325
0.0414973
-0.0864905
-0.0456455
0.0365599
-0.0515376
-0.0443959
0.0138527
-0.0489836
-0.0417478
0.00874538
-0.0492943
-0.0658292
-0.0144684
0.0329596
0.0440217
-0.0659181
0.122194
0.0338218
-0.0870849
0.14298
0.13451
-0.101244
0.131833
0.040306
-0.108433
0.094494
0.0316603
0.0834812
0.0352341
0.011254
0.0440908
-0.0288844
-0.0153128
-0.0199468
-0.100492
-0.054469
-0.000687163
-0.128143
-0.101078
-0.011233
-0.103216
-0.122745
0.0155938
-0.10896
-0.0584681
-0.00322267
-0.0353772
-0.0576482
-0.00553283
-0.0214498
-0.0366116
0.00954787
-0.0087908
-0.0221879
0.00991196
-0.00172349
-0.0196566
0.0116385
0.00473828
-0.0158905
0.0130091
0.00658545
-0.0170348
0.0197686
0.00796392
-0.020395
-0.024649
0.0146809
-0.0181381
0.0234229
0.0248406
-0.00660402
0.0224958
0.0106832
0.0415731
-0.0314665
0.000829683
0.0391755
-0.0242498
0.0180131
0.0508556
-0.0278215
0.0103282
0.0494758
0.0304055
0.0517965
0.0262184
0.0233664
0.0310597
0.0562673
-0.0282055
0.0290267
0.0576133
-0.0243965
0.055553
0.0287182
-0.0293323
0.0646948
0.0242652
0.0339688
0.080689
0.0419988
0.0245918
0.0387112
-0.0577953
-0.136651
0.0291367
-0.0607336
0.052596
0.00706973
-0.0065284
0.106734
0.0297125
-0.0555535
0.1071
0.0558456
-0.0599028
-0.0980019
-0.102833
-0.0219136
0.0604549
-0.0529731
-0.0877392
0.0456646
-0.0236615
-0.059996
0.00722412
-0.0135361
-0.0435814
-0.0522509
-0.0275502
0.0206609
-0.0799319
-0.0620316
0.0233368
0.0461675
-0.101924
-0.112237
0.094498
-0.048298
0.0759836
0.0351183
0.00648062
-0.0243897
-0.0351304
0
0
0
0
0
-0.284412
0
-0.107387
-0.0311465
-0.0960974
0.0913906
0.0274844
-0.138564
0.166895
0
0
0
0
0
0
0
0
0
5.71328e-06
0
3.55863e-06
0
-2.03614e-05
-2.12479e-05
-1.07093e-05
0
1.27047e-05
-4.17304e-05
1.20386e-05
0
1.77764e-05
0
0
0
0
0
0
0
0
0
0
0
0
0
0
0
0
0
-0.0259094
-0.00901943
0.0287401
-0.0180142
0.00984181
-0.0268803
-0.0212694
-0.0338856
-0.0278376
-0.0330632
-0.0486761
0.0365893
-0.00934755
-0.0592653
0.0423228
0.0037384
-0.0581552
-0.0494203
0.0187072
-0.0524602
0.0591777
0.0179548
-0.0508203
0.0599124
0.00827816
-0.0525864
-0.052751
0.000849957
-0.0532323
0.0449879
-0.00577722
0.0247275
-0.0443246
0
0
0
0
0
0
0
0
0
3.12587e-06
0
0
0
0
0
0
0
0
0
0
0
0
0
0
0
0
0
0
0
0
0
0
0
0
0
-0.163248
0
0.112698
-0.0123599
-0.0293264
-0.00376728
0.0660322
0.0391392
0.0201054
0.108074
0.0417021
0.0130739
0.111804
0.0913617
-0.0274925
0.0594314
0.0816493
0.0199387
0.0325744
0.0424062
0.00995067
0.0303923
0.0173717
-0.0108099
0.0327909
0.00733999
-0.0221568
0.029878
0.00843617
0.0306398
0.00838801
-0.000280217
-0.0249756
0.0100528
-0.0119381
0.0235459
1.74889e-05
0
0
-4.73942e-05
-1.40782e-06
0
0
2.02437e-05
0
0
0
0
0
0
0
0
0
0
0
0
0
0
-0.00889817
-0.0330959
-0.0116823
-0.0110794
-0.0193173
-0.00169362
-0.0112576
-0.0137895
0.00109085
-0.0121693
-0.0109679
-0.00291355
-0.0151411
-0.00851097
-0.00768318
-0.0181225
-0.0156081
-0.00119145
-0.0443059
-0.0363133
-0.0121481
-0.0277724
-0.0459217
-0.0104653
-0.0697773
-0.0516612
0.0151981
-0.0712285
-0.0571439
-0.0100252
-0.0599236
-0.0316636
-0.0180575
-0.0618905
-0.0440319
0.0159469
-0.0223005
-0.0258943
0.0100449
-0.0297404
-0.0281284
-0.00377193
-0.0255723
-0.0276085
-0.00520756
-0.0546546
-0.0254425
0.0236156
-0.0436755
0.0889302
0.0398797
-0.037422
0.0530217
-0.0480382
-0.0965749
-0.0544754
0.0532454
-0.0325902
0.0842201
-0.0381808
0.0535072
-0.0811949
-0.0454702
0.0270341
-0.102228
-0.0525517
0.0510209
-0.0518515
-0.0499756
-0.0104475
-0.073083
-0.0474221
-0.0233197
-0.0574523
-0.0673888
0.0124069
0.0586431
0.0462924
0.0770962
-0.140305
0.0500175
-0.0861535
-0.145642
0.145825
-0.0990406
0.121204
0.0584407
0.078757
0.0566168
0.0565869
-0.0231026
0.00403974
0.0293761
0.0137884
-0.056936
0.00687455
0.0284415
-0.118959
-0.0311579
-0.0498552
-0.14317
-0.0687718
-0.0470443
-0.0918261
-0.0964274
0.0372519
-0.106238
-0.0580992
0.0142303
-0.0312437
-0.0392606
-0.00466668
-0.0179741
-0.0177289
0.00127198
-0.0113762
-0.0183118
0.00552775
-0.00581153
-0.0158491
-0.00892098
-0.00175522
-0.0211582
0.0146889
0.00403451
-0.020385
-0.0210171
0.0106812
-0.0171925
0.0214535
0.0183179
-0.00909359
-0.0185009
0.0274364
-0.000379862
-0.0195076
0.00985426
0.042805
-0.0285383
0.00328814
0.0376636
0.0232265
0.0204267
0.0482109
-0.0241894
0.0107248
0.0465704
-0.0263273
0.052389
0.0267559
-0.0209903
0.0337606
0.0602586
-0.0259528
0.0320983
0.062252
-0.0222074
0.0589192
0.0326952
-0.0295493
0.0590294
0.024656
-0.033935
0.0743062
0.0239615
-0.0348238
0.0836662
0.0408097
0.0306356
0.0849148
0.0549165
0.0540901
-0.0283689
0.0337709
-0.0316115
0.0994831
-0.0607916
0.0578735
0.10149
0.0621101
0.0908875
0.0601511
-0.0377716
0.100553
-0.0433561
-0.0581995
0.0607082
-0.0403967
0.101249
-0.0448501
0.0626646
0.0576061
-0.0370574
0.0960507
-0.0419423
0.0682208
0.0617688
0.0297255
-0.0714991
-0.0312367
0.0545427
0.0650878
-0.0174616
0.0514719
-0.018992
0.0417353
0.0528031
-0.00659657
0.0454773
-0.010502
-0.0416096
0.0434859
0.00113732
-0.00341659
0.0441075
-0.0469691
0.0442406
-0.00622371
-0.09366
-0.138436
0.0819008
0.0421036
0.00273517
-0.0653791
0.0153647
0.0723068
-0.00862382
-0.0530967
0.113536
0.0325818
0.0936112
0.142234
0.0466435
0.0874762
-0.105708
-0.0685433
0.0531626
0.0466957
-0.0181882
-0.0447468
0.0405788
-0.0272405
-0.0535631
0.000910189
-0.0162906
0.0455986
-0.0390872
-0.0125443
0.0361843
-0.0673129
-0.0562126
-0.0502144
0.097166
-0.0943485
0.0624011
0.0560242
0.0150469
0.00641337
0.0409258
0.00997752
0.00299377
0
0
0
0
0
0
-0.0456
0
0
-0.0170549
0.0266618
0.024908
0.00492565
-0.0271118
-0.101435
0
0
0
0
0
0
0
9.22769e-05
1.64407e-05
0
0
0
0
0
0
0
0
0
0
0
0
-5.75833e-05
0
0
0
0
0
-3.28803e-05
1.45802e-05
0
-3.56109e-05
0
1.92424e-05
0
0
0
-1.48473e-05
0
0
0
9.09341e-05
-2.13307e-05
-5.22188e-05
-0.000329763
-0.000819429
0.000419915
6.84007e-05
0
-0.00066574
0.000522742
0
-0.000107027
0
2.91376e-05
0
0
0
0
0
0
0
0
0
0
0
0
0
0
0
0
0
0
0
0
0
0
0
0
-0.0218649
-0.00955096
-0.0283666
-0.0167554
0.0090758
0.0234935
-0.0180047
-0.0333077
0.028034
-0.0106375
-0.0461622
-0.0478149
-0.004634
-0.0446343
-0.0374384
0.00596665
-0.0504548
0.0383532
0.0035618
-0.0493375
0.0388295
-0.0175971
-0.0165335
-0.00897929
-0.0361176
-0.00720964
-0.0548602
0.047284
-0.0100337
-0.0508618
0.0324502
0.0222939
-0.0469691
0
0
0
-2.70472e-05
2.66137e-05
5.3988e-05
0
0
0
0
0
0
3.99834e-05
0
-1.48083e-05
0
0
0
0
0
0
0
0
0
0
0
0
0
0
0
0.0240546
0.0127152
0.0555562
0.0457615
-0.00560396
-0.0336992
0.0614214
-0.00290515
0.0205448
0.120181
0.0508656
-0.0424369
0.104717
0.0787627
0.0357481
0.0512961
0.0618281
-0.0166934
0.0309699
0.0250151
-0.00878229
0.0379909
0.0182968
-0.0190481
0.0274917
0.012728
0.0253178
0.0163077
0.00580993
0.0226105
0.0178069
0.00283617
-0.0206202
0.0158646
-0.0181837
0.000824083
0
0
0
0
0
0
0
-5.05073e-07
0
2.82634e-07
0
-4.9616e-07
-7.39232e-08
0
0
0
0
0
0
0
0
0
0
0
0
0
0
0
0
0
0
0
0
0
0
0.00492057
0.0493545
-0.0144147
-0.0176917
-0.0256304
-0.00381067
-0.0156373
-0.0159413
-0.00410024
-0.0132053
-0.0123812
-0.000469572
-0.0143366
-0.00919664
0.0034771
-0.0188765
-0.0153205
0.00340066
-0.0233075
-0.0289903
0.011771
-0.0452732
-0.0495721
-0.00478008
-0.0763387
-0.0487778
0.0264445
-0.0698712
-0.0578367
-0.0137793
-0.0681897
-0.0581295
0.00609017
-0.0665279
-0.0391279
0.014587
-0.0586342
-0.0496737
-0.00111811
-0.0315963
-0.0337783
0.00780625
-0.0353282
-0.0299128
-0.00331149
-0.0521791
-0.0300588
0.0210405
-0.0567857
-0.0322902
-0.0236628
-0.0331915
-0.0907942
-0.0555808
-0.0455443
-0.0921667
-0.0555454
-0.0505796
-0.0998343
-0.0544116
-0.0859016
-0.0399098
-0.0546139
-0.0404964
-0.105182
0.0601514
-0.0344637
-0.103614
-0.058858
-0.110739
-0.0497636
-0.0610989
-0.112255
-0.0512851
0.0715297
-0.0866434
-0.0428218
-0.054554
-0.0622031
-0.0317165
-0.039719
-0.0522338
-0.0215322
0.0366853
-0.0505639
-0.0137802
0.0432133
0.00364038
0.0478509
-0.0122352
-0.0398657
0.0517623
-0.00539495
-0.0480813
-0.050544
-0.104082
-0.0554949
-0.045199
-0.102562
-0.0558183
0.0505611
-0.0726627
-0.0542812
-0.0294284
-0.101316
-0.0439488
-0.0536762
-0.0630438
-0.0862936
0.0153115
0.070262
0.0745554
-0.0728225
0.140854
0.0677395
-0.0637822
0.13432
0.131605
-0.0671603
0.0776173
0.0713867
0.0168896
0.0190573
0.0588037
0.028246
-0.0229224
0.0392168
-0.0489731
-0.0921435
0.0168821
0.0714006
-0.138269
-0.0192279
-0.0994536
-0.142754
-0.0431747
0.0854891
-0.0647793
-0.0690715
-0.042741
-0.0826389
-0.0465238
0.0195006
-0.0272042
-0.0211157
-0.0106509
-0.0186548
-0.0153185
-0.00441007
-0.0124675
-0.0142047
-0.00137338
-0.00947725
-0.0236085
0.00920934
-0.00142814
-0.0215681
-0.0156832
0.00591147
-0.0188911
0.0192558
0.0141815
-0.00854331
-0.0168731
0.0208158
-0.000228206
0.0155416
0.025973
0.00163462
-0.0182618
0.00793777
0.0379596
-0.023555
0.00363617
0.0350979
0.0225018
0.0221842
0.0490013
0.0184055
0.0133228
0.0450347
-0.0190933
0.0559374
0.0313762
-0.0173594
0.0372375
0.0653209
-0.0269602
0.0351638
0.0666662
0.0222441
0.058692
0.035453
-0.0334104
0.0576639
0.0252531
0.0336737
0.0714543
0.0261362
-0.028469
0.0803028
0.0451698
-0.0258097
0.0296045
0.0568807
0.0955296
0.087114
0.0588731
0.0337242
0.0987342
0.0595381
-0.0380458
0.0939969
0.0601242
-0.0345083
0.0892688
0.0603561
-0.0284032
0.0807731
0.0621235
-0.0183892
0.0565136
0.0627746
-0.00606304
0.0404535
0.0498923
0.00491234
0.0364159
0.0440972
-0.0111812
0.0347055
0.0453436
0.0157538
0.0293899
0.0498917
0.047548
0.0210055
0.0266851
0.0197472
0.0541534
0.0477289
-0.0278185
-0.0205167
0.0266773
0.0547715
0.0337813
0.0526849
-0.123228
-0.110469
-0.0393375
-0.00695997
-0.0482237
-0.142302
0.0123712
0.0449649
-0.0689302
-0.0494959
0.109247
-0.0111129
0.101118
0.12956
0.00802052
-0.0803818
0.142536
0.0466532
-0.0720063
-0.113812
-0.0832091
0.0890038
0.0389273
-0.00893843
0.00499582
0.0245304
0.000122589
0.0252895
0.0077723
0.0105621
0.0041081
-0.0205342
0.0196853
-0.06519
-0.0315952
0.0280407
0.0628987
0.0555763
-0.00317759
0.0253939
0.0393985
0.0942966
-0.0046923
-0.0209126
0.0100677
-0.00738141
0
0
0
0
0
0
-0.0588843
0
0
0.00147619
0
0
0.10133
0
-0.0410957
0
1.01603e-05
0.000131831
0
0
0
0
6.58918e-05
0
0
0
0
0
0
0
0
1.01239e-09
-6.01632e-07
0
0
0
0
0
0
0
0
0
0
1.29458e-05
0
0
0
0
0.000139671
0
0
-3.02663e-05
0
0
0
0
0
0
0
0
0
0
0
0
0
0
0
0
0
0
0
0
0
0
0
0
6.0301e-07
0
0
0
0
-0.0246323
-0.00500645
-0.024907
-0.00714316
0.0106589
0.0133879
-0.00864894
-0.0267355
0.0313337
-0.0105216
-0.043717
0.0247466
-0.00411031
-0.0437399
0.0247967
-0.0105018
-0.0422312
-0.0241192
-0.0141776
-0.0495683
-0.0212248
-0.0249658
-0.0262186
0.00660436
-0.0319671
-0.0279551
0.00658185
0.0376122
-0.0237042
-0.0523465
0.0287327
0.0133136
-0.0412962
-3.229e-05
0
-9.26602e-06
6.44983e-05
-1.13808e-05
-1.11404e-06
0
0
0
0
0
0
0
0
0
0
0
0
0
0
0
0
0
0
0
0
0
0.0544921
0
0.0565729
0.00436048
0.131801
0.0419423
0.0205268
0.0204143
-0.000547962
0.0774593
-0.0102852
-0.0403443
0.111203
-0.0457921
0.0517771
0.0788757
0.0698066
0.0323614
0.0393516
0.054784
-0.0214156
0.0268778
0.024744
-0.0147813
0.0230632
0.014216
0.0188531
0.02435
0.0136587
-0.0197349
0.0113059
0.00923763
-0.0120599
0.0188505
0.0146606
-0.0196575
-0.000309669
0.0094431
0.013743
0
0
0
0
0
0
0
0
0
0
2.83119e-07
0
0
0
0
0
0
0
0
-0.007556
0
0
0
0
0
0
0
0
0
0
0.0103125
0
0.00281988
0
0
0
0
0
0
0
0
0
0
-0.00658487
0
-0.0231978
-0.0219774
-0.00982065
-0.0165168
-0.0129272
0.00378438
-0.0112965
-0.0081783
-0.00186576
-0.010007
-0.0126169
-0.00504592
-0.0360847
-0.0274076
-0.0302808
0.0128069
-0.0128889
-0.0289756
0.0169312
-0.0179831
-0.034699
-0.017852
-0.0773508
-0.0515381
-0.0201279
-0.079176
-0.0516145
0.0252027
-0.0671207
-0.0547828
-0.0122484
-0.0771229
-0.0608347
-0.00895583
-0.0460921
-0.037279
-0.00442048
-0.061943
-0.0469521
0.0046082
-0.020635
-0.0270861
0.00831958
-0.0402901
-0.0269167
0.00389472
-0.0547104
-0.0309819
-0.0163368
-0.048816
-0.026862
0.0144915
-0.0121868
-0.012524
0.03765
-0.0610881
0.0462217
-0.0421251
-0.00866852
0.0361112
0.0615597
0.0507331
-0.0615043
0.0585538
-0.0645987
-0.0038662
0.053554
0.0511632
-0.00880688
0.0328402
0.0531777
-0.0392499
0.0494514
-0.013965
0.0478255
-0.046774
0.0398526
0.0600045
-0.0176715
0.0596522
-0.0501242
0.0440297
-0.0677071
0.0736509
-0.0612173
-0.0259631
0.0516863
0.0700608
-0.0360183
0.0123625
0.0555403
-0.0297355
0.0194151
-0.0567034
-0.0179392
0.0263749
0.0528135
-0.0352091
-0.0929507
-0.0524853
-0.0440544
-0.0937527
-0.0573175
-0.0508709
-0.0988703
0.0552744
-0.0866118
-0.0395953
-0.0510729
-0.0469603
-0.113556
0.0633058
-0.0418531
-0.113331
0.0491457
-0.125793
-0.0537811
0.0760763
-0.0975633
-0.0524603
0.0542623
-0.0702017
-0.0447693
0.0352043
-0.0569903
-0.0336431
0.0311585
-0.0544367
-0.0240655
0.0376433
-0.0538338
-0.0143314
0.0467318
0.00421677
-0.0443204
0.0556293
-0.00407849
-0.0508051
0.0527681
-0.058658
-0.103833
-0.0411233
-0.0994153
-0.0545371
-0.100491
0.0381749
-0.102151
-0.0575086
-0.0493838
-0.0715429
-0.0509317
-0.00949291
-0.07311
-0.0628907
0.00424712
0.0117932
0.0174032
0.0519603
0.0412054
-0.000424444
0.0519701
-0.0468209
0.00906331
0.0474019
0.0526736
0.00432857
0.0612013
0.0579088
-0.0243871
0.0609369
0.0566412
-0.0167789
0.0445593
0.0619611
-0.00412533
0.0409219
0.06988
0.0655578
-0.00728639
0.0610302
0.0702834
0.0885002
0.0759795
0.0466448
0.137139
0.0804994
-0.0384489
0.117511
0.0994363
-0.0271134
0.0439059
0.0728343
0.0256966
-0.00543307
0.0625864
-0.0649917
-0.0562917
0.0453701
-0.0763404
-0.145827
0.0153451
-0.11409
-0.154664
-0.0201851
0.141977
-0.123446
-0.023761
-0.0862783
-0.0401327
-0.0464178
-0.0330814
-0.0634938
-0.0338369
0.0137474
-0.0250643
-0.00965585
0.00680553
-0.0171909
-0.0109182
-0.00586436
-0.0149916
0.000466108
-0.0185749
-0.00897673
-0.01875
0.00948937
-0.000208813
-0.0213993
-0.0156315
0.00696781
-0.0126696
-0.016051
0.0125812
-0.00378178
0.0121737
0.0189103
0.00411125
0.0126054
0.0234362
0.00463092
0.0158815
0.0134254
0.0381662
-0.0198718
0.00474938
0.03364
-0.015558
0.02821
0.0505834
0.0141465
0.0216668
0.0463862
-0.0147327
0.0568775
0.0335502
-0.0170053
0.039219
0.069448
-0.0291256
0.0348162
0.0662429
0.0226993
0.0607405
0.0365639
0.0334031
0.0596586
0.0295993
-0.0315253
0.0735935
0.032571
-0.0257384
0.0292266
0.0508065
0.0914401
0.0804819
0.0458343
0.0320793
0.0948625
0.0583308
-0.0361254
0.0956017
0.0576828
-0.0341783
0.0878766
0.0618386
-0.0273875
0.078899
0.0614362
0.0184359
0.0654111
0.0617641
-0.00793687
0.0414814
0.0581829
-0.00510083
0.0303581
0.04651
-0.015612
0.0280297
0.0456573
0.0207974
0.0250245
0.0479813
-0.0250435
0.0186197
0.0480436
-0.0297683
-0.0357531
0.0465251
-0.0254762
-0.163025
0.141311
0.0185652
-0.134418
-0.0012878
0.00599355
-0.0195143
-0.150214
0.0266552
0.0790023
-0.0485863
0.122296
0.0748336
-0.0306947
-0.0766721
0.112129
0.0139984
0.0785628
0.119919
0.0443524
-0.0394639
0.0284542
-0.0285137
-0.0468029
0.0346159
0.0151172
0.0400192
-0.00153239
0.0828181
-0.0152286
-0.0459356
0.00955145
-0.0670851
-0.0450475
-0.02773
-0.064616
-0.0151667
-0.0249229
0.0107812
0.0764249
0.0960825
0.173745
-0.240347
-0.0193037
0.21189
-0.0146704
-0.0293908
0.019104
-0.0406972
0
0
0
0
0
0
0
0
0
0
0
0
-0.0421987
0
-0.145479
0
0
0
0
0
0
0
0
0
0
0.00311062
0.00193571
0
0
0
0
0
0
0
0
0
0
0
0
0
0
0
0
0
0
0
-4.7613e-06
9.48085e-06
0
0
0
0
-0.000108841
9.93019e-05
0
0
0
0
0
0
0
0
0
0
0
0
0
0
0
0
0
0
0
0
0
0
0
0
0
0
0
7.98974e-06
0
-3.58469e-05
0
0
0
-6.59241e-06
0
1.40187e-05
0.0649696
0.0510762
-0.0556402
-0.00599134
0.0558173
-0.0664149
0.0595111
-0.0310905
-0.00434957
0.00195645
0.0227983
-0.000624941
0.0102434
-0.0170441
-0.0112281
-0.0178034
0.0247347
-0.00789202
-0.0255972
-0.012944
-0.0172429
-0.0361748
0.00330074
-0.0264836
-0.0462131
0.0113023
-0.0267642
-0.0385593
-0.0100456
-0.0347045
-0.00984677
-0.033813
-0.0340166
0.000673588
0.0366248
-0.0422782
0.00621748
2.25692e-06
0
0
0
0
0
0
0
0
0
0
0
0
0
0
0
0
0
0
0
0.0790803
0.0933071
-0.0355591
0.0533862
0
0
0
0
0
0
0.0253526
0.0564423
0.0305227
0.0190189
-0.0158944
-0.0124717
0.0616619
-0.00294781
0.0313161
0.0364963
0.00762732
0.0632529
0.0645519
-0.0241491
0.03273
0.0424094
0.0180302
0.017935
0.00371294
-0.0137745
0.00312044
0.0253341
0.0190743
-0.0222563
0.0227222
0.0123799
-0.0166071
0.020276
0.013919
0.0129391
0.0137176
0.0115313
-0.00333653
0.00590083
0.00769333
0
0
9.11279e-06
8.28573e-07
0
0
0
0
0
0
0
0
0
0
0
0
0
0
0
0
0
0
0
0
0
0
0
0
0
0
0
0
0
0
0
0
0
0
0
0
0
0
0
0
0
0
0
0
0
0
0
0
0
0
-0.0349098
-0.0422447
-0.0280669
-0.0139459
-0.0222097
-0.0157032
-0.00716732
-0.0141146
-0.00789389
-0.00244157
-0.00837983
-0.00924194
0.00493782
-0.00831897
-0.0282936
-0.018085
-0.0182094
-0.0259346
0.00987026
-0.0125411
-0.0329768
0.0232647
-0.0106674
-0.0207226
-0.0155677
-0.0731779
-0.0498686
-0.011947
-0.0745189
-0.0504926
-0.0174952
-0.0746491
-0.0538172
-0.0177732
-0.0661855
-0.0655363
0.000642305
-0.0534809
-0.0354816
-0.0126429
-0.0500595
-0.0477549
2.90659e-05
-0.0223328
-0.0212921
-0.00643774
-0.0426214
-0.0323162
0.000152813
-0.0426059
-0.0255583
-0.00687831
-0.0554671
-0.0271631
-0.0138622
0.019396
0.0410935
0.0458484
-0.0108373
0.0609178
0.048629
-0.00485223
0.0531279
-0.060045
0.0275826
0.084812
-0.058176
-0.019739
0.0334019
-0.0600042
-0.0247926
0.0392644
0.0703447
-0.0207006
0.0452546
-0.0711465
-0.0113604
0.0462131
-0.0498771
-0.0388143
0.0122136
-0.057974
-0.0281426
0.01901
0.0562137
-0.0277923
0.026645
-0.0618295
-0.0379157
-0.0955851
-0.0452555
-0.0434818
-0.0899877
0.0522031
-0.0499394
-0.0981334
-0.0525748
-0.0845454
-0.0423243
0.0427721
-0.0680471
-0.134126
0.0918507
0.0231907
-0.0516457
-0.0953918
0.0349319
-0.0455012
-0.109312
-0.0569559
-0.071753
-0.106254
0.0434624
-0.0793064
-0.0546691
0.035063
-0.0617441
-0.0450759
0.0265814
-0.0580886
-0.0339028
0.0322632
-0.0577458
-0.0235086
-0.04197
-0.0546928
-0.0131117
-0.0476793
0.00410271
-0.0462198
-0.0566493
-0.00507924
-0.0523818
0.0526389
-0.0946016
-0.0605484
0.0332604
-0.0613543
-0.101668
0.0434473
-0.0622995
-0.10687
0.0436981
-0.0995324
-0.056027
0.04599
-0.0615532
-0.0917192
-0.0300424
-0.0693827
-0.0870535
0.0201491
0.01001
0.0103672
0.0489385
-0.0446035
0.00485443
0.0543099
-0.048771
-0.00717643
0.0540672
0.0534936
0.00270745
0.0462325
0.0579994
0.00388821
0.0634035
-0.0612731
-0.0254312
0.0617531
0.0662149
-0.031721
0.0405427
-0.0673507
-0.00819612
0.0441146
0.0734079
-0.00278164
0.0662833
-0.0761829
-0.000802434
0.0569115
-0.0125956
0.0612387
0.000406449
0.0619638
0.0768558
0.0850155
0.0971443
0.0888343
-0.0138379
0.108424
0.0871764
-0.0138992
-0.0958829
0.0617988
0.00804004
0.00446491
0.0698701
0.075058
-0.0307802
0.0695828
-0.110962
-0.108101
0.0534616
0.12397
-0.163473
0.011448
0.152872
-0.113835
-0.010268
-0.109901
-0.0858717
0.000533089
0.0615548
-0.0263022
-0.0184926
-0.0156538
-0.046225
-0.0289361
0.00548593
-0.0270804
-0.0103509
-0.00195887
-0.0198466
-0.0110128
-0.00824278
-0.0188998
-0.0153919
-0.00382556
-0.00904122
-0.0211348
0.0143913
-0.00114188
-0.0223093
0.0146252
0.0050122
-0.0102552
-0.0126435
0.0107316
-0.00197715
0.00656776
0.0170865
0.00572615
-0.00711143
0.0181358
0.00936785
-0.0116283
0.0181553
0.0398928
0.0152624
0.0048918
0.0340122
0.0138365
0.0308924
0.0505959
-0.0141553
0.0232998
0.0462907
0.0136207
0.057571
0.0318923
-0.0180849
0.0387818
0.0686435
-0.0278194
0.0347421
0.0660578
-0.0227621
0.0649506
0.0396182
-0.0287341
0.0629609
0.0361684
-0.0340123
0.0349601
0.0262922
0.0782035
0.0605725
-0.0217074
0.0921547
0.0543899
-0.0323914
0.0910227
0.0570084
-0.0311961
0.0882793
0.0590704
0.0251316
0.0776703
0.0628811
-0.0173015
0.0674512
0.0607703
0.0077112
0.0491894
0.0598924
0.00274105
0.0285117
0.0524566
0.0170467
0.0231195
0.0464674
0.0262487
0.0219118
0.05038
-0.0312541
0.0179898
0.0534711
-0.0343331
-0.0393762
0.0526984
-0.237812
0.0316164
0.0168669
-0.0399591
-0.0123242
-0.224006
-0.0628647
-0.124959
-0.079996
0.0898688
0.0935542
0.194498
-0.239609
0.0429416
-0.114623
-0.0784043
0.0921372
-0.0287589
0.0987755
0.0787201
0.015756
0.0540395
0.107094
0.0542655
-0.00945754
-0.0923286
-0.12082
0.0618481
0.0573801
0.0502667
0.0505727
-0.0797965
0.148828
-0.200742
-0.0469984
0.05175
0.122395
-0.0507876
-0.0442596
0.00729446
-0.0141484
-0.00564166
0.0272747
0.135531
-0.0885998
0.0106188
-0.022658
0.111397
-0.106169
0.0418142
0.135199
-0.070589
-0.183982
0.200228
0
0
0
0
0
0
0
0
0
0
0.00363632
-0.00322297
0.00177613
0
0
0
0
0
0
0
0
-0.00610219
0
-0.00196295
0
-0.013124
0
0
0
0
4.7515e-06
0
-2.78688e-05
0
0
0
0
0
0
0
0
0
-2.61902e-05
-2.45339e-05
-4.30321e-05
0
1.57954e-06
0
-4.99694e-05
-7.24763e-05
2.8139e-05
0
-0.000104338
0
0
0
0
7.45128e-06
0
-5.45194e-05
0
-8.95126e-06
-1.66623e-05
0
0
0
0
0
0
0
0
0
0
0
0
0
0
0
0
0
0
0
0
0
-3.88244e-06
0
5.77894e-06
0
0
0
-3.64805e-05
0
0
0
0
0
0
0
0
0.063484
0.0558921
0.0470488
-0.00296128
0.0790966
0.103372
0.00547755
0.0568699
0.0412507
0.0841788
-0.0315125
-0.10401
0.0174742
-0.00643707
-0.0128479
-0.000974713
-0.00966773
-0.0150815
0.00261049
0.0105922
-0.0138234
-0.0117866
-0.0012766
-0.0199545
-0.0161687
0.00118917
-0.0247757
-0.0195247
0.00655065
-0.0330255
-0.0412101
0.00325285
-0.036449
-0.0328883
0.000400557
-0.0399377
-0.0138492
0.0304736
-0.0337217
-0.00617807
0
0
0
0
0
0
0
0
0
0
0
0.0858881
0.0834584
0.0234339
0.0530069
0
0
0
0
0
0
0.064429
0.0307304
-0.038904
-0.00152605
0
0.00814345
-0.0725913
-0.0380334
0.0599227
0.0055654
-0.0492299
0.00925093
0.0187125
0.00316785
-0.0231893
0.0295514
0.01338
0.0108448
0.000257041
0.00401077
-0.0127644
0.0547009
0.0606276
-0.0195539
0.0346843
0.0390311
-0.0201457
0.0267234
-0.00403555
-0.012559
0.0392066
0.0198487
0.0224629
0.0245747
0.0185716
-0.0179113
0.0225807
0.0109597
0.000116381
0.0095679
0.0231241
-7.31469e-08
0
0
7.00941e-07
0
-7.65883e-06
0
0
0
0
6.47549e-06
0
-8.32774e-07
0
7.308e-06
0
0
0
0
0
0
0
2.77418e-05
0
7.28629e-05
9.01503e-05
-0.00015863
-4.94494e-05
0
0
0
0
0
0
0
0
0
0
0
0
0
0
0
0.000153756
4.21046e-05
0
0
0
0
0
0
0
0
0
0
0
0
0
0.000195119
0
0
0
0
0.000121251
0
0
-0.0360737
-0.040443
0.0225904
-0.0155913
-0.0314529
-0.0206706
-0.0103307
-0.0170378