/*--------------------------------*- C++ -*----------------------------------*\
  =========                 |
  \\      /  F ield         | OpenFOAM: The Open Source CFD Toolbox
   \\    /   O peration     | Website:  https://openfoam.org
    \\  /    A nd           | Version:  8
     \\/     M anipulation  |
\*---------------------------------------------------------------------------*/
FoamFile
{
    version     2.0;
    format      ascii;
    class       volScalarField;
    location    "15480";
    object      nut;
}
// * * * * * * * * * * * * * * * * * * * * * * * * * * * * * * * * * * * * * //

dimensions      [0 2 -1 0 0 0 0];

internalField   nonuniform List<scalar> 
526318
(
0.000111916
0.000339177
0.00042204
0.000166207
0.000259913
7.20759e-05
0.000312363
0.00028513
6.32344e-05
9.8249e-05
3.08128e-05
0.000172041
7.824e-05
0.00027539
3.82691e-05
0.000249987
0.000301023
0.000354111
6.9671e-05
0.000232867
0.000267115
0.000624267
0.000117322
0.000187679
0.000191184
0.000255193
0.00010638
0.00042081
0.000224591
6.7816e-05
0.000184972
0.000222857
0.000292936
0.000338684
0.000409964
0.000340525
0.000146127
0.000133532
0.000150752
0.000534543
0.000130449
0.000148865
0.00011556
0.000172504
0.000140088
0.000197787
0.000128318
0.000218176
0.000175532
0.000210013
0.000160352
0.000242807
0.000341307
0.000319782
4.28103e-05
9.93813e-05
0.000130672
0.000190988
0.00013633
0.000278513
0.000464904
0.000190544
0.000377373
0.000106992
0.000119563
0.00033039
0.000377095
0.000335002
0.000286033
0.000190475
0.000282447
0.000354604
7.31828e-05
0.000192224
8.64129e-05
0.000201483
0.00014951
0.000314337
0.000170146
0.00032469
0.000311683
3.82387e-05
0.000217177
9.23616e-05
0.000268079
0.000446858
0.000386336
0.000222478
0.000285938
7.59134e-05
0.000159093
0.000357147
0.000418493
0.000303576
0.00032134
0.000172652
9.87602e-05
0.000264902
0.000224905
0.000120045
7.88375e-05
1.0021e-05
6.0127e-05
8.52068e-05
0.000145399
0
9.37548e-05
0.000177097
9.96103e-05
0.000266071
0.000205618
9.81441e-05
0.000206472
0.00022376
0.000139849
0.00020523
9.33306e-05
0.000225645
0.000171615
9.64906e-05
0.000200158
0.000151478
0.000107152
0.000214482
0.000190134
0.000227435
0.000223029
0.000220899
0.0001842
0.000194517
0.000215852
0.000228599
0.000165923
0.000190963
0.000176261
0.000165616
0.000186819
0.000169577
0.000179524
0.000173155
0.000175056
0.000186396
0.000186084
0.000175655
0.000179303
0.000177241
0.000160643
0.000134194
0.000156743
0.000131774
0.000142611
0.000107793
0.000109239
0.000135413
0.000116542
0.000132817
0.000147859
0.000171733
9.42298e-05
0.000102797
0.000150546
0.000129398
0.000160772
0.000180267
0.000231334
7.37299e-05
0.000289457
0.000136295
0.000300015
0.000194634
3.22629e-05
0.000122001
6.21322e-05
6.7579e-05
0.000161336
0.00011312
0.000210595
0.000240564
8.60601e-05
8.48165e-05
0.000180959
0.00024173
0.000184896
0.00026754
0.000199951
0.000214873
0.000204942
0.000185098
0.00022037
0.000189729
0.000204452
0.000212543
0.000206655
0.000199919
0.000182326
0.000141679
0.000157359
0.0001459
0.000144448
0.000162253
0.000174742
0.000221654
0.000163942
0.000156921
0.000176102
0.000172142
0.0001269
0.000120367
0.00013261
0.000121696
0.000366445
0.000523257
0.000265105
0.000491627
0.000578685
0.00038696
0.000478929
0.000458364
0.000278059
0.000171166
0.000150734
0.000151793
6.50344e-05
0.000302721
9.3934e-05
0.000361467
0.000250571
0.000215908
0.000192707
0.00015121
0
1.38293e-05
0.000149659
0
0
0
0
0
0
0.000241999
0.000469783
0.000380611
0.000275753
0.00016191
0.000270042
0.000240298
0.000131992
0.000190122
0.000183253
0.000193557
0.000112877
0.00014752
0.000390806
0.000146305
0.000403023
0.000387499
0.000207727
0.000151169
0.000236707
0.000217307
0.000217845
0
0
0
0
1.79011e-05
0.000159333
6.07527e-05
3.85221e-05
0.000101101
0.000312472
0.000207739
0.000173206
7.608e-05
0.000259407
0.000154709
0.000246197
0.000154968
0.000192678
0.000223778
7.41932e-05
0.000198103
0.000207765
0.000185104
0.000207036
0.000194717
0.000137484
0.000164239
0.000146638
0.000165724
0.000154171
0.000180406
0.000177544
0.000145791
0.000134437
7.55553e-05
9.44716e-05
9.62757e-05
8.48061e-05
8.25048e-05
8.39785e-05
8.1766e-05
9.51055e-05
8.66842e-05
8.30593e-05
8.00003e-05
0.00018062
0.000187993
0.000118336
0.000125149
9.69027e-05
8.98851e-05
7.29166e-05
8.94894e-05
0.000111936
9.05834e-05
7.80912e-05
5.39575e-05
8.46509e-05
8.58969e-05
1.17521e-05
8.57988e-05
0.000379303
0.00016247
0.000283049
4.76941e-05
0.000161344
0.000146793
8.35614e-05
0.000124475
0.000125538
6.39786e-05
0.000190009
4.83548e-05
0.000162723
6.35687e-05
0.000191542
0.000141228
7.58626e-05
0.000225233
0.000226525
0.000204815
0.000177018
0.00018973
0.000186757
0.000184576
0.0002106
0.000213983
0.000207167
0.000210496
0.000173217
0.000177351
0.000172685
0.000165529
0.000195194
0.000202594
0.000180235
0.000183796
0.000149296
0.000137562
0.00015269
0.000131621
0.00010031
0.00010953
0.000108001
0.000120851
8.69297e-05
0.000103847
0.000118345
9.81616e-05
9.4604e-05
8.16394e-05
0.000121332
0.000128275
0.00011671
0.000156367
0.000112558
0.000111023
6.34093e-05
0.00021093
0.000678707
0.000671119
0.00029932
0.000463158
0.00015337
0.000527181
0.000128783
9.63599e-05
9.40939e-05
0.00016555
5.27584e-05
0.000225303
0.000153078
0.000213984
0.00021976
2.09816e-05
0.000111997
8.92416e-05
8.4797e-05
0
4.7059e-05
3.13896e-05
1.69097e-05
8.59237e-05
0.000169928
0
0
0
0
0
0
0
0
0
0
0.000229088
0.000413133
0.000155541
0.000295376
0.00015925
0.000186606
0.000204095
0.000277101
7.8023e-05
0.000320444
0.000207879
0.000184088
0.000169179
0.000216641
0.000253651
0.00031893
0.000105158
0.000272476
0.000245381
0.000262186
0.000228652
0.000188629
0
2.10941e-10
8.36701e-11
0
0
0
0
8.06247e-11
1.60519e-10
1.77115e-11
0
0
0
0
0
0
0
0
0
0
9.34573e-05
0
0.000143939
7.26343e-05
9.01305e-05
0.00013802
0.000276447
0.000228788
0.000228239
0.00014966
0.000309282
0.000132736
0.000106227
0.000376285
0.000144601
0.000315638
8.12266e-05
0.000149865
0.000204742
0.00021126
0.000201874
0.000144088
0.000125429
0.00017424
0.000140722
0.000147359
0.000124581
0.000127159
0.000161241
0.000149558
0.000139069
0.000140646
8.23326e-05
5.49959e-05
5.66094e-05
9.42268e-05
5.92038e-05
7.62287e-05
0.000113986
8.013e-05
0.000115282
0.000120488
0.000148195
8.8944e-05
0.00013831
0.000105131
0.00010664
9.48194e-05
9.05551e-05
0.000121896
0.000203654
0.000196254
0.000152072
0.00021849
0.000195522
0.000152257
0.000134862
0.000100506
5.45825e-05
0.000148504
0.000124999
3.37064e-05
8.49656e-05
9.07879e-05
0.000439471
0.000141005
0.000107652
0.000230102
0.000199561
2.72807e-05
0.000118805
6.40047e-05
0.000158116
3.85034e-05
0.000218836
4.92922e-05
9.46741e-05
4.62299e-05
0.000143129
0.000114139
5.12751e-05
0.000200718
0.0001419
0.000158364
0.000192414
0.000162629
0.000174747
0.000174993
0.000166469
0.000195933
0.00018843
0.000214197
0.000197889
0.000201209
0.00017913
0.000193787
0.000167574
0.00020136
0.000226754
0.000231435
0.000207113
0.000201861
0.000170924
0.000125308
0.000133525
0.000164093
0.000167702
7.61683e-05
0.000117764
0.000124682
0.00010925
0.00013363
0.00010166
9.7292e-05
0.000142606
0.000134372
0.000126025
7.3914e-05
0.000149402
0.00016198
8.41383e-05
0.000129084
0.000162424
6.5414e-05
0.000149855
3.56592e-05
0.000265612
0.000225726
0.000435217
0.000262091
0.000617024
0.000179771
0.000230567
0.000115524
0.000198816
0.000234521
0.00017951
7.80438e-05
0.000299957
0.000221035
6.36736e-05
8.61233e-05
0.000151061
0.000158554
6.90149e-05
0
0
9.48039e-05
0
8.48212e-05
0.000254663
0
0
0
0
0
0
0
0
0
0
0
0
0
0
0
0
0
0
0
0
1.97637e-09
0
0
0
7.25432e-10
2.11261e-09
0
0
0
0
0
0
0
0
0
0
0
0
0
0
0.00026191
0.000364469
0.000196694
0.000334436
0.000343802
0.000355566
0.000439018
0.000292863
0.000354228
0.000180667
0.000259245
0.000110437
0.000229612
0.000287778
0.000195495
0.000255409
0.000225463
0.000163778
0.000164354
0.000219006
0.000181613
0.000209261
0
0
0
0
0
0
0
0
0
0
0
0
0
0
0
0
0
0
0
0
0
0
0
0
0
0
0
0
0
0
0.00011909
1.21309e-05
9.25506e-05
0.00011791
0.000202194
0.00017005
0.000339436
0.000184217
0.000218021
0.000250116
0.000127249
0.000312833
0.000182557
3.73762e-05
9.64524e-05
0.000243596
0.000179664
0.000129258
7.59846e-10
0
0
0
0
0
0
0
0
0
0
0
0
0
0
0
0
0.000154006
0.000193325
0.000106241
0.000187834
0.000168046
0.000154175
0.000103334
0.00010817
9.11792e-05
0.000118352
0.000117099
9.3935e-05
7.97481e-05
8.5569e-05
6.22812e-05
3.54261e-05
8.27529e-05
6.42342e-05
5.76112e-05
7.28852e-05
8.83784e-05
7.22173e-05
4.72429e-05
2.61907e-05
0.000133383
4.15803e-05
2.48157e-05
5.73627e-05
4.2843e-06
2.40173e-05
4.08728e-05
4.73556e-05
4.63155e-05
0.000169489
0.000137607
0.000122857
0.000174531
0.000213872
0.000148171
5.11561e-05
0.000119613
0.000162658
0.000213949
0.000127432
0.000228513
0.000128889
9.4296e-05
9.04892e-05
0.000138417
0.000148214
5.60237e-05
7.16605e-05
0.000206198
7.62188e-05
1.79888e-05
0.000146034
6.23328e-05
7.00231e-05
0.000105288
0.00020556
0.00025283
2.79843e-05
0.000132605
7.20162e-05
5.35925e-05
4.20938e-05
9.5257e-05
7.18153e-05
0.000103103
7.81404e-05
4.65061e-05
9.91531e-05
0.00010822
0.000141273
0.000165321
0.000142016
0.000161393
0.000179902
0.000200217
0.00018998
0.000172906
0.000211248
0.000210028
0.000158859
0.000192558
0.000225448
0.000221537
0.00022055
0.000188734
0.000204766
0.000164355
0.000179746
0.000165998
0.00012685
0.000138738
0.000164345
0.000143387
0.000138911
0.000171969
0.000134297
0.000147266
0.00013264
8.28513e-05
0.000121532
9.65363e-05
0.00011439
6.65869e-05
0.000145455
5.78835e-05
0.000155096
2.86e-05
0.00013673
0.00015465
2.52738e-05
7.72761e-05
3.28448e-05
0.000188292
9.83427e-05
0.000214266
0.000218964
6.99303e-05
0.000159908
8.6717e-05
0.000112904
0.000169505
0.000180684
0.000122791
0.000232129
0.000180174
0.000251738
0.000228911
0.000160648
0.000183145
0.000246189
0.000213465
0.000154364
0.000166152
0.000199493
0.000145005
0.000130425
0.000184332
0.000189778
0.000147437
0.000222515
0.00012128
0.000209819
0.000158814
0.00011303
0.000163956
0.000126028
0.000207354
0.000168562
0.000188387
0.000151931
9.89311e-05
8.78214e-05
9.20499e-05
0.000119749
0.00027163
0.000158265
9.49754e-06
0.000155316
9.49172e-05
0.000213179
0.000222287
0.00015418
0.000150556
0.000274408
0.000245233
2.68896e-05
5.73382e-05
0.000209097
6.56334e-05
7.63044e-05
6.73346e-05
0.000124479
0
0
3.78008e-05
0
4.59106e-05
1.73523e-05
0
0
0
0
0
3.57118e-09
0
0
0
0
0
0
0
0
4.03604e-09
0
0
0
0
0
0
0
0
0
0
0
0
0
0
0
0
1.69827e-09
0
0
0
0
0
0
9.907e-10
0
6.5115e-10
0
0
0
0
0
0
0
0
0
0
0
0
0
0
0
0
0
0
0
0
0
0
0
0
0
0.000338363
0.000260473
0.000309102
0.000360283
0.00036262
0.000270569
0.00022458
0.000209794
0.000252429
0.00033036
0.0001638
0.000273064
0.000177296
0.000155574
0.000118941
0.000167854
0.000157497
0.000124671
0.00021059
0.000125316
0.00017117
0.000201465
0
0
2.16885e-10
7.30243e-10
0
0
0
0
9.42457e-10
0
0
0
0
0
0
0
0
0
0
0
0
0
3.40872e-09
2.90282e-09
0
0
8.36047e-05
4.06669e-05
0.000146144
0.000208512
0.000224693
0.000323615
0.000138778
0.000219698
0.000149873
0.000254602
0.000114336
0.000194963
0.000174521
0.000210889
0.00018378
6.47477e-05
0.00014316
0.000229342
4.9901e-10
0
0
0
0
2.64089e-11
0
0
1.03577e-11
0
0
0
0
0
0
0
0
0
0
0
0
0
0
0
4.98627e-07
6.6155e-07
0.000154738
0.000102217
0.000171209
0.000103444
0.000106642
0.000116663
9.84088e-05
7.93758e-05
8.89892e-05
0.000115152
8.82971e-05
5.95596e-05
8.47224e-05
9.43808e-05
4.83668e-05
3.4583e-05
5.12842e-05
5.22119e-05
8.22266e-05
9.47177e-05
4.69175e-05
3.99619e-05
4.34117e-05
1.6217e-05
7.61853e-05
4.29341e-05
5.35142e-05
7.49606e-05
1.0115e-05
2.58458e-05
2.80211e-05
2.88407e-05
0.000118573
0.000196517
0.000213311
0.000208015
0.000196357
0.000230107
0.000195968
0.000228788
0.000268844
0.000173323
0.000174029
0.000264338
0.00025774
0.000282079
0.000302898
0.000258774
0.00025563
0.000290745
0.000265268
0.00022728
0.000288465
0.000237923
0.000203304
0.000279892
0.000119098
0.000154421
0.000149174
0.000164911
0.000236792
0.00021833
0.000111307
0.000209874
0.000197997
0.000118374
0.000142306
9.12829e-05
0.000137167
0.000153279
6.43127e-05
0.000110684
3.85892e-05
3.04769e-05
6.14497e-05
8.59643e-05
0.00010983
0.000224447
5.17722e-05
0.00025275
0.000267639
0.000133633
8.59032e-06
9.04673e-05
3.81742e-05
6.49357e-05
8.30305e-05
6.96467e-05
2.49807e-05
4.35073e-05
0.000112514
0.000119118
9.56134e-05
0.000116839
0.000137957
9.06665e-05
0.000173451
0.00013194
0.000162052
0.000209596
0.00022019
0.000154245
0.000181691
0.000227625
0.000197207
0.000226234
0.000203155
0.000188897
0.000155322
0.000176437
0.000158604
0.000144726
0.00017067
0.000136413
0.000145704
0.000138281
0.000145161
0.000152359
0.000152902
0.000165558
0.000101081
0.00013263
7.82241e-05
0.000126939
0.000126877
9.87786e-05
8.15634e-05
0.00013245
0.000133833
6.72683e-05
4.91095e-05
0.000136691
2.92051e-05
0.000145577
3.26105e-05
0.000113848
0.000105284
4.29372e-05
6.73123e-05
0.00011237
6.95991e-05
0.000102341
7.81338e-05
0.000102702
7.8867e-05
5.86005e-05
8.45118e-05
0.000106922
9.50942e-05
0.000229257
0.000376746
0.000208355
0.000334259
0.000149426
5.05663e-05
0.00025859
0.000244119
0.000111729
0.00010561
0.000138329
0.000172591
0.000145193
0.000153696
0.000179094
0.000164328
9.99788e-05
0.00011335
6.42355e-05
0.000163337
8.39824e-05
2.1185e-05
0.000297575
0.000182824
8.11263e-05
0.00031612
6.31904e-05
9.87767e-05
0.000106023
9.7268e-05
0.000142685
1.46774e-06
0.00010125
6.86796e-05
0.000154517
4.5897e-05
0.000135419
0.000174564
0.000123907
0.000281439
0.00056566
0
0
0
0
0
2.24311e-08
0
0
0
4.21487e-09
0
0
0
0
0
0
0
5.83578e-09
0
0
0
0
0
0
0
0
2.08197e-11
0
0
0
0
0
0
0
0
0
0
0
0
0
0
1.7944e-10
0
0
0
0
0
0
0
0
0
0
0
0
0
0
0
0
0
0
6.99649e-06
0.000321419
0.00026487
0.000204634
0.000202632
0.00022021
0.000141063
0.000401226
0.000180622
7.25689e-05
0.000218176
9.54325e-05
0.000136541
0.000138744
8.22305e-05
0.000101693
9.23211e-05
0.00015476
0.000111476
0.000150143
0.000146977
0.000172554
2.07829e-10
0
5.31985e-10
0
0
0
0
0
0
0
0
0
0
0
0
0
0
0
0
0
0
0
0
0
0
0.000158469
7.93141e-05
0.000204623
0.0002952
0.000175789
0.000229506
0.000318208
0.00015215
0.000285493
0.000127174
0.000241416
0.000205886
0.000129816
8.02683e-05
0.000213394
0.000134185
7.58172e-05
0.000120829
0.000135444
0
0
0
0
0
0
0
0
0
0
0
0
0
0
0
0
0
0
0
0
0
0
4.03347e-07
0
0
0
0
0
0
0
0
0.000108648
8.53965e-05
6.57057e-05
0.000123757
7.3697e-05
7.53667e-05
8.91665e-05
8.42569e-05
3.46757e-05
9.00064e-05
6.52328e-05
4.92283e-05
4.89423e-05
3.66606e-05
3.39711e-05
8.51345e-05
9.0994e-05
2.53601e-05
5.23605e-05
9.43417e-05
8.98815e-05
6.50604e-05
5.72714e-05
3.69024e-05
6.17682e-05
0.000114299
3.14735e-05
1.62493e-05
4.18482e-05
7.25322e-05
6.6802e-05
2.80212e-05
0.00010848
3.65888e-05
3.88947e-05
0.000228021
0.000280065
0.000285368
0.000293127
0.000295491
0.000262253
0.000286129
0.000330999
0.000284806
0.000288394
0.000389618
0.000283355
0.000342842
0.000295698
0.000177799
0.000110253
0.00017732
0.000211643
0.000173594
0.000199411
0.000249808
0.000233705
0.000245911
0.000227155
0.000180365
0.000252444
0.000250776
0.000287883
0.000273075
0.000121351
0.000136358
0.0001001
0.000127692
9.57943e-05
0.000146482
0.000206854
0.000261449
0.000254885
0.000258885
0.000219485
0.000185234
0.000270687
0.000295036
0.000330254
0.000262405
0.000358103
0.000276963
0.000319256
0.000295458
0.000325702
0.000296545
0.000312636
0.000277123
0.000299357
0.000298677
0.000260703
0.000329863
0.000292004
0.000294273
0.000245563
0.000193108
0.000217005
0.00027925
0.000103003
0.00021827
0.0001541
0.000216461
0.000133735
0.000144486
0.00016646
7.60255e-05
0.000148784
7.11165e-05
9.05257e-05
0.00019957
0.000191605
0.000183539
0.000219379
0.000211604
0.00027752
0.000240143
0.000254669
0.00027661
0.000288614
0.000324744
0.000266107
0.00028275
0.000296701
0.000298639
0.000307572
0.000293941
0.000299449
4.28404e-05
0.000175883
9.88695e-05
0.000116762
0.00024519
0.000283698
0.000326909
7.44692e-05
0.000157937
0.000168405
0.000135221
0.000122789
9.0534e-05
5.89732e-05
0
1.74657e-05
3.72266e-05
1.788e-05
7.57425e-05
7.56975e-05
5.92724e-05
8.13963e-05
0.000112236
0.000132029
0.000180389
0.000143015
0.000208075
0.000162963
0.000199407
0.000183884
0.000242306
0.00017364
0.000217988
0.000191321
0.000192701
0.000175319
0.000171837
0.000167483
0.000147506
0.000157372
0.000136032
0.000160123
0.000150042
0.000170717
0.000159653
9.99228e-05
0.000120116
0.000168259
9.48258e-05
0.000154358
7.93306e-05
0.000119202
0.000138921
9.34386e-05
0.000104139
0.00011614
9.97725e-05
8.78376e-05
6.67932e-05
9.28461e-05
1.87551e-05
5.46115e-05
3.67849e-05
3.4049e-05
4.7455e-05
7.21122e-05
3.9166e-05
5.75239e-05
2.20997e-05
1.86652e-05
8.13324e-05
6.0166e-05
4.78679e-05
0.000111746
7.27854e-05
8.51006e-05
0.000320345
0.000131805
0.000411722
0.00056245
0.000486479
0.00058732
5.53687e-05
0.000434472
0.000170535
0.000431795
0.000143638
0.000399512
0.000110219
0.000182776
0.000121212
0.000200975
0.000339583
9.02992e-05
0.000212999
0.000223976
0.000119139
6.33571e-05
6.35319e-05
6.14376e-05
0
0
0
1.63467e-05
5.60411e-05
0.000145744
0.000135865
7.75008e-05
0
0
0
0
0
6.31553e-10
7.40391e-10
2.44655e-08
0
0
0
0
0
0
0
0
0
0
0
2.42902e-09
0
0
0
0
0
0
0
0
2.62824e-07
0
0
0
0
0
0
0
0
0
0
0
0
9.42362e-11
0
0
0
0
3.18082e-11
0
0
0
0
0
0
0
0
0
0
0
0
0
0
0
0
0
0
0
2.26461e-09
0
0
0
0
2.52862e-09
0.000358444
0.000346667
0.000338162
0.000369456
0.000330367
0.000336253
0.000305351
0.000138979
0.000261261
8.27165e-05
0.00035671
0.000201828
0.000164153
0.000149611
6.85281e-05
0.000171598
0.000120862
9.96444e-05
0.000146612
0.000147485
6.24986e-05
9.01115e-05
9.22079e-05
0.000128935
0.000112479
0
0
0
0
0
0
0
0
0
0
0
0
0
0.000251872
0.000219169
0.000208482
0
0
0
0
0
0
0
0
0
0
3.11498e-05
0.000103405
0.00035324
0.000273126
0.000248214
0.00017162
0.000107869
0.00021294
0.000308955
1.39702e-05
0.000297756
0.000197912
0.000262899
0.000186572
0.000160037
0.000186576
0.000194405
0
2.79103e-10
0
0
0
0
0
0
0
0
0
0
0
0
0
0
0
0
0
0
0
0
0
0
0
0
0
0
0
0
0
0
0
0
0
0
0
3.30232e-05
4.68712e-05
8.78984e-05
8.20563e-05
5.60195e-05
9.8825e-05
4.51156e-05
6.57637e-05
8.88689e-05
4.76188e-06
2.63571e-05
5.97014e-05
6.15622e-05
1.79347e-05
3.51396e-05
1.27659e-06
3.24318e-05
6.7481e-05
5.37273e-05
4.83817e-05
5.0898e-05
0.000105403
3.32569e-05
1.99014e-05
3.66905e-05
4.40696e-05
3.38536e-05
3.239e-05
3.83461e-05
3.33151e-05
6.84324e-05
0
1.5781e-05
0
2.44593e-07
0
0
0.000250176
0.000276745
0.000313641
0.000292725
0.000348479
0.000271962
0.000318231
0.000336702
0.000202565
0.000155663
0.000108662
0.000204899
0.000277415
0.000190931
0.000212296
0.000189456
0.00019277
0.000191563
0.000149195
0.000164988
0.00016517
9.67134e-05
0.000323126
0.000339046
0.000289842
0.000263571
0.000211247
0.000203092
0.000323632
0.000311726
0.000373156
0.000193322
0.000360542
0.000418811
0.000302333
0.000258648
0.000273033
0.000311429
0.000253804
0.000303163
0.000220904
0.000217764
0.000283853
0.000257874
0.000320012
0.000345916
0.000246603
0.00038951
0.000275674
0.000240315
0.000124727
0.000425755
0.000341217
0.000196724
0.000152561
0.000201196
0.000145321
0.000173512
0.000145571
0.000154858
0.00019716
0.000142763
0.000117063
0.000135983
8.47177e-05
0.000158732
0.000357135
0.000324158
0.000183307
0.000170597
0.000215744
0.000249551
0.00027303
0.000279545
0.00028906
0.000264433
0.000285648
0.000302734
0.000273318
0.000267373
0.000270913
0.000268082
0.000314047
0.000296167
0.00015056
0.000199499
0.000249557
0.000285133
0.000365704
0.000353677
0.000210071
0.000319721
0.000411568
0.000106008
0.000212878
0.000338275
0.000153569
5.25486e-05
9.63668e-05
7.15082e-05
0.000102765
0.000101951
0
0
2.6312e-06
0
5.66726e-05
6.0205e-05
6.66191e-05
5.96102e-05
3.02303e-05
5.6857e-05
0.000198391
9.04727e-05
0.000233585
0.000170724
0.000137338
0.000195568
0.000133775
0.000222955
0.000152001
0.000184781
0.00016829
0.000198129
0.000190738
0.000177485
0.000172101
0.000191767
0.000173322
0.000184602
0.000161181
0.000139685
0.000176539
0.000199555
0.000109514
0.000163177
0.000164345
0.000123151
0.000117203
0.000148748
0.000109516
0.000134708
9.4911e-05
0.000135534
0.000150556
9.74274e-05
0.000134345
3.41817e-05
9.78832e-05
7.88383e-05
3.21453e-05
6.302e-05
3.70779e-05
6.64464e-05
3.31061e-05
2.43712e-05
8.86242e-05
5.88616e-05
7.34599e-05
0.000120212
6.49764e-05
4.90126e-05
9.93486e-05
0.000101484
0.000232161
0.000302266
0.000559071
0.000717006
0.000341182
0.000593298
0.000655946
0.000526852
0
0
0
0
0.000265965
0.000182928
0.00056341
7.10022e-05
0.000343998
3.51338e-05
0
0
0
3.21265e-05
0
0
5.79623e-05
0
0
0
0
0
0
0
0
2.57144e-11
0
0
1.82596e-09
4.95285e-10
0
0
0
0
0
0
0
0
0
0
0
0
3.16614e-07
0
0
0
0
0
0
0
0
1.24793e-07
0
0
0
0
1.27206e-09
0
0
0
0
0
0
0
3.88526e-10
0
0
0
6.03962e-11
1.0944e-09
0
0
0
0
3.04171e-09
0
4.03901e-09
0
0
0
0
0
0
0
0
0
0
0
0
0
0
0
0
0
1.40732e-09
0
0
0
0
0
0
0
0
0.00052149
0.00050639
0.000324072
0.000407875
0.00035558
0.00034557
0.000421566
0.000366664
0.000353473
0.00040633
0.000265743
0.000262385
0.000345295
0.000150423
8.16251e-05
0.000337159
7.95247e-05
2.41116e-05
0.000114924
9.57092e-05
7.86708e-05
7.5019e-05
8.82755e-05
9.86442e-05
5.98008e-05
4.37564e-05
5.78243e-05
0
0
0
0
0
0
0
0.000207117
0.000268148
0.000113025
0
0
0
0
0.000371595
0
0
0
0
1.54488e-11
0
0
0
0
0
0.000156003
0.000358804
0.000219631
0.000229167
0.0002954
0.000232884
0.000156754
0.000400332
4.9908e-05
0.000198689
0.000222047
0.000387146
0.000133671
0.000416447
0.000217483
0.00033214
0
0
2.63557e-10
0
0
0
0
9.91074e-11
0
0
0
0
0
0
0
1.99129e-09
0
8.95143e-10
1.51176e-09
0
0
0
0
0
0
0
0
0
0
0
8.76031e-10
0
0
0
0
0
0
0
0
0
0
0
0
0
7.55485e-10
2.26824e-05
6.21101e-05
5.16072e-05
7.81033e-06
3.77508e-05
5.09102e-05
3.67128e-05
8.34564e-05
6.73163e-05
2.96587e-05
6.25208e-05
3.61407e-06
5.59873e-05
2.61683e-05
2.00298e-05
2.84551e-05
2.47773e-05
0
0
1.52951e-05
3.96435e-05
3.46251e-05
5.9343e-05
0.000129275
2.29917e-05
9.00201e-05
4.26823e-05
9.06379e-06
0
2.10511e-05
2.79532e-05
0
0
0
0
0
0
0
3.67003e-09
0.000299926
0.000240104
0.000224355
0.000270564
0.000502967
0.000379676
0.000388046
0.000519942
0.000269289
0.000414422
0.000213861
0.00038981
0.000381227
0.000386984
0.00012516
0.000170024
0.00017715
0.000256397
0.000194101
0.000251682
0.000232606
0.000332145
0.000184993
0.000201495
0.000161673
0.000150339
0.00022328
0.000273168
0.000359558
0.000385435
0.000276893
0.000277824
0.000202096
0.000261408
0.000334782
0.000354611
0.000360452
0.000257325
0.000324403
0.000432721
0.000218386
0.00017111
0.000158699
0.000240928
0.000152056
0.000141331
0.000280441
0.000131538
0.000235416
0.000436357
0.000358349
0.000388514
0.000217771
0.000217154
0.000383739
0.000269486
0.000309186
3.68864e-05
0.000143095
0.000163571
0.000179631
0.000211271
0.00018542
0.000167279
0.000272355
0.000182809
0.000121542
0.000190301
0.000162908
0.000115402
0.000592433
0.000405714
0.0003359
0.000264275
0.000304758
0.000226984
0.000219507
0.000216989
0.000260865
0.000275234
0.00026572
0.000248132
0.000282429
0.000259538
0.000247105
0.000257404
0.00023137
0.000246945
0.000247296
0.000261408
0.000259212
0.000251062
0.000258428
0.00025163
0.000331336
0
0.000162738
1.57645e-06
0.000154125
0
0
0
0
0
0
0
0
0
0
0
0
7.70928e-05
7.04234e-06
7.4637e-05
2.05705e-05
1.40177e-05
8.19943e-05
0.000180912
2.80444e-05
0.000131564
0.000207793
0.00010989
5.98695e-05
0.000180885
0.000126705
0.00017869
0.000159414
0.00017825
0.000162898
0.000169271
0.000135316
0.000122539
0.000190035
0.000213343
0.000221157
0.000165608
0.000160912
0.000180929
0.000201367
0.000159737
0.000135671
0.000166817
0.000171782
0.000108466
0.000148352
0.000115233
0.000138675
0.000105805
0.000164603
8.64515e-05
0.000127537
0.000123074
6.16543e-05
9.46197e-05
3.70976e-05
0.000118914
2.28385e-05
0.000120459
7.39263e-05
9.96651e-05
0.000124078
0.000113412
0.000123876
0.000137381
4.11195e-05
7.43972e-05
8.35791e-05
7.6292e-05
0.000147606
0.000126778
0.000489216
0.000937609
0.000404376
0.000419333
0
0
1.87847e-07
3.85116e-11
0
0
0
6.80878e-05
0
0
0
3.31975e-08
0
4.53978e-08
6.65571e-08
0
0
0
2.86916e-08
8.46289e-07
0
0
0
1.67108e-09
0
1.80756e-09
9.78945e-10
0
0
0
0
0
0
0
0
3.74792e-08
0
0
0
0
0
0
2.11193e-06
0
0
0
0
0
0
0
0
0
0
0
0
0
0
0
0
0
0
0
0
0
0
0
0
0
0
0
0
0
0
0
0
0
0
0
0
0
0
0
0
0
0
0
0
0
0
0
0
0
0
0
0
0
0
0
0
0
0
0
0
0
0
0
0
0
0
0
0
0
2.12782e-11
0
0
0
0
0.00031796
0.000271031
0.000336465
0.000382995
0.000423016
0.000439216
0.000354814
0.000393839
0.000419064
0.000393794
0.000416381
0.00045419
0.000340242
0.000464928
0.000622472
5.1923e-05
0.000216507
0.00028602
0.000234699
0.000134666
6.78407e-05
0.000112936
7.03973e-05
0.000112982
6.72021e-05
8.07242e-05
4.33896e-05
1.76359e-05
1.3183e-05
0
0
0
0
4.13149e-05
0.000199699
0.000204866
0
0
0.000208149
0.000173425
0
0
0
0
0
0
2.66742e-09
1.67736e-09
0
1.52506e-09
0
0
0
0.000163241
0.000117237
1.21367e-05
0.000200303
0.000230855
0.000221977
0.000215006
0.000153175
0.0001606
0.000233849
7.44129e-05
4.97729e-05
8.97324e-05
5.0488e-05
0.000138305
0.000143776
0
8.12016e-10
0
0
0
0
0
2.03755e-11
0
0
6.16858e-11
0
0
0
1.82743e-10
0
0
0
0
0
0
0
0
0
0
0
0
0
0
0
0
0
0
0
0
0
2.36299e-09
0
3.14598e-09
0
0
0
0
0
0
0
0
0
0
0
0
0
0
0
0
0
0
1.2031e-05
4.74273e-05
4.66858e-05
7.57226e-06
2.23043e-05
1.62258e-05
1.9965e-05
1.44849e-05
6.08855e-05
6.43981e-06
5.64741e-05
8.06022e-05
0.000101105
0
0
3.61369e-05
4.81692e-05
0
0
0
0
9.62823e-05
0.000130538
6.56456e-05
2.77827e-05
8.10403e-06
4.38165e-06
2.5691e-05
4.39234e-05
0
0
3.09052e-06
0
7.61697e-09
8.55623e-09
0
0
0
0
0
0
0.000188126
0.000279483
0.000430526
0.000223398
0.000426398
0.000350846
0.000879832
0.000623571
0.000194383
0.000263213
0.000510537
0.000520275
0.00053475
0.000246945
0.000176464
0.000317147
0.000264905
0.000324319
0.00028485
0.000270263
0.000328797
0.000249618
0.000248788
0.000215695
0.000173621
0.000275919
0.000234283
0.000395191
0.000416776
0.000289786
0.000347096
0.000362431
0.000258589
0.000432108
0.000385062
0.000316155
0.000208376
0.00043569
0.000320079
0.000126505
3.24319e-05
0.000165621
0.00010099
3.69262e-05
0.000197246
0.000337988
0.000199933
0.000282898
0.000339315
0.000544662
0.000524297
0.000639413
0.000524981
0.000266594
0.00031955
0.000594686
0.000321852
0.000135407
0.000146991
0.000268854
0.000207968
0.000195042
0.000229864
0.00025517
0.000311257
0.000176467
0.000142308
0.000125423
0.000107854
9.23236e-05
8.6779e-05
0.000139984
0.000536911
0.000473885
0.000146218
0.000297164
0.000334193
0.000276106
0.000337055
0.000196868
0.000259823
0.000291388
0.000262023
0.000240886
0.00024251
0.000253616
0.000232931
0.000256841
0.000231655
0.000187678
0.000213044
0.000219336
0.00018472
0.000214913
0.000230504
0.000262244
0.000245687
0.000173446
0
0
0
0
0
1.573e-09
3.25402e-09
0
0
0
0
3.58153e-09
1.11246e-09
0
0
0
0
0
3.69109e-05
8.4491e-05
0
9.04198e-05
4.31569e-05
0.000153433
5.91727e-05
0.000138826
0.000146954
9.49074e-05
0.000167727
0.000121656
0.0001442
0.000185951
0.000156477
0.000116159
6.45083e-05
0.000171483
0.000196659
0.00012254
0.000209005
0.000193253
0.000161574
0.000181788
0.000190251
0.000185402
0.000151027
0.000150051
0.000180035
0.000158331
0.000118306
0.000161163
0.000140922
0.000116686
0.000171885
0.000107401
9.95785e-05
0.000124056
0.000139321
6.13573e-05
0.000142634
6.65547e-05
0.000149567
0.000105576
0.000179867
0.000103467
0.000193816
0.000133534
0.000124757
0.000110838
0.000102006
0.000154601
6.97352e-05
9.34139e-05
0.000156053
0.000153237
0.000219149
8.11871e-05
0.000197268
0.00029342
0
0
0
0
0
0
0
0
0
8.93172e-09
0
0
0
1.3742e-08
5.85164e-08
2.34731e-08
1.80686e-08
4.27876e-08
4.30237e-08
0
0
0
0
0
0
0
0
0
0
0
0
0
0
0
0
2.35163e-07
0
0
0
6.47173e-07
0
0
0
0
0
0
0
0
0
0
0
0
0
0
0
0
0
0
5.88967e-07
0
0
0
0
0
7.3434e-10
7.28798e-10
1.43157e-09
0
0
0
0
0
0
0
0
0
0
0
0
0
0
0
0
0
0
0
0
0
0
0
0
0
0
0
0
0
0
0
0
0
0
0
0
0
0
0
0
0
2.85383e-09
0
6.88127e-10
0
2.57024e-09
0
0
0
0.000301966
0.000272288
0.000239589
0.000382142
0.000363912
0.000430996
0.000427947
0.000503447
0.00043732
0.000472055
0.000427477
0.000483051
0.000425541
0.000427452
0.000299156
0.000412598
0.000375788
0.000404558
0.000413098
3.24263e-05
7.68314e-05
8.21382e-05
0.00011824
0.00010723
0.000105871
0.000111726
6.87087e-05
2.74226e-05
8.15419e-05
4.96526e-05
4.08076e-05
0.000121382
5.11075e-05
0
0
0.000108061
0.000140011
0.000152012
0
0
9.85023e-05
3.97726e-05
0
0
1.75319e-06
0.000152713
0
0
0
0
0
0
0
0
0
0
0
3.4169e-05
0.000171187
7.31639e-05
0.000143907
0.00016546
7.87783e-05
6.20564e-05
0.000153535
0.000177827
9.781e-05
9.83875e-05
5.14141e-05
8.81066e-05
0
0
0
0
0
0
2.7837e-09
1.82918e-10
0
0
0
0
0
0
0
0
0
4.19272e-09
0
0
0
0
0
0
0
8.44711e-10
0
0
4.1504e-09
0
0
0
0
0
0
0
0
0
0
0
0
0
0
0
0
0
0
0
0
0
0
2.14781e-09
0
0
0
0
0
0
0
0
0
0
0
5.37541e-06
7.56556e-05
3.41269e-05
1.20542e-05
2.38048e-05
3.64158e-05
1.56991e-05
1.56477e-05
1.64121e-05
5.69414e-05
6.2461e-05
0
6.65595e-06
0
0
0
0
3.15498e-05
4.70261e-06
0
0
0
0
4.0724e-05
3.99036e-05
0
0
1.54647e-05
2.64871e-05
0.000132432
0.000116541
0
0
0
1.1795e-09
0
0
0
0
0
0
0
0
0.00110653
0.000341082
0.000581148
0.000287637
0.000656464
0.000564472
0.000581764
0.000495304
0.000503817
0.000359809
0.000413864
0.000393759
0.000437198
0.00042825
0.000194977
0.000336293
0.000247034
0.000256009
0.000222633
0.000319659
0.000356126
0.00027248
0.000347916
0.000269801
0.000320001
0.000397888
0.000254325
0.000191738
0.000464535
0.000476028
0.000362401
0.00043793
0.000331895
0.000423572
0.000452261
0.000512872
0.000191116
0.000282113
0.000354309
0.000473628
5.82226e-05
5.80892e-05
0.00017353
0.000160021
0.000166662
0.000176759
0.000304853
0.000464444
0.000415073
0.000330402
9.86441e-05
0.000334705
0.000135538
0.000346115
0.0002741
0.000337419
0.000410898
0.000350217
0.000124396
0.000147083
0.000292629
0.000268215
0.000215925
0.000224194
0.000317504
0.000349905
0.000126939
0.000112951
0.000149601
0.000116034
0.00013638
8.11562e-05
0.000197499
0.000227009
0.000366967
0.000266527
0.000253924
0.000326247
0.000294244
0.00023118
0.000192205
0.00021888
0.000222943
0.000217282
0.000176233
0.000193899
0.000236225
0.00018033
0.00014271
0.000136038
0.000143539
0.000137239
0.000171684
0.000226096
0.00022597
0.000180154
0.000187022
0
0
0
0
0
0
0
0
0
3.90576e-09
0
0
0
0
0
1.96635e-11
2.4521e-11
0
0