/*--------------------------------*- C++ -*----------------------------------*\
  =========                 |
  \\      /  F ield         | OpenFOAM: The Open Source CFD Toolbox
   \\    /   O peration     | Website:  https://openfoam.org
    \\  /    A nd           | Version:  8
     \\/     M anipulation  |
\*---------------------------------------------------------------------------*/
FoamFile
{
    version     2.0;
    format      ascii;
    class       surfaceScalarField;
    location    "15480";
    object      phi;
}
// * * * * * * * * * * * * * * * * * * * * * * * * * * * * * * * * * * * * * //

dimensions      [0 3 -1 0 0 0 0];

internalField   nonuniform List<scalar> 
788991
(
0.0210831
-0.0286374
-0.0424059
-0.0708116
0.0177423
0.025781
-0.0220529
0.0046949
-0.00956058
0.036309
0.0129575
0.0394631
0.00937237
0.0461206
-0.0320395
0.0125752
-0.0763493
-0.0066861
0.000584793
-0.0592031
0.00658606
-0.0243
0.0507316
-0.00281657
0.0054616
-0.00148869
0.0324599
-0.027855
0.00193411
0.0122103
0.0304353
0.00302746
0.0121053
-0.0304955
0.0657426
0.0106321
0.0182007
-0.0236285
0.00404443
0.0222756
-0.0598238
0.0538254
0.0142856
-0.0276131
-0.0122544
0.0463461
0.0372665
0.0395214
0.00839466
0.0722276
-0.142305
0.00202043
0.00786456
-0.0647739
0.00748862
0.0403718
-0.0566743
0.0235048
0.0403853
0.00285358
-0.033359
0.0207952
-0.0343245
0.000874455
-0.0121103
-0.0413879
-0.0205046
0.00219426
0.0126037
-0.0555967
0.0260561
-0.0824782
0.0138409
-0.0523031
0.0334161
0.0513867
-0.0455658
-0.0900118
-0.0274676
0.0200877
0.0398623
0.0045809
-0.00539171
-0.011329
-0.0236608
0.0331781
0.0522146
-0.0216383
-0.0282305
-0.00113931
0.022824
0.0295094
-0.072053
-0.0803873
0.0191574
0.0213688
-0.0083537
0.00232085
0.017928
-0.01509
-0.0122613
0.0083668
-0.0659198
-0.0232971
-0.0417187
-0.0406462
0.00411188
-0.0195203
0.0113024
0.0294696
0.0020812
-0.0477648
-0.0337465
-0.0514544
-0.0292802
-0.0326405
-0.0293042
-0.0442804
0.0580215
0.0279954
0.00435563
-0.0758932
0.030546
-0.000764634
-0.0788848
-0.0188102
0.0300051
-0.0722389
0.0360198
0.0483331
-0.0468192
-0.0497157
0.0978838
0.0263364
0.00391755
0.0443517
-0.0354407
-0.0275289
-0.0735017
-0.0345603
-0.0239621
-0.0432686
-0.032749
0.0337039
-0.0274507
-0.00162624
0.0123974
-0.0181334
0.027826
0.00812944
0.00687171
-0.0287919
-0.0161548
-0.0353888
0.0193804
-0.00443138
-0.0370569
-0.0361001
-0.0710652
0.0236739
-0.040769
0.0639046
-0.0504418
-0.08139
0.0495022
-0.0258456
0.085687
-0.0452012
-0.11016
0.051603
-0.0479053
0.0954197
-0.0437456
-0.103516
-0.0550861
-0.0547892
-0.0908289
-0.0326588
-0.0886495
-0.0555103
-0.0506985
0.0813635
-0.0318186
-0.0845192
0.0619791
-0.0518812
0.0890016
-0.0318764
-0.0858413
-0.0557638
-0.0539802
-0.0957139
-0.0254614
-0.0782129
0.0516892
-0.0561267
0.0803207
-0.0350843
-0.0705
0.0438549
-0.0403527
-0.0670524
-0.0462166
-0.0892534
-0.054555
-0.0381526
0.0827103
0.0428232
-0.11317
0.0400474
-0.0588381
-0.0756924
0.0166575
-0.0132378
-0.00347109
0.0348938
0.0295504
0.0231388
-0.0301754
-0.0178634
0.0590847
0.0291816
0.0118552
-0.0180983
-0.00337759
-0.00106546
0.0262564
-0.0380048
-0.0187267
-0.0119892
-0.0156999
-0.0246281
-0.0254819
0.0232407
-0.0522743
0.0573531
-0.0657646
-0.0284273
-0.0409454
0.00663959
-0.0176075
-0.0493816
-0.0613489
-0.0750816
0.0522712
-0.0603542
-0.124259
-0.0471703
-0.0485959
-0.112646
0.0472761
-0.0428379
-0.0966848
0.0499943
-0.0338954
-0.0977609
0.0576308
-0.0271708
-0.093511
-0.0569977
-0.023026
-0.0765148
0.0480813
-0.025681
-0.071902
-0.050371
-0.0427636
-0.0871203
0.0600757
-0.0743532
-0.0150339
-0.0755693
-0.0658644
-0.101185
-0.0101803
-0.0728251
-0.0591413
-0.0437438
-0.0607314
0.00406267
-0.0537548
0.00882007
0.0446333
-0.0227987
0.0592474
0.0508654
-0.000122457
-0.057495
0.126365
-0.0153861
-0.0901315
0.0256751
0.0733619
0.089817
0.0368773
0.0602303
-0.0348491
0.00860506
0.0709955
0.000919897
-0.0788622
0.00134576
-0.00655208
-0.0351946
-0.0439898
0.0833802
0.00385786
0.0138308
-0.0155556
-0.00458218
0
-0.0910684
0.01581
0.0479672
0.0335425
0.00800088
0
-0.0705158
0
0
0
0
0
-0.00193403
-0.0928704
-0.00862097
-0.05899
-0.0690943
-0.0110601
-0.0382873
-0.0652419
-0.0328541
-0.040591
-0.0156811
0.0100348
0.0296465
-0.00489243
-0.0390853
-0.00742773
-0.0406325
-0.0286071
0.0572122
-0.0207543
-0.0695747
-0.0218332
-0.0764063
0.0470651
0.0642221
-0.0319269
0.0953112
0.0355135
-0.0592518
0.086476
0.0531963
-0.0423041
0.0806507
0
0
0
0
0
-0.0256217
0.176426
-0.128024
-0.0574506
0.0163399
0.0321173
-0.0336709
-0.0640457
-0.00939601
-0.00421624
-0.0258017
0.0218063
0.0129282
-0.0106139
-0.0194287
0.0293466
0.0173055
-0.0240245
0.0257313
-0.0133948
0.0256381
-0.0225533
0.00139416
0.0102263
0.0436846
-0.0325841
0.0847156
0.0369858
-0.0444665
-0.0837221
0.0447424
-0.0450197
0.0834327
0.0409238
-0.0462383
0.077847
0.0374645
-0.0472278
-0.0809324
0.043208
-0.0418119
0.09726
-0.00355191
-0.0534657
-0.0686278
0.0171776
0.00766398
-0.00906045
-0.0359493
-0.0435504
-0.038157
0.00519002
-0.047842
-0.0519323
0.0331425
-0.0253501
0.0454502
0.0295273
-0.0394581
0.0387612
-0.0519932
-0.10283
0.033243
-0.0504244
0.0803415
0.0281112
-0.0351284
0.0714841
0.0193545
-0.0443011
0.066297
0.0199148
0.0625759
-0.0446564
-0.0431075
-0.0268684
-0.0405623
0.0275278
0.009358
-0.00826115
0.0198638
-0.0537595
0.0789284
0.0165261
0.0335257
0.0408794
-0.0307668
0.0103723
0.000540417
-0.0188165
0.0273256
-0.0247803
0.00112802
-0.021285
-0.00929627
0.00707124
0.0085929
0.0086888
-0.00492708
0.0432441
0.0144665
-0.0288216
0.0269154
-0.0432239
-0.0333223
0.0383705
0.00253765
-0.0416961
-0.0514978
-0.0629173
-0.107728
-0.0536543
-0.0580503
-0.111743
0.0423768
-0.0494766
-0.0991595
0.0440755
-0.0501318
-0.101649
-0.0539919
-0.0374752
-0.107732
0.0554721
-0.0300719
-0.0886811
0.0455772
-0.0317641
-0.0764945
0.0473778
-0.0391878
-0.0879866
-0.0623336
-0.0302468
-0.0978923
-0.0603724
-0.0636654
-0.00344502
-0.0567698
-0.0778542
-0.00666331
0.0465971
-0.0325472
0.0138966
0.0468689
-0.0493448
0.0161701
-0.0480404
0.0315359
-0.0158271
-0.0406926
-0.00169759
-0.0326546
-0.00330431
0.0437588
-0.0214208
0.0207713
-0.0356768
0.0152509
-0.0513182
-0.0346504
-0.0241704
0.0522028
-0.0435161
0.0346319
-0.0265001
0.0394088
-0.203847
-0.00466992
-0.0242976
0.0431175
-0.0304614
-0.040003
0.0391545
-0.00593616
0.0514886
0.0445135
-0.00849242
-0.00601192
0.046778
0.0317875
-0.0175041
0.0489377
-0.0143129
0.0312784
0.00836786
-0.0965033
-0.00276281
-0.0720543
-0.0345724
-0.0178797
-0.0012555
0.0302748
0.00545101
0.0037158
-0.0478057
0
0.0843518
-0.00680106
-0.00205757
0.0110261
0.02835
0.038854
0.0611813
0
0
0
0
0
0
0
0
0
0
0
0
0
0
-0.0447053
-0.052916
0.000229922
-0.0263873
-0.0387061
-0.0219453
0.0276378
-0.0487
-0.0344986
0.0410961
-0.018744
-0.0117103
0.00617886
-0.078008
0.0247853
-0.00309962
0.0078632
-0.0463466
0.0205079
-0.0597145
0.0513434
0.0177576
-0.030302
-0.0930968
0.0310178
-0.0757551
0.0608628
0.0514021
-0.0299175
-0.0955706
0.0434292
-0.0466222
-0.0864962
2.51422e-06
0
6.22791e-06
0
0
-3.00867e-06
4.96541e-06
-6.84125e-06
5.68843e-06
1.0013e-06
4.62465e-07
0
0
0
0
0
0
0
0
0
0
0
0
0
0.0211215
0
-0.0831826
-0.00750496
0.0012031
-0.0339063
-0.0650071
-0.0611665
0.0176051
-0.0255704
-0.0406605
0.00398197
0.00144966
-0.0565962
-0.00364985
0.0464892
0.011122
0.0412456
0.0800675
0.000965217
-0.0193225
0.0128436
0.045148
-0.0277145
0.00952274
0.0144607
-0.0243703
0.0350347
-0.0435829
-0.0893836
0.035233
-0.0416337
0.0796372
0.0326858
-0.0398401
-0.0698661
0.0275605
-0.0522054
0.0683816
0.0419792
-0.0458023
0.066369
0.0475216
-0.0508198
-0.0923307
-0.0148982
-0.0521638
-0.0679598
-0.0155943
0.0179518
0.0432642
-0.0409123
0.0294934
-0.0256895
-0.0273138
0.040206
-0.017895
-0.00721755
-0.00392258
0.041039
-0.0672336
0.0555017
-0.0519034
-0.096911
0.0484292
-0.0325617
-0.10036
0.0286554
-0.041561
-0.0872728
0.0394923
-0.0264845
0.0699291
-0.0258927
-0.0695131
-0.0395713
-0.0639813
-0.0516061
-0.0387032
0.0512375
-0.0615133
-0.0772526
-0.00327674
-0.0146375
-0.0373395
-0.0164865
-0.00732002
-0.0484779
-0.049253
-0.0434305
-0.0206234
0.0141116
0.0188964
-0.0058341
0.0200702
0.0232669
0.0396764
0.0581378
-0.0596865
-0.0138849
-0.0357497
0.00431396
0.0135971
-0.0208988
-0.0171062
-0.025691
-0.0303365
-0.0223166
-0.00801564
-0.0352441
1.76559e-05
0.0138109
-0.00894944
0.00164932
-0.0164304
-0.0296162
0.0040152
-0.011965
0.0186534
-0.0901416
-0.0610205
-0.0649454
-0.0385078
-0.0600304
-0.0508261
-0.0582165
-0.0983536
-0.0377296
-0.0536782
-0.0952454
0.0399311
-0.0542401
-0.10204
0.0500725
-0.0535797
-0.104891
0.0555393
-0.0403738
-0.101834
0.0478556
-0.0375049
-0.0864136
0.040076
-0.0455328
-0.090971
-0.0513772
-0.042506
-0.104975
0.0540688
-0.0313222
-0.0955023
0.0415332
-0.0572324
-0.00198816
-0.0462962
-0.0848929
-0.0172654
-0.0347422
-0.0313227
0.0166174
-0.0362315
-0.0546501
0.00303454
0.0364241
0.00470074
-0.0411446
0.0350467
-0.0307084
0.0127365
-0.0358461
-0.0468458
0.00290485
-0.0323727
0.0126693
-0.0293914
-0.0422194
0.0289196
-0.0330518
0.0413401
0.0463057
0.00903109
-0.0174199
0.027724
0.0316346
0.0304065
-0.0089323
0.0104263
0.221991
0.0106874
-0.0444498
0.191627
0.00951404
-0.0588376
-0.0385974
0.0375601
-0.0327415
0.00511627
0.0482148
-0.0197129
0.0253524
0.0310448
0.0450933
-0.0909404
0.0442553
0.0721611
-0.0311939
-0.0233663
0.00391063
0.00566148
-0.0303517
0.0258196
0.0221142
-0.00560992
0.0308347
-0.0153239
0
0
0.0122969
0
-0.076769
-0.00358419
0.032243
0.106679
0
0
0
0
0
0
0
0
0
0
0
0
0
0
0
0
0
0
0
0
0
0
0
0
-3.37175e-07
0
1.72244e-09
0
-1.96951e-05
0
-1.11919e-05
0
1.01519e-05
-3.66385e-05
0
0
9.16035e-06
0
0
0
0
0
0
0
0
0
0
0
0
0
0
0
0
0
-0.0547431
0.0415782
-0.00568723
-0.0230108
-0.00471339
-0.0337975
-0.00178654
-0.0260212
-0.0259266
0.0351716
-0.0560988
0.0516177
0.0217682
-0.00296455
0.0717134
0.0197788
-0.0789115
-0.0432606
0.00985644
-0.0378279
0.0805681
0.0325546
-0.0663789
0.0719713
0.0333696
-0.0413709
-0.0716117
0.0440806
-0.0409174
0.0741889
0.035542
0.0834374
-0.0400863
0
0
0
0
0
0
0
0
0
2.96189e-06
0
0
0
0
0
0
0
0
0
0
0
0
0
0
0
0
0
0
0
0
0
0
0
0
0
0
0
0
0
0
0
0
0
0
-0.0255707
0.0150277
-0.0541125
-0.0321827
0.0158245
-0.0474618
-0.0220888
-0.0434292
0.00849187
0.00690539
0.000553029
0.0272044
0.0353374
0.00852988
-0.00829803
0.053056
-0.023175
-0.0239152
0.0408934
0.0316581
0.0207689
0.00953273
0.00938411
-0.0246166
-0.000578865
-0.00743414
0.0366771
2.00656e-05
0
0
-5.08029e-05
-1.84051e-06
0
0
2.34725e-05
0
0
0
0
0
0
0
0
0
0
0
0
0
0
0.0328459
-0.0416431
-0.0771685
0.0295625
-0.0360235
-0.0603704
0.0142767
-0.0481708
0.0723999
0.0161928
-0.0574174
0.0562259
0.0172601
-0.0545952
0.0598005
0.0286364
-0.0642001
-0.082627
0.0177187
-0.0446502
0.0535084
0.00977278
-0.0414761
-0.037146
-0.0214681
-0.0376785
-0.0305592
-0.0136041
-0.0361721
0.0368428
0.00369609
-0.0255505
0.0388731
0.0186394
-0.0611288
-0.0311949
0.0337831
-0.042373
0.0692616
0.0285888
-0.058878
-0.0291796
0.0325099
-0.0347291
0.00734762
0.033719
-0.0233649
-0.0278541
-0.0281221
0.0433108
0.0105321
-0.0125276
0.0306957
-0.0509294
-0.0652341
-0.0333198
0.0147615
-0.0167578
0.0421204
-0.0197059
0.0149939
-0.0503311
-0.0745206
-0.0360963
-0.0697576
-0.0699893
0.0134121
-0.0128703
-0.033718
0.0350112
-0.0396
-0.0577315
0.0329533
-0.0312698
-0.012471
-0.0319917
0.0256609
-0.00634858
-0.0697246
0.0135835
0.0074165
0.00730668
-0.0103263
0.0160598
0.00659876
-0.0162617
-0.0214236
0.00336094
-0.0357748
-0.0264536
0.0208027
0.000623064
0.0102926
0.0175564
-0.00916135
-0.0296318
-0.0143297
-0.000187188
0.0111683
0.0179445
-0.0357337
-0.0195158
0.0460223
-0.0798533
-0.047405
-0.0457001
-0.0308608
-0.0562675
-0.0329967
-0.0564391
-0.0855539
0.0342987
-0.0541283
-0.100701
-0.0437891
-0.0522824
-0.105892
0.0541616
-0.0522567
-0.102007
-0.0526758
-0.0454077
-0.09736
0.0432582
-0.0505359
-0.0930144
-0.0451302
-0.0509107
-0.101051
0.0506129
-0.0445964
-0.0940857
-0.0473475
-0.0381662
-0.0853878
-0.0410677
-0.068068
-0.0199424
-0.0354901
-0.0779146
-0.0214611
0.0346347
-0.0526818
-0.00890757
-0.0384311
-0.0593824
-0.0174223
-0.0418707
-0.00673587
-0.0511895
-0.0386372
-0.0274256
0.0157687
-0.0350435
-0.0305088
0.0121824
-0.03752
0.0207127
-0.0153042
-0.0377007
0.0221478
-0.0140047
-0.0284582
0.0286792
-0.00407605
-0.0189021
0.031967
0.00786168
0.0122283
0.0357566
0.015991
0.0162455
-0.0112372
0.00776988
-0.0178556
0.036021
-0.0299898
0.0230085
0.0239288
0.0316432
0.0268298
0.0236132
0.00022384
0.0185825
0.00399996
-0.0412865
0.0279077
0.0112717
0.00389106
0.0231221
0.0439677
0.0331229
0.0241984
-0.0148717
0.0373588
0.0271305
0.0256559
-0.0288979
0.0168994
0.0374132
0.0221188
0.00916083
0.0256027
-0.0123933
0.0326793
0.0280654
0.0106919
0.0182873
-0.0212953
0.0331464
0.0044562
-0.0103032
0.0121631
0.0248175
-0.0173432
-0.00825332
0.0286062
-0.0133892
0.0126303
-0.0034659
-0.0114641
0.00714674
-0.0232983
-0.0118961
0.0282055
-0.0831873
-0.0379277
-0.0333162
-0.0347163
-0.0524006
-0.0168559
-0.00110408
-0.0580108
-0.0588683
-0.0160638
0.0174155
0.0306213
-0.0428274
0.0204532
0.0540908
-0.039212
-0.0367471
-0.0159273
-0.0130559
-0.050508
0.00289426
-0.0178413
-0.0151394
0.0329928
-0.0111864
-0.0445961
-0.0387099
0
0
0
0.00488882
0
-0.0513144
0.00149141
0.0550831
-0.124881
0
0
0
0
0
0
0
2.2588e-05
6.88913e-05
0
0
0
0
0
0
0
0
0
0
0
0
0
0.000117383
1.28603e-05
0
0
0
0
0
0
0
0
0
0
0
0
-5.91415e-05
0
0
0
0
0
0
4.93751e-05
0
-7.15559e-05
0
0
0
0
0
0
0
0
0
0
-2.2757e-05
-4.49935e-05
-5.30609e-06
2.17037e-05
0
0
0
0
0
0
0
0
0
0
0
0
0
0
0
0
0
0
0
0
0
0
0
0
0
0
0
0
0
0
0
0
0
-0.0363974
-0.0273832
-0.0211284
-0.0290629
-0.0565352
0.0462255
-0.038593
-0.0450469
0.0549602
0.0262282
0.00259979
-0.0312611
0.0202403
-0.0611557
-0.0839402
0.00936639
-0.0545607
0.0710786
0.0271855
-0.0536623
0.0517206
0.0263103
0.0274368
-0.0684491
-0.0346659
0.0294571
-0.0348483
0.0659518
0.031732
-0.0376857
0.0571913
0.0606655
-0.0356428
0
0
0
-2.48395e-05
4.6376e-06
1.59269e-05
0
0
0
0
0
0
3.79936e-06
0
-1.31951e-05
0
0
0
0
0
0
0
0
0
0
0
0
0
0
0
0
0
0
4.48074e-05
4.17803e-05
1.47193e-05
-0.0169517
-4.24017e-05
0
-0.0241466
0.0615608
-0.0196932
-0.034136
-0.0636406
0.00787563
-0.027352
-0.0166542
-0.00223881
-0.0115329
-0.038035
-0.00134699
0.0103
-0.0117689
-0.00744988
0.00511803
0.0169862
-0.00707488
-0.000675713
0.0106896
-0.00926431
0.0175078
-0.0355414
-0.00539563
-0.0522754
0.0100623
0.0170315
2.16546e-05
0
0
3.70136e-06
0
1.7733e-05
0
-6.73819e-07
0
3.97352e-07
0
-8.37309e-07
-1.76422e-08
0
0
0
0
0
0
0
0
0
0
0
0
0
0
0
0
0
0
0
0
0
0
0.00439098
0.0494785
-0.0158704
0.0226062
-0.0342799
0.0525287
0.0189158
-0.0365456
0.0578915
0.0176495
-0.0542694
0.0691766
0.0104871
-0.0412123
-0.0643043
0.0116407
-0.0483611
0.0871866
0.0116108
-0.0438664
0.0700077
0.000265891
-0.0383002
0.0836757
-0.0152795
-0.0504331
-0.0211657
-0.00220452
-0.0269817
0.0355134
-0.00873244
-0.0389347
-0.0470168
0.0132915
-0.0354082
-0.0324149
0.0328374
0.00290259
0.027167
0.0172895
-0.0488829
0.0517457
0.0180801
-0.0430223
0.0132178
-0.0274874
-0.0201978
-0.0118322
-0.0103228
-0.00385237
-0.0105789
-0.0272133
-0.0468505
-0.0204084
-0.0325466
-0.0585713
-0.0387637
-0.04925
-0.0776378
-0.0381673
-0.0555806
-0.0386784
-0.0216798
-0.00490316
-0.0331622
0.0452252
-0.0182805
-0.0465924
-0.0413775
-0.0194024
0.0141938
-0.0546297
0.0109873
0.0397703
0.0390402
0.0167225
0.048158
-0.0369213
0.0136981
0.0490167
-0.0340292
0.0179092
0.0505681
0.0363699
0.0295289
0.0408504
0.0131014
0.020101
-0.0304964
0.00433178
0.0217686
-0.0111602
0.0400471
0.0336395
0.00562555
-0.0700439
-0.0813095
0.0151798
-0.0688363
-0.0583956
0.00839302
-0.0362759
-0.0455913
0.0368259
-0.0660624
0.0177992
-0.0730819
-0.0529029
-0.0260683
-0.0383308
0.0390151
0.0606961
-0.019678
0.0314436
0.0205536
-0.00362681
0.00795953
0.00356262
-0.0109863
-0.0515289
-0.00917938
-0.0068765
-0.0257241
-0.0283948
0.0253698
-0.0129695
-0.0564203
-0.0241143
0.0127806
0.00681609
0.00320176
-0.00531568
0.00338614
0.0330499
-0.00688703
-0.0300652
0.00650042
-0.0725983
-0.053331
0.0479947
-0.0374059
-0.0564669
-0.0311245
-0.059211
-0.0768602
0.0306428
-0.0577229
-0.0986662
0.0484208
-0.0532394
-0.111016
-0.0525109
-0.0512635
-0.101428
0.0452947
-0.0476975
-0.101952
-0.0452486
-0.0466064
-0.102747
0.046079
-0.0400514
-0.086759
-0.0440156
-0.0346424
-0.0796568
0.0430968
-0.0265559
-0.0708233
-0.0447937
-0.05701
-0.0190845
-0.0383519
-0.0601668
-0.0135935
0.0404719
-0.0474122
-0.00610386
0.0450103
-0.0527138
-0.00554146
-0.0445828
0.0109668
-0.0305404
-0.0379134
-0.0116366
0.0227031
-0.0380771
-0.0221629
0.0167129
0.0363332
0.0183423
-0.0105458
-0.0319169
0.0168471
-0.0130701
0.0257987
0.0226277
-0.00618594
-0.016921
0.0226552
0.00985549
-0.00668851
0.00306383
0.0169341
0.0174558
0.0144273
0.0144895
-0.00176139
0.0141604
0.0176933
0.00518199
0.0057566
0.0169884
0.010999
-0.0081529
0.0149571
0.0154827
-0.015535
0.00910337
0.011466
-0.0135158
-0.00183583
0.00776435
-0.00740818
-0.0148994
0.0102093
-0.00337684
0.0427799
-0.00214908
-0.0146119
-0.0727658
-0.0181896
-0.000630809
-0.0139087
0.0283177
-0.0171109
-0.00510362
-0.00991695
-0.0214489
-0.0354087
0.0209362
-0.0050475
-0.0172703
-0.0260718
-0.0274532
-0.0257623
-0.0200186
-0.0468305
0.0483726
-0.0401972
0.0482679
0.0277411
-0.00378507
0.0649512
0.0291919
0.00362587
-0.0604942
0.0391347
0.0347598
-0.132163
-0.109631
0.0709458
0.015435
0.0356919
0.00603322
0.028541
-0.0318498
0.019149
-0.195832
-0.0672035
0.219346
-0.0406145
-0.0349999
0.0470124
0.035356
-0.0083995
0.0113415
-0.0899593
0.0507616
0.0476152
0.0789507
-0.14946
-0.194864
0
0
0
-0.0638843
0
0
-0.0565537
0.000176005
-0.000776686
0
0
0
-1.00067e-05
0
7.73163e-05
0
-2.41348e-05
0
0
0
0
0
0
0
0
5.63274e-06
0.000181419
0
0
0
0
8.21459e-05
0
0
0
0
0
0
0
0
-5.94325e-08
-7.28803e-07
0
0
0
0
0
0
0
0
0
0
-1.09456e-05
0
0
0
0
3.25513e-06
0
0
0
-5.47315e-06
-7.58354e-07
0
0
0
0
0
0
0
0
0
0
0
0
0
0
0
0
0
0
0
0
0
0
6.69808e-07
0
0
0
0
-0.0326715
-0.0379806
-0.0231754
-0.0393905
-0.0184613
0.0282738
0.0403684
-0.00697544
0.020676
-0.0138658
-0.0690884
0.0565878
0.026536
-0.014687
0.0278827
0.0137438
-0.0425355
-0.0667177
0.0237261
-0.032608
-0.0490787
0.0157835
0.0146661
-0.0432763
-0.0266699
0.0188286
0.0467744
0.0306367
0.0326964
-0.0297257
0.0592584
0.0515713
-0.036098
3.4099e-06
0
4.4711e-06
3.36927e-05
1.20238e-05
-9.37722e-06
0
0
0
0
0
0
0
0
0
0
0
0
0
0
0
0
0
0
0
0
0
0
0
0
-6.00987e-05
0
0
0
0
0
0.140663
0
0.129932
-0.0345245
-0.0557819
0.187587
-0.0135526
0.0579461
0.0374948
0.0202792
-0.00379868
-0.0168225
-0.0101943
0.00602692
-0.0153937
0.0212204
-0.00952112
0.00755612
0.0110142
0.0225086
-0.00558266
0.032675
-0.0167295
0.00531209
-0.00343027
0.0142602
0.000368343
-0.0149664
0.0378981
-0.0204511
0
0
0
0
0
0
0
0
0
0
3.00202e-07
0
0
0
0
0
0
0
0
-0.00669834
0
0
0
0
0
0
0
0
0
0
0.011392
0
0.0025261
0
0
0
0
0
0
0
0
0
0
-0.00583825
0
0.0123171
-0.0294614
0.0444212
0.0289467
-0.0339434
-0.0538243
0.0319028
-0.0381858
0.0486137
0.0280281
-0.0413949
-0.0596069
0.0144035
-0.0204807
0.00811179
-0.0369064
0.0209502
-0.0436865
0.053932
-0.000938565
-0.0442684
-0.0534624
0.0233788
-0.0376998
0.0810374
-0.00242688
-0.0277141
-0.0348262
-0.0170214
-0.0625106
0.0304501
-0.0189911
-0.0563052
0.0265459
-0.00187899
-0.014458
-0.0336739
0.0361577
-0.0122527
0.0212377
-0.0391424
-0.0434492
0.0575064
0.010489
0.0602743
-0.0586951
0.0183253
0.0337907
0.00175016
-0.0640187
-0.0255015
0.00235011
-0.0033422
0.00463534
-0.0333593
0.0357179
-0.0327622
0.0400334
-0.00671497
-0.0317866
-0.0388305
-0.0357028
0.0515652
-0.0433663
0.0407289
0.0095521
-0.0335864
-0.0558013
-0.00805472
-0.0239835
-0.0272731
0.0341251
-0.0185425
-0.000832145
-0.0233483
0.0355895
-0.0324972
-0.0368979
0.013524
-0.0369349
0.036984
-0.0349847
0.0395518
-0.0513998
0.0406516
0.0260968
-0.0360888
-0.0567555
0.0156658
0.00598713
-0.022289
0.00843534
-0.00279208
0.0189927
-0.00341388
-0.0129892
-0.0187546
-0.0379505
-0.0589734
-0.02862
-0.0452486
-0.0756174
-0.0411344
-0.0496383
-0.08217
0.0316612
-0.0717524
-0.0494319
-0.025307
-0.00041619
-0.0393676
0.0635939
-0.0231579
-0.063978
0.0493622
-0.00542365
0.0320933
0.0505713
0.0066068
0.04594
0.0507691
0.00878284
0.0570489
0.0529729
0.0137079
0.0556674
0.0476783
0.0287446
0.0554258
0.023301
0.0413471
0.0518112
0.00281661
0.0278635
0.0276377
-0.0152393
0.0411893
0.044868
0.00280965
-0.076434
-0.0576863
0.0222088
-0.0623089
-0.0768676
-0.0488394
-0.0352241
-0.0708946
-0.0490218
-0.00059562
-0.0564822
0.0109965
-0.0672492
-0.0434304
0.00169276
0.059244
0.00634748
0.00125513
-0.0319922
-0.0308211
0.0112908
-0.030257
0.0351764
-0.00636055
-0.0286572
-0.0400636
-0.00725214
-0.0414692
-0.0403776
0.00789966
-0.0448852
-0.0439758
0.00793827
-0.0310158
-0.0375658
-0.00387144
-0.0287
-0.0406084
-0.0452447
-0.00725093
-0.0413344
-0.0382526
-0.021857
-0.0330875
0.0439631
0.0677758
0.00272367
0.026383
-0.00257353
-0.00313526
0.00930481
-0.107702
0.0286315
0.0893205
0.0283464
-0.058944
0.00421975
0.0323652
0.0347032
0.0131329
0.000630185
0.00832616
0.0600545
0.0384144
-0.0952469
0.0303801
-0.0200888
-0.00373297
0.0507345
-0.0662428
-0.0508374
0.0206642
-0.00913954
-0.0420578
-0.0164976
-0.0578666
-0.0702069
-0.0366647
-0.0644874
-0.112027
0.0523949
-0.0602858
0.0225872
-0.112239
-0.0521777
-0.0976496
0.0457382
-0.0428922
-0.113703
-0.0486049
-0.0397169
-0.0862328
-0.0438756
-0.0364752
-0.0753734
0.0369016
-0.0324672
-0.0773231
0.0374437
-0.0231986
-0.0721471
0.0373025
-0.050059
-0.0152571
-0.0396882
-0.0619314
-0.0173886
-0.0388158
-0.0397914
0.00619285
0.0347646
-0.0520903
-0.00139994
-0.0353515
0.00694242
-0.0345804
-0.031702
-0.0179993
0.0165565
-0.0298484
-0.034158
0.0118289
0.0295804
0.00648398
-0.0212604
0.0308214
0.00938662
-0.0237204
-0.0250684
0.0145684
-0.0112861
-0.0131888
-4.58888e-05
0.00508053
0.0074489
0.00430727
0.00364168
0.000634216
0.00895318
0.00530337
-0.00202195
0.00453586
0.00605618
-0.000863711
-0.00254092
0.00394021
0.00249766
-0.0110214
-0.00297279
-0.00450313
-0.0184031
-0.0101349
0.00058943
-0.00391045
-0.0134621
0.00689378
0.00421474
0.00114276
0.00347252
0.000368854
-0.0695471
-0.0183756
0.0217886
0.11589
-0.00121861
-0.0108232
-0.0872484
0.0389448
0.026946
-0.00581723
0.054537
-0.151465
0.159509
0.0378867
0.0151025
0.103825
0.0834659
0.0350302
0.0662019
-0.0392273
0.0391017
0.0844648
-0.0551831
-0.23218
0.17019
0.228746
-0.0252903
-0.0950144
0.0558504
0.082656
-0.0244473
-0.00534967
-0.161687
-0.108268
0
-0.147199
0
0.0405169
-0.0114509
-0.0531494
-0.056527
-0.0114922
-0.0357817
-0.0106594
-0.0997152
-0.0924865
0
0
0
0
0
2.90419e-05
4.20295e-05
-1.38122e-05
-0.00148948
0
-0.000711082
0
-0.000157431
0
0
0
0
0
0
0
0
0
0
0
0
0
-3.4214e-05
0
-9.08122e-05
0
0
0
0
0
0
0
0
0
0
0.00313015
0.0019936
0
0
0
0
0
0
0
0
0
0
0
0
0
0
0
0
0
0
0
-1.48036e-06
2.23213e-06
-6.47412e-06
0
0
0
-7.68802e-07
-6.95483e-07
0
0
0
0
0
0
0
0
0
0
0
0
0
0
0
0
0
0
0
0
0
0
0
0
0
0
0
8.66667e-06
0
-3.82447e-05
0
0
0
-7.81251e-06
0
1.52056e-05
-0.0424589
-0.0287452
0.0542001
0.012398
-0.0493411
0.0401346
-0.0497916
-0.00589362
-0.0327998
0.0691508
-0.00706452
-0.0350978
-0.0186754
-0.00951377
0.024908
0.0096178
0.0727552
0.0205659
-0.00753919
-0.0579555
0.00268404
-0.0574722
0.0333395
0.0314601
-0.0194404
0.0411922
0.0222131
-0.0279064
-0.052309
0.0165807
0.0270332
-0.02194
0.0170941
0.0326887
0.0283484
-0.0292016
0.0435129
1.91109e-05
0
0
0
0
0
0
0
0
0
0
0
0
0
0
0
0
0
0
0
0.0370153
0.0476247
-0.107215
0.0101874
0
0
0
0
0
0
0
0
0
0
0
0
0
0
0
0.0764654
0.0563585
-0.0107167
-0.0334222
-0.0355465
-0.0166896
-0.0245187
0.000339439
0.044257
-0.0188858
-0.0432426
0.0188142
0.0306553
-0.0114837
0.0413998
0.0417682
-0.014988
-0.0215973
0.0254101
0.0145426
0.00494577
-0.0188384
0.0274048
-0.0189357
0.0318889
-0.0258121
0
0
9.24362e-06
7.776e-07
0
0
0
0
0
0
0
0
0
0
0
0
0
0
0
0
0
0
0
0
0
0
0
0
0
0
0
0
0
0
0
0
0
0
0
0
0
0
0
0
0
0
0
0
0
0
0
0
0
0
0.00821217
0.0173706
-0.0101418
0.0215005
0.0124073
-0.0229785
0.0396475
0.0248275
-0.0193583
0.0398114
0.000710396
-0.037336
0.0718668
0.00897681
-0.0282871
-0.0227756
-0.010571
0.0150168
-0.0338426
0.0122405
-0.0199916
0.00168129
0.00908753
-0.0163192
0.0263217
0.0223286
-0.0392479
0.0727179
-0.00156298
-0.0598351
0.063217
-0.00577222
-0.0367775
0.0542083
0.0217583
-0.0258842
-0.0167833
-0.133092
-0.0326232
-0.0451395
-0.0398446
-0.0124063
0.0847816
0.0169818
0.0437904
0.000289234
0.0865172
-0.0995579
0.030161
-0.00137907
0.011749
0.00481205
-0.0963114
0
0
0.00411277
-0.0225044
-0.0368864
0.0195807
-0.0330124
-0.046966
0.0230936
-0.0302807
0.0504011
0.0123347
-0.0514977
0.044768
-0.00403669
-0.0226057
0.0283323
0.011521
-0.0289192
-0.0343791
0.0173979
-0.0273823
0.0471327
0.0166664
-0.0324707
0.032038
0.023925
0.016131
0.0215988
0.00542874
0.00498637
-0.0270724
0.00219341
-0.0105388
0.021427
-0.0508036
-0.0784984
-0.0339166
-0.0499885
-0.07879
0.0291172
-0.0533011
-0.0804375
-0.0157479
-0.0823774
-0.0579621
0.0183494
-0.0130984
-0.0240223
0.0523124
0.0508503
-0.0413283
-0.0636374
0.0365757
0.0303521
-0.00974919
-0.0536987
-0.00582099
-0.030982
0.0491125
-0.00089746
0.0418995
0.0533475
0.0085717
0.0446251
0.0438221
0.0297092
0.0534163
0.0266372
0.0499087
0.0504399
-0.00876072
0.043566
0.0472207
0.0110909
0.0283168
0.0395738
0.0146594
0.055733
0.0415725
-0.0213573
-0.0406672
-0.0639973
-0.0410945
-0.0671835
-0.0501407
-0.0226
-0.0783151
-0.0472605
-0.0284323
-0.0659177
-0.0521352
-0.0115322
-0.0562404
-0.0326118
0.0418715
-0.0542412
-0.00454858
-0.0621464
-0.00305077
0.0178496
-0.0596581
0.0343236
0.00334869
-0.0218223
0.0310052
0.00846363
-0.0358536
-0.0331441
-0.00285078
-0.0297925
-0.0426914
-0.00347717
-0.0405395
0.0407253
0.0151795
-0.0419001
-0.0457762
0.0169689
-0.0215083
0.0414005
-0.00051234
-0.0236076
-0.0395236
-0.010327
-0.0411293
0.0401648
-0.00116517
-0.0203933
0.0127633
-0.036114
-0.0111088
-0.0496657
-0.0461522
-0.0350727
-0.0124107
-0.0108851
-0.079857
0.0041309
0.0291956
-0.0135378
0.135516
-0.0440022
0.11266
-0.130085
0.061507
0.197555
0.0161299
-0.121049
-0.0803711
0.0486062
0.0291701
0.012979
0
-0.0871103
0
-0.0706947
0
-0.0189425
0.0013594
-0.0961456
-0.0337602
-0.0531566
0.000800104
0.0238271
-0.0230105
-0.03905
-0.0130316
-0.0697214
-0.0669008
0.0561073
-0.0994828
-0.0505628
-0.0465914
-0.126271
-0.0335196
-0.0552957
-0.0571825
-0.107446
0.0438321
-0.042653
-0.0843773
0.0403137
-0.0360743
-0.0695626
-0.038826
-0.0370689
-0.0751752
0.0309423
-0.0341489
-0.0755387
-0.0279985
-0.0290823
-0.073045
-0.0328918
-0.0545206
-0.016585
0.0356313
-0.0754148
-0.0222666
0.0247228
-0.0400956
0.000212972
-0.0328307
-0.0452743
-0.00535078
0.0363304
0.00379189
-0.0381968
-0.0328288
-0.0244523
0.00908095
-0.0300984
-0.0303342
0.0128563
-0.0277615
0.00111845
-0.0273646
-0.0310189
0.00409371
-0.0261351
-0.0210579
0.00242833
-0.0134494
0.00611398
-0.00653101
-0.00957029
0.00886235
-0.00249961
-0.0075061
0.00716871
-0.00330762
-0.00752254
-0.00200124
-0.00781166
0.00703424
-0.00677443
-0.0072882
-0.00909612
-0.00635132
-0.0107898
0.00683001
-0.00252118
-0.014217
-0.00602303
-0.0167741
-0.0145392
-0.0154614
0.012817
-0.0398623
-0.0158605
0.0369989
0.0836507
0.00683862
-0.00222713
-0.144673
0.042677
0.00249028
0.113431
-0.139212
0
0
0
-0.0374064
0
0.0961225
0.149788
-0.210847
0.0172936
-0.0161772
0.0839662
0.000862392
-0.0618888
-0.0895567
-0.0231412
-0.0678659
0
0
-0.0905178
0
-0.0511258
0.0493184
-0.0372715
0.0646214
0
0
0
-0.103247
0
0
-0.0572517
0
0
0
0
0
0
8.58682e-07
3.04344e-07
0
0
2.43617e-05
-2.01457e-05
-2.09522e-05
0
-1.33798e-07
0
0
0
0
0
0
0
0
0
0
0
0
0
0
0
0
0
0.00364644
-0.00316502
-5.94961e-05
0
0
0
0
0
0
0
0
0.00692081
0
-0.00224747
0
-0.000452396
0
0
0
0
5.22592e-06
0
-2.92099e-05
0
0
0
0
0
0
0
0
0
-3.62536e-06
0
1.36596e-05
0
-1.35695e-05
0
-3.72659e-06
1.23255e-05
-4.33191e-05
0
-2.37331e-07
0
0
0
0
8.53036e-06
0
-5.87731e-05
0
-1.1347e-05
-1.94139e-05
0
0
0
0
0
0
0
0
0
0
0
0
0
0
0
0
0
0
0
0
0
-4.60283e-06
0
6.48523e-06
0
0
0
-3.95941e-05
0
0
0
0
0
0
0
0
-0.0400996
-0.0488117
-0.0635184
-0.0142002
-0.0423291
-0.0603491
-0.0163878
-0.0478017
-0.0526035
-0.040329
-0.016665
0.0619755
-0.0612796
0.0171563
-0.0438107
-0.00836359
-0.052721
-0.00568751
-0.0610448
0.00520724
0.0201294
0.00658456
-0.0259817
0.0090946
0.00787152
-0.00717648
0.00785452
-0.0162273
-0.037705
0.0106605
-0.0160079
0.0309045
0.00120093
-0.0264283
0.0336197
0.00723119
0.00634417
0.0198529
-0.0284727
0.0136662
0
0
0
0
0
0
0
0
0
0
0
0.0668686
-0.0239242
0.034772
-0.113499
0
0
0
0
0
0
0.0208077
0.0483161
-0.250891
0
0
0
-3.1189e-07
0
6.10473e-07
0
2.9789e-07
0
0
0
0
0
0
0.00955683
-0.00271652
-0.0401654
-0.052184
0.000609461
-0.026246
-0.0121875
-0.0189164
-0.00587728
0.0113167
0.0154177
0.0363703
0.0250281
-0.0515906
-0.00825567
0.0221811
0.00754893
0.0147306
0.0293305
-0.0841477
-0.0455873
-0.0124792
-0.0412726
-0.0209927
-3.12211e-08
0
0
7.25132e-07
0
-7.77448e-06
0
0
0
0
4.27437e-08
0
-2.84456e-06
0
2.8932e-06
0
0
0
0
0
0
0
7.21207e-05
0
1.33465e-05
-5.14471e-05
2.14114e-05
3.28785e-05
0
0
0
0
0
0
0
0
0
0
0
0
0
0
0
0
2.93227e-05
1.56818e-05
0
0
0
0
0
0
0
0
0
0
0
0
0
0
0
0
0
-2.02141e-05
0
2.3631e-05
-0.00379492
-0.002983
0.00186473
-5.68159e-05
0.000467923
-0.00617652
0.0118672
0.0146688
-0.0121564
0.0258782
0.015526
-0.0279838
-0.0412514
0.0149395
-0.0421354
-4.91951e-07
-0.0347661
-0.0722882
0.0212741
-0.015166
0.000250026
-0.0155035
-0.0245352
0.00045361
-0.0133404
-0.0318839
-0.06337
0
0.020187
-0.0222289
0.0079262
0.0195846
-0.0341128
-0.0502666
0.0448393
-0.00225913
0.0494675
0.0359599
0.0515419
-0.0345363
0.0215047
0
-0.0204337
-0.0266578
0.0180982
-0.0375915
0
0
0
-0.00759684
0
0
0
0
0
-0.000146825
0
8.54506e-05
0.0145458
-0.0270414
0.0463607
0.0121209
-0.0333773
0.0488358
0.00775004
-0.0136989
-0.0621901
0.0286186
-0.00795093
-0.0672602
0.0336072
-0.0375825
-0.0371942
-0.0470622
-0.0659132
-0.00343618
-0.0440235
-0.0659414
0.00874198
-0.0234534
-0.0351491
0.0119549
-0.0245259
-0.0431156
0.0113613
-0.0297838
-0.038682
0.00676752
-0.0255689
-0.0462474
0.0267465
0.019409
0.0264502
0.0158339
-9.74796e-05
0.0267658
0.0138724
-0.00625336
-0.049553
-0.064774
-0.081583
-0.0150092
-0.0578161
-0.0738538
0.0100204
-0.0614078
-0.0677744
-0.00835681
-0.0777722
-0.0667117
-0.00579389
-0.0296444
-0.0583632
0.0418586
-0.0613696
-0.0700232