/*--------------------------------*- C++ -*----------------------------------*\
  =========                 |
  \\      /  F ield         | OpenFOAM: The Open Source CFD Toolbox
   \\    /   O peration     | Website:  https://openfoam.org
    \\  /    A nd           | Version:  8
     \\/     M anipulation  |
\*---------------------------------------------------------------------------*/
FoamFile
{
    version     2.0;
    format      ascii;
    class       volScalarField;
    location    "5880";
    object      H;
}
// * * * * * * * * * * * * * * * * * * * * * * * * * * * * * * * * * * * * * //

dimensions      [0 1 0 0 0 0 0];

internalField   nonuniform List<scalar> 
526318
(
0.747998
0.70878
0.780794
0.691048
0.763652
0.721343
0.735044
0.652633
0.713158
0.590324
0.571741
0.693258
0.638169
0.676722
0.639711
0.666734
0.634433
0.834535
0.74503
0.791376
0.786519
0.739746
0.505456
0.740412
0.624162
0.490342
0.764674
0.762026
0.763744
0.776593
0.805423
0.852159
0.834516
0.715048
0.716442
0.679676
0.692205
0.77787
0.707902
0.660322
0.716956
0.686755
0.352991
0.400368
0.308151
0.363955
0.334914
0.453471
0.637282
0.533632
0.624907
0.621253
0.577033
0.530887
0.0321137
0.274381
0.273148
0.0713552
0.791914
0.807634
0.828161
0.777911
0.718978
0.852851
0.84452
0.802566
0.793601
0.790929
0.693788
0.687178
0.797061
0.58122
0.632537
0.528197
0.483544
0.473123
0.573286
0.560646
0.480589
0.523421
0.599444
0.605357
0.559933
0.509735
0.535818
0.607458
0.603072
0.583017
0.534636
0.607017
0.508033
0.464098
0.451187
0.390083
0.384648
0.38764
0.383463
0.384155
0.382003
0.383785
7.97638e-05
2.15653e-06
0.000999674
0.000252774
0.00103668
0.000148343
0.293506
0.100788
0.423684
0.376584
0.420071
0.540893
0.762506
0.654577
0.763397
0.778976
0.841179
0.814881
0.859076
0.380428
0.375076
0.382431
0.38381
0.339841
0.374936
0.290062
0.332977
0.243255
0.288299
0.241319
0.240333
0.233389
0.204774
0.199496
0.225707
0.166413
0.221217
0.168689
0.191377
0.134078
0.142833
0.162296
0.189212
0.175106
0.133313
0.135236
0.149922
0.140014
0.132122
0.143508
0.154742
0.143946
0.145543
0.150025
0.143389
0.114147
0.141605
0.149548
0.1147
0.0585853
0.151824
0.0924191
0.151526
0.65232
0.743388
0.686594
0.673369
0.472363
0.542844
0.478916
0.473803
0.474241
0.473687
0.500734
0.467266
0.403029
0.379272
0.34495
0.282877
0.344883
0.388965
0.386426
0.389433
0.277147
0.326063
0.212214
0.225079
0.233129
0.220301
0.224989
0.226077
0.217289
0.216225
0.211985
0.204492
0.183773
0.208593
0.201489
0.17001
0.150752
0.180294
0.160248
0.15582
0.170228
0.159581
0.164998
0.129625
0.1408
0.175394
0.179865
0.628114
0.640306
0.672078
0.639963
0.631857
0.632537
0.624731
0.508176
0.549629
0.290149
0.274321
0.269981
0.391503
0.530151
0.402375
0.436998
0.446524
0.391535
0.365673
0.000438772
2.25082e-16
0.0134438
0.213877
0.00027704
9.76159e-09
0.000995694
0.000255125
0.000396609
0.000963311
0.842799
0.828193
0.872899
0.864951
0.829224
0.828186
0.735337
0.817777
0.659872
0.607265
0.612325
0.603642
0.609248
0.603056
0.587516
0.602463
0.512147
0.582851
0.394546
0.448272
0.378416
0.391608
0.00100536
4.55059e-11
0.000154997
0.00100202
0.000103589
0.000987509
1.07111e-15
0.00844794
0.391338
0.204017
0.441604
0.437844
0.549209
0.651485
0.773184
0.77803
0.811597
0.789414
0.857568
0.887655
0.358747
0.35681
0.31576
0.290068
0.188105
0.221705
0.148986
0.158048
0.147407
0.144152
0.133087
0.144817
0.0632309
0.0996095
0.114359
0.164588
0.224565
0.175114
0.154415
0.143023
0.075609
0.0755498
0.111021
0.172941
0.0924297
0.128639
0.133497
0.098858
0.0931019
0.067545
0.0657658
0.0260825
0.0260009
0.0303344
0.0201737
0.129737
0.183668
0.143751
0.176672
0.545152
0.499967
0.400171
0.48958
0.411222
0.460365
0.472291
0.464236
0.473261
0.473753
0.382649
0.299529
0.225673
0.209186
0.28445
0.229137
0.214664
0.322892
0.213811
0.267466
0.203001
0.205664
0.212954
0.200734
0.21566
0.210193
0.210619
0.214355
0.214875
0.21435
0.218558
0.216158
0.223028
0.225949
0.236756
0.205639
0.224912
0.202494
0.175305
0.180917
0.205661
0.23289
0.230723
0.205251
0.189885
0.215365
0.260331
0.250451
0.266087
0.228967
0.270407
0.271284
0.304451
0.261777
0.277129
0.298992
0.323993
0.451749
0.534486
0.446215
0.486272
0.561159
0.620102
0.532877
0.398743
0.511216
0.405405
0.427755
0.162317
0.103668
0.141106
0.124023
0.241525
0.364087
0.294731
0.366109
0.362735
0.387854
0.364327
3.11932e-09
0.00080148
0.000387706
6.68081e-06
0.0252813
0.000964995
0.000599399
0.00100998
0.000160582
0.00100962
0.000664765
0.00100889
0.000730728
0.000955715
0.000582482
0.000952703
0.86643
0.861966
0.89422
0.882844
0.862318
0.835801
0.761841
0.673453
0.604533
0.617009
0.601594
0.597272
0.576349
0.571998
0.556923
0.555227
0.500723
0.549529
0.479106
0.416946
0.359796
0.318432
0.000973235
0.00111416
0.00111415
0.000663073
0.00042543
0.000731205
0.000584365
0.000666161
0.00111375
0.00111417
0.000847243
0.00100984
0.000684341
0.00100942
0.00125508
0.00017911
0.000294284
0.000487392
0.000977135
0.00096135
7.31626e-08
0.000978536
0.000793614
1.85613e-05
0.0967742
2.29536e-14
0.30062
0.462087
0.474641
0.565468
0.787346
0.680109
0.800315
0.798486
0.814227
0.842111
0.876161
0.893892
0.277344
0.277279
0.231866
0.257852
0.199888
0.158034
0.151
0.146925
0.144162
0.151195
0.107552
0.0991826
0.042757
0.0507106
0.116787
0.0954855
0.0521698
0.116374
0.102971
0.10852
0.0279865
0.0189739
0.0424303
0.0524729
0.0540104
0.0109098
0.0149548
0.0109633
0.0163999
0.000675941
0.000929252
0.303369
0.275467
0.276756
0.265973
0.294275
0.399885
0.35904
0.336927
0.222372
0.261706
0.24478
0.248934
0.15983
0.0919377
0.267153
0.379852
0.267096
0.273523
0.255021
0.338529
0.320939
0.387382
0.421394
0.348974
0.332432
0.359623
0.237666
0.214077
0.21312
0.209138
0.124711
0.180071
0.104661
0.0587408
0.0400008
0.157413
0.156107
0.20193
0.200925
0.203025
0.203004
0.203743
0.209243
0.207135
0.215598
0.211432
0.225347
0.221082
0.230806
0.227137
0.25168
0.241194
0.26603
0.273459
0.221357
0.20569
0.266471
0.245184
0.239663
0.251531
0.240084
0.22645
0.274906
0.250474
0.357695
0.373291
0.314671
0.354255
0.367312
0.332265
0.417279
0.397142
0.468676
0.48032
0.507765
0.424949
0.424236
0.42805
0.385803
0.36443
0.338542
0.421166
0.283411
0.254695
0.306944
0.330366
0.00643661
0.0553622
0.139454
0.257118
0.290684
0.327849
0.233398
0.197348
0.156226
0.102965
0.000965631
0.000310861
1.49103e-06
1.84795e-07
0.00100231
0.00469571
0.000993891
0.000234006
0.00100979
0.000545241
0.00024476
0.000470015
0.000926911
0.000208943
0.0008704
0.000986846
0.000766556
0.000551352
0.000138864
0.000388285
0.00097475
0.00101
0.000135666
0.00100021
0.000978284
0.000380376
0.00118599
0.000968355
0.000996192
0.001186
0.00118599
0.001186
0.000889314
0.000999494
0.0009727
0.000201819
9.59135e-05
0.000989075
0.000892979
0.0009482
0.00100959
0.000881287
0.00100809
0.00100869
2.68317e-05
0.000972323
0.86272
0.874843
0.896886
0.879755
0.86426
0.788359
0.605222
0.694894
0.574691
0.578852
0.561027
0.55244
0.547857
0.553764
0.546773
0.548371
0.486077
0.457006
0.363752
0.402226
0.257433
0.297346
0.000851104
0.000624444
0.000948563
0.000967574
0.000969466
0.000982262
0.000986514
0.000879074
0.000998153
0.000662916
0.000677989
0.000965569
0.000971308
0.000759356
0.000380116
0.000991326
0.000690401
0.00100737
0.000803925
0.000839513
0.000369052
0.000975289
0.000889611
0.000439439
0.000917861
0.00068906
0.00101
0.000641909
9.40117e-06
6.82991e-05
0.000645172
0.000719123
0.00137072
0.00086644
0.281197
0.108252
0.486619
0.441591
0.508931
0.613679
0.721726
0.800091
0.809425
0.802606
0.844081
0.872768
0.858202
0.859957
0.00101
0.000734461
0.000886173
0.000267789
0.000891659
0.000922867
0.00081396
0.000933023
0.000890554
0.000725685
0.000975785
0.00092383
0.000794854
3.03533e-07
0.000836048
0.00101
0.000170373
0.258183
0.25775
0.258439
0.225852
0.142123
0.17517
0.10726
0.100548
0.0583108
0.0527109
0.0103706
0.00807901
0.0371584
0.0369474
0.00077844
0.0257048
0.0239354
0.0736525
0.0562424
0.0513858
0.000763681
0.000940559
0.000733706
0.000868782
0.00113643
0.00118488
0.000975851
0.000567497
0.000326512
0.000996791
0.000920408
0.000390313
0.494884
0.463791
0.504474
0.510908
0.468769
0.42325
0.584974
0.605681
0.664989
0.68007
0.226631
0.266806
0.323931
0.409787
0.231127
0.171287
0.200185
0.20403
0.0449805
0.109525
0.14943
0.0378295
0.251332
0.255552
0.253603
0.253858
0.269648
0.253483
0.266239
0.282893
0.166769
0.163238
0.0548013
0.129607
0.147573
0.0911604
0.0472108
0.0452195
0.000965609
0.0229477
0.00467612
0.0887406
0.151791
0.0825773
0.152881
0.202553
0.203186
0.2037
0.210359
0.211148
0.229277
0.2215
0.23367
0.23725
0.262329
0.250201
0.269465
0.265157
0.272602
0.265763
0.27802
0.266098
0.314845
0.285997
0.247581
0.245457
0.323297
0.285909
0.290431
0.331435
0.364268
0.366763
0.368035
0.3707
0.402664
0.45909
0.520667
0.536617
0.545751
0.525815
0.668684
0.60911
0.739726
0.783116
0.763093
0.802484
0.865788
0.721676
0.809344
0.838791
0.91067
0.958382
0.988942
1.00772
1.03944
0.983917
1.03305
0.992729
1.06878
1.07002
1.1159
1.08508
1.14371
1.17639
1.1628
1.11344
1.18266
1.20831
1.17182
1.17086
1.23868
1.21087
1.24446
1.18732
1.18716
1.25502
1.22388
1.17138
1.17273
1.19973
1.23321
0.222191
0.187468
0.366614
0.358829
0.325482
0.323473
0.319358
0.090506
0.219713
0.000547114
0.00107427
0.0568495
0.0444974
0.000986886
0.000162163
0.000141388
0.156675
0.0598921
0.0606007
0.000611376
0.00091179
0.000674475
0.000996141
0.000348366
0.00101605
5.27544e-07
5.8384e-05
9.70941e-06
1.89669e-05
0.00101
0.000966006
0.000995857
0.000646827
1.86984e-05
0.00144483
0.000842141
0.000928041
0.000844807
0.000704338
0.000269899
0.00069126
0.000943677
0.000831092
0.00123728
0.000605529
0.00012748
0.000146108
0.000949
0.000318209
1.04617e-05
1.61879e-05
0.000990101
0.000818938
0.00100231
0.000950705
0.000911134
0.000410555
0.00075381
0.00099933
0.00116334
0.000865334
0.000927957
0.000997838
0.000989455
0.00100986
0.00105967
0.000600103
0.00104911
0.000926884
0.00104927
0.00104939
0.00101715
0.00097759
0.00104953
0.00104926
0.00046961
0.000658359
0.00101
0.000773625
0.000908767
0.000377029
0.000991017
0.000960908
0.00100983
0.00100977
0.000136678
0.000944113
0.000950381
0.000921886
0.000915695
0.000919934
0.000768762
0.00118641
0.000756887
0.000968314
0.852178
0.838852
0.809156
0.814429
0.728606
0.796555
0.619425
0.563304
0.545641
0.554485
0.549447
0.546572
0.485221
0.49285
0.339439
0.299149
0.254067
0.431433
0.431009
0.383046
0.377436
0.377408
0.000647301
0.000461304
0.00105797
0.00105787
0.000962471
0.000414864
0.000711517
0.000410365
0.00105774
0.00098911
0.000161511
0.00100893
0.000972717
0.000941946
0.000297472
0.000985833
0.000726155
0.00091818
0.00021426
0.00071546
0.000534321
0.000951565
0.00123958
0.00123982
3.81621e-05
7.22748e-06
0.000181475
0.00136838
0.111193
4.16977e-07
0.270701
0.447734
0.472684
0.503226
0.585982
0.696792
0.762617
0.7437
0.782411
0.724115
0.773527
0.810521
0.769957
0.762073
0.00123103
0.000910307
0.00101
0.000849207
0.000999762
0.00120014
0.00075726
0.00079882
0.00120014
0.000952606
0.000973001
0.00100941
6.9175e-05
1.14836e-05
0.000902437
0.000416806
1.85637e-05
0.000656439
0.00098774
0.000236686
0.000248866
0.000806315
0.00096459
0.000795867
0.00130592
0.00100941
0.235753
0.233716
0.150491
0.167705
0.0447319
0.0668156
0.00601949
0.00631188
0.00490506
0.00675832
0.000277829
0.000956187
0.000873817
0.000642143
0.000113617
0.000843532
0.0468295
0.00948698
0.0488403
0.0467221
0.000519885
0.0002975
0.000344592
0.0008342
0.00030944
0.000950196
0.000717662
0.000602104
0.000980152
0.000764758
0.00124071
0.000737653
0.717422
0.717049
0.546254
0.464296
0.451046
0.439764
0.708079
0.62264
0.873808
0.950753
0.845702
0.763464
0.967517
0.948569
1.01451
1.05741
1.08312
1.08502
1.11209
1.08477
1.13969
1.16693
1.16309
1.16505
1.18279
1.17393
1.17309
1.22023
1.15887
1.15344
0.27676
0.201513
0.351063
0.425365
0.213043
0.163908
0.197829
0.201768
0.0354764
0.0830014
0.000677497
0.0910197
0.000663112
0.251089
0.194912
0.250381
0.243247
0.25303
0.143922
0.0446655
0.000826798
3.72482e-06
6.31305e-07
0.010195
7.2915e-138
4.68632e-26
1.81001e-06
0.000998818
0.0150581
0.00952778
1.52064e-09
0.0304421
0.0978684
0.046557
0.154931
0.100625
0.137803
0.197349
0.231726
0.210368
0.241834
0.247514
0.257364
0.242214
0.27264
0.288899
0.29212
0.301365
0.301255
0.301011
0.342719
0.345854
0.342976
0.341375
0.338106
0.32973
0.359348
0.370243
0.421309
0.415274
0.377164
0.409277
0.405353
0.438555
0.470123
0.529015
0.563696
0.557132
0.570825
0.642647
0.729313
0.793138
0.806801
0.936629
0.808871
0.862123
1.01875
1.0317
1.03558
1.06886
1.11545
1.17034
1.17967
1.18519
1.21709
1.24072
1.27159
1.27014
1.25725
1.26353
1.27353
1.25163
1.18607
1.24592
1.20958
1.16501
1.17018
1.20131
1.23574
1.24452
1.16635
1.23398
1.1922
0.016953
0.0100401
0.0858187
0.153542
0.0471721
0.118382
0.246606
0.18871
0.208263
0.0474016
0.000795895
2.51267e-06
0.000769898
0.0192539
0.0085441
4.50936e-05
1.64514e-05
2.97285e-05
0.000992957
0.00142618
0.00142836
0.000284872
0.000321971
0.000210112
0.00137747
0.000871197
0.000864529
0.00111117
0.000915946
0.00127642
0.00127704
0.00086849
0.000172666
0.000681064
0.00144451
0.000981197
0.000829611
0.000478021
0.000315336
0.000575915
0.00101
0.000761851
0.00123688
0.000945809
0.00102171
0.000744514
0.000660221
0.000998234
0.000701989
0.000950026
0.000874495
0.00105264
0.000950444
0.000974783
0.000744326
0.00107765
8.40387e-05
0.00099613
0.000976554
0.000157112
0.000663856
0.000544652
0.000936558
0.000816347
0.000902253
0.000800339
0.000993967
0.000978339
0.000943996
0.000974885
0.00092222
0.000233259
0.00129277
0.000931012
0.00103615
0.000800919
0.00100962
0.000641972
0.000367709
0.000916152
0.000960434
0.000959078
0.000892128
0.000606535
0.000479733
0.758102
0.762009
0.744496
0.749735
0.678977
0.735933
0.548065
0.61275
0.511595
0.507
0.45255
0.435643
0.378094
0.380872
0.291183
0.194279
0.166588
0.336964
0.382605
0.383507
0.376539
0.378056
0.00105815
0.000925692
0.00105823
0.000353494
0.000973634
0.000973647
0.00094649
0.000972052
0.00100548
0.000830393
0.000135327
0.000443538
0.00093376
0.000997208
0.00060297
0.00100999
0.00098232
3.53596e-05
0.000985985
0.000873381
0.000276721
0.000625834
0.000655599
0.00101
0.000321117
3.32274e-05
0.00016739
0.000944124
0.181077
0.00608887
0.31076
0.449866
0.42193
0.52921
0.695941
0.60161
0.678462
0.674722
0.672806
0.695311
0.755294
0.74979
0.752342
0.729629
0.000769413
0.000922585
0.000573493
0.000958878
0.000712787
0.000933944
0.000627141
0.000420937
0.00081528
0.000879841
0.000957505
0.00104625
0.000972993
1.59562e-05
0.000915771
0.000873917
0.00096514
0.000987798
0.000840939
0.0010399
0.000524128
0.00104379
0.00110789
0.000901385
0.00101
0.000860782
0.000668131
0.000489708
0.000136748
7.57776e-05
0.00098545
0.108399
0.108283
0.0703331
0.0492131
0.00615517
0.028345
0.000989348
0.000535103
0.145962
0.0886278
0.0685451
0.000187059
0.0009323
0.000408908
0.00100989
0.0013437
0.00134356
0.000252172
0.000924094
0.0210544
0.000815226
0.0110602
0.000699901
0.000830286
0.000589295
0.000349619
0.000338758
0.000587295
0.00100971
1.30661e-05
0.00052455
0.000737284
0.000689738
0.000594218
0.000809643
1.29031
1.30186
1.32672
1.29962
1.34643
1.32964
1.35691
1.34824
1.40995
1.39277
1.35802
1.41552
1.38236
1.43394
1.26353
1.21366
1.23325
1.28116
1.26442
1.23596
1.23597
1.28785
1.29053
1.27183
1.25244
1.29949
1.28255
1.2882
1.31359
1.16998
1.17229
1.1735
1.16994
1.18559
1.20903
0.763358
0.707219
0.604434
0.515605
0.424876
0.499871
0.697237
0.673866
0.915252
0.947389
0.825766
0.912898
0.955131
1.00379
1.05284
1.08838
1.08624
1.08577
1.07898
1.11174
1.12201
1.15045
1.13314
1.1403
1.15154
1.15965
1.13001
1.12935
0.324638
0.25455
0.206455
0.186556
0.242352
0.427261
0.401304
0.137172
0.192659
0.0584381
0.000671775
1.27963
1.29887
1.31864
1.32234
1.32379
1.33376
1.33962
1.36324
1.34984
1.36927
1.36838
1.42198
1.44641
1.46841
1.46543
1.46956
1.48847
1.5117
0.000395959
0.000587555
0.00138991
0.174375
0.0693402
0.237284
0.141137
0.0568734
0.00120969
4.85226e-06
0.00120945
0.00120932
0.000150505
0.000237715
0.000549933
0.000634227
1.56935e-49
6.10001e-120
0.0226503
0.000868462
0.000400953
0.0451305
0.0444174
0.0473018
0.102022
0.0606851
0.183121
0.131135
0.21564
0.181197
0.21612
0.246968
0.267864
0.298656
0.308579
0.313145
0.325711
0.313157
0.370301
0.359105
0.355971
0.354834
0.403025
0.378429
0.453668
0.412082
0.388114
0.433658
0.472397
0.470778
0.493764
0.526169
0.527218
0.470766
0.582917
0.610969
0.584143
0.566526
0.655272
0.730989
0.805157
0.876265
0.820539
0.842282
0.977003
1.02513
1.07331
1.05024
1.11468
1.15341
1.19556
1.20483
1.20443
1.22044
1.27632
1.26165
1.25793
1.27442
1.27646
1.28413
1.25283
1.25804
1.2731
1.2752
1.26848
0.00379449
0.000159496
0.0163199
0.000150938
0.000316237
0.000275528
0.000693272
0.0573797
0.000645429
0.000918826
0.000624312
0.000992538
0.000139939
0.000557314
0.00139014
0.000867906
0.000330691
4.80645e-05
4.28478e-05
0.00142477
0.00078718
0.00038011
0.000931335
0.0001026
0.000735431
0.00014751
0.000728231
0.000881522
0.00111354
0.000951555
0.0012745
0.000817964
0.00106377
0.000992182
0.000776109
0.00096702
0.000896738
0.000998449
0.00026155
0.000888291
0.00100984
0.000894905
0.00111314
0.000444693
0.000398457
0.000668916
0.000988932
0.000269368
0.000740386
1.02712e-09
1.21247e-06
0.00239944
0.000381043
0.00102217
0.000694792
0.000545923
0.000997667
0.00040159
0.00100993
0.000972649
0.000977525
0.000963111
0.000999516
0.000711076
0.00109096
0.000851333
0.000756606
0.000990344
0.000842639
0.00109052
0.00089779
0.000955844
0.000631827
0.000258775
0.000779995
0.000964465
0.000941166
0.000838222
0.00101
0.000334973
0.000769708
0.000685233
0.000978177
0.000925692
0.000935309
0.000917422
0.00091709
0.000695524
0.000567275
0.00194219
0.000215941
0.000674617
0.000835469
0.000997819
0.00194336
1.45227
1.4252
1.40358
1.50027
1.53888
1.52834
0.744451
0.740309
0.731528
0.726679
0.649004
0.71471
0.542659
0.471671
0.393572
0.409622
0.379458
0.379775
0.378066
0.381271
0.254827
0.177332
0.266752
0.345497
0.342855
0.00093523
0.000817772
0.000875173
0.000890082
0.000949223
0.0009764
0.000965395
0.000493094
0.000931051
0.000554111
0.00100943
0.00103921
0.000996373
0.000968182
0.000732087
0.00638296
0.00100998
0.000498781
0.000128694
0.000927014
4.59314e-06
0.000273758
0.000921556
0.000785239
0.00052174
0.000783296
0.000978157
0.146653
0.290286
0.399086
0.401697
0.719145
0.636415
0.653188
0.442306
0.526579
0.618332
0.6666
0.668986
0.67038
0.688028
0.715033
0.709142
0.000736479
0.00112799
0.000622634
0.000982796
0.000751468
0.000730404
0.00100904
0.000845157
0.000732111
0.000934152
0.000817811
0.000932446
0.000763197
0.000967158
0.00100996
0.000935357
0.000797728
0.00101998
0.000985104
0.000897215
0.00092508
0.000824304
0.000770427
0.000946216
0.00101244
0.000975236
0.000338951
0.000953068
0.000990909
0.000973622
0.00101
0.000984843
0.000871643
0.000978065
0.000827832
0.0011733
0.000978581
0.109831
0.141274
0.127881
0.0725741
0.0691306
0.0428641
0.0624951
0.000187462
0.000672968
0.000278868
0.000919076
0.0764445
0.0634512
0.000406768
0.000942853
0.000612942
0.000962556
0.000490688
0.000432878
0.000792371
0.000136085
0.000130777
0.00065721
0.000273056
0.00100635
5.79952e-05
0.000680105
0.000702988
0.000420221
0.000653842
0.000551523
0.000693939
9.93495e-05
0.000358069
0.000994303
6.39074e-05
0.000979051
1.29035
1.29934
1.32413
1.34806
1.35566
1.35406
1.39109
1.36879
1.22665
1.22374
1.21124
1.22623
1.26337
1.22952
1.27081
1.24686
1.15914
1.15077
1.1498
1.17843
1.20617
1.18109
0.765417
0.691712
0.592865
0.67545
0.526145
0.433508
0.682502
0.689083
0.921605
0.927791
0.944352
0.845317
0.913881
1.03216
0.981594
0.916316
0.958536
1.0662
1.07558
1.07058
1.07345
1.08267
1.1064
1.13058
1.12144
1.12834
1.1298
1.13028
1.13357
1.1262
1.12769
0.181358
0.180635
0.317777
0.396252
0.180593
0.251105
0.411837
0.434524
0.188138
0.0989925
0.0205589
0.0923417
1.31087
1.25902
1.28944
1.32987
1.32763
1.32614
1.33719
1.35851
1.38205
1.39772
1.39339
1.40018
1.42395
1.46647
1.45276
1.46883
1.48537
1.52933
1.50366
1.33327
1.34282
1.36044
1.53689
1.53147
1.54321
0.00138929
0.00138926
0.00138945
0.000273552
0.000284811
0.00137082
0.000864505
0.000928091
0.000675277
0.000659527
0.000757232
0.000881632
0.000648207
0.00121203
0.000630466
0.00121199
0.000969713
4.74396e-06
0.000777636
2.57594e-09
0.00178473
0.000936833
0.04745
0.000946099
0.119425
0.148028
0.0847787
0.117667
0.181405
0.151508
0.273111
0.222453
0.289472
0.302996
0.31446
0.30373
0.338129
0.386005
0.424719
0.431312
0.430843
0.416618
0.448729
0.422567
0.470031
0.478261
0.506972
0.510343
0.480484
0.480928
0.598686
0.647814
0.544944
0.609424
0.658216
0.616354
0.722981
0.762971
0.863584
0.908563
0.883662
0.976972
1.02589
1.1248
1.10934
1.17334
1.14023
1.23839
1.2504
1.24088
1.27041
1.2973
1.29121
1.35099
1.31243
1.34708
1.3206
1.27903
1.33157
1.29737
1.32656
1.26558
0.000315756
9.54286e-05
0.000809039
0.000599838
0.000769361
0.000964183
0.00057408
1.0204e-06
0.00101
0.000199154
0.000181587
0.000512431
0.000156399
0.000632165
0.000515939
0.00034834
0.00083323
0.000104418
0.000302915
2.86378e-05
0.000124015
4.98173e-05
5.50518e-07
0.000289453
0.000978557
0.000903561
0.000999883
4.88689e-05
0.00111327
0.00111319
0.000982323
0.000995782
0.000992745
3.82214e-05
0.00101
0.000912008
0.0010004
0.000112849
0.00044385
0.000919656
4.07072e-05
0.000297927
0.00200163
1.16117e-05
0.000984734
7.25994e-05
0.0009581
0.000364482
0.000991746
3.20685e-05
0.000981192
0.00220303
0.000996604
0.000134455
0.000924422
0.00117834
0.00117119
0.000444402
0.00100983
0.000979813
0.000465046
0.000983408
0.000969573
0.000835887
0.0010906
0.00109055
0.000938621
0.000955453
0.00109056
0.00109052
0.000955402
0.000707747
0.000711032
0.000919589
0.00137109
0.000105207
0.00137084
0.000893969
0.00098702
0.000966821
0.000994934
0.00101472
0.00104728
0.00104742
0.000829235
0.000805878
0.000827454
1.22783e-05
9.12481e-06
0
0.00096591
0.000799517
0.000430028
0.000881156
0.0011711
0.000898711
0.00100958
0.00100997
0.000972346
0.000998553
0.000946811
0.000914726
0.00101
1.40707
1.4391
1.44597
1.43079
1.4731
1.57579
1.55132
1.55485
1.58155
1.51098
0.649901
0.637187
0.569847
0.570578
0.534236
0.555114
0.476737
0.4265
0.415261
0.377853
0.354676
0.355487
0.266949
0.275811
0.151192
0.179465
0.186176
0.000529692
0.000965684
0.000913493
0.00101
0.000980092
0.000917688
0.000585991
0.00123967
0.117701
0.000190577
0.000919443
0.000220381
0.000954139
0.000961382
1.56915e-06
0.000368616
0.00101
0.000973131
0.000925341
0.00102231
0.000849804
0.000992382
0.000944045
0.000847483
0.00025022
0.514223
0.514961
0.561244
0.260292
0.399432
0.401415
0.432356
0.560266
0.631324
0.588151
0.500772
0.58525
0.606264
0.614415
0.53125
0.559599
0.000957717
0.000986356
0.00112805
0.00103201
0.000593363
0.000843291
0.00101461
0.00119063
0.000981819
0.000993078
0.000160682
0.00195266
0.000989977
0.000936631
0.000510229
0.00291437
0.00294719
0.00293646
0.000766431
0.000973734
0.000996066
0.00101941
0.00085043
0.000975817
0.000899301
0.00100998
0
0
0
0.000959356
0.000920205
0.000959732
0.00100136
0.000966325
0.000469554
0.000992651
0.0010996
0.000964161
0.00097325
0.000341416
0.000950085
0.000929535
0.000976972
0.000968251
0.000953736
0.126495
0.137973
0.140356
0.0104249
0.0315059
7.97138e-05
0.000509262
0.000975224
0.000761952
0.000910904
0.000479969
0.00106895
0.00206894
0.000724803
0.000516345
0.000406739
0.000498141
0.000242686
0.000584634
0.000389242
0.000873238
0.000270985
0.000575667
0.000666396
0.000877991
0.00339938
7.22966e-06
0.00015831
0.00113597
0.000619825
0.00117196
0.000312228
0.000747328
0.000742301
0.000346646
0.00101
0.000942721
0.000635229
0.00113544
1.29048
1.24878
1.31765
1.28769
1.29433
1.34334
1.33879
1.3819
1.39017
1.40164
1.39233
1.3333
1.40286
1.35284
1.19371
1.18568
1.18394
1.19171
1.21143
1.21839
1.22116
1.22651
1.13891
1.13605
1.15821
1.14513
1.17347
1.1822
0.769304
0.695131
0.620945
0.69128
0.477653
0.579969
0.687999
0.69771
0.923736
0.913699
0.918725
0.854582
1.00691
1.05307
0.964328
0.919854
1.06111
1.06295
1.07729
1.0643
1.10609
1.12422
1.13052
1.13534
1.13168
1.12311
1.13278
1.12958
1.12378
1.12104
0.16974
0.172662
0.33917
0.4093
0.312823
0.23497
0.474208
0.407534
0.136484
0.178265
0.134573
0.0588496
1.28427
1.3523
1.33917
1.34101
1.36268
1.35665
1.39537
1.40137
1.3783
1.39566
1.38285
1.39702
1.40308
1.42692
1.45086
1.46651
1.46407
1.52251
1.49799
1.54711
1.55194
1.41983
1.4317
1.54473
1.56427
0.000415286
0.000119585
0.000696944
0.000551543
0.000525579
9.3846e-05
0.000260243
0.000213632
0.00101
1.00585e-05
0.000927799
0.000258474
0.000631422
0.000657476
5.07035e-06
0.000780461
0.00178469
0.000536964
0.000872027
0.000687083
0.000543027
3.13223e-16
0.0373697
4.17086e-100
0.140312
0.138831
0.105892
0.057976
0.181068
0.216834
0.280463
0.265999
0.281557
0.270523
0.397092
0.341462
0.45955
0.434538
0.475747
0.466113
0.455358
0.511537
0.542575
0.521036
0.503501
0.533291
0.587008
0.563653
0.55004
0.593085
0.675501
0.674973
0.673574
0.687897
0.823029
0.734327
0.909567
0.932734
0.934293
0.999407
1.06782
1.14767
1.1509
1.16812
1.21478
1.26409
1.29951
1.29727
1.3345
1.31203
1.36309
1.37633
1.38039
1.37882
1.3771
1.37035
1.36927
1.3906
1.32397
0.000849349
0.000100354
0.00642652
0.0010256
0.000693174
7.73581e-05
0.000686777
0.000538285
0.00079675
0.000700239
0.00101
0.00127831
0.00052289
0.00127908
0.00127846
0.00127865
0.00127883
0.000999524
0.00127799
0.00623114
0.00100914
0.000638589
0.000184916
0.00206947
0.000413504
0.00206937
0.00206911
0.000416193
0.00027768
0.00100217
0.000993637
0.000687571
0.000856518
0.00078983
0.00101
0.00104295
0.000780166
0.000959982
0.00100986
0.000887496
0.000962023
0.000976535
0.00179294
0.000994971
0.000146754
1.36216e-05
0.000607696
0.00096357
0.000988249
0.000479144
0.000826696
0.000976471
0.00100941
0.00031059
0.000118133
0.000987756
0.00100992
0.000817418
0.000560979
0.000832075
0.00101
0.000799183
0.000972521
0.000279366
0.000904827
0.00095865
0.00097874
0.000998751
0.000952709
0.000941374
0.000886752
0.00100949
0.00097168
0.000773375
0.000984106
0.000952799
0.000776251
0.00098992
0.000934564
0.000964099
0.000974876
0.000974485
0.00112255
0.000999646
0.000905098
0.000521085
0
0
0
0
0
0
0
0
0
0
0
0
0
0
0
0
0
0
0
0.00099334
0.000900893
0.000937661
0.000812305
0.00090663
0.000434354
0.000930589
0.00106743
0.000325168
0.000811332
0.00035232
0.000878445
1.60159
1.59487
1.60981
1.6083
1.61072
1.61294
1.44329
1.44224
1.5132
1.4729
1.58026
1.59645
1.58389
1.47449
1.38921
0.508468
0.514733
0.514493
0.500396
0.516545
0.445297
0.489882
0.275931
0.33502
0.199722
0.2036
0.140289
0.144347
0.140171
4.53839e-05
0.000879391
0.000495047
0.000982711
0.000870685
0.141841
0.000585959
0.000961728
0.000977449
0.000625545
0.000686377
0.000984192
0.000961616
0.000962997
0.00097202
0.000717645
0.000335301
0.000983795
0.00101
0.000213894
0.00100974
0.000932938
0.0004632
0.000619584
0.515274
0.51487
0.515422
0.514459
0.517469
0.229761
0.339843
0.288105
0.403209
0.469126
0.48802
0.421476
0.504413
0.457033
0.458851
0.442816
0.000954778
0.00113841
0.000700454
0.000970576
0.000973219
0.000935143
0.000878656
0.00101502
0.000143263
0.000884407
0.00101391
0.00062522
6.92933e-05
0.000527482
0.000644241
0.000616055
0.000763669
0.000919235
0.000993822
0.00101581
0.000698427
0.000904418
0.000740767
0.000726241
0.000621516
0.00100972
0.000684552
0.000970938
0.000351873
2.15212e-05
0
0
0
0
0
0.000978181
0.000982393
0.000968882
0.00116496
0.000955329
0.000983145
0.000772088
0.000894534
0.00096051
0.000956074
0.000977372
0.000845929
0.000979339
0.00097273
0.000787048
0.000895149
0
0
0
0
0
0
0.126294
0.0477822
0.0379708
0.0007238
0.000368014
0.000705021
0.00078824
0.000960083
0.000791447
0.000311719
0.00100956
0.000860577
0.000375808
0.000550644
0.00033854
0.000760208
0.000752664
0.000795758
0.000905726
0.000971356
0.000995195
6.51335e-05
0.000810536
0.000134548
0.000486704
0.000728602
0.000634249
0.000404769
0.000958393
0.00027789
0.000631005
1.31742e-05
0.000467482
0.00182756
0.00183069
0.000699643
0.000959699
0.000281529
0.000798649
0.00100972
0.000818552
1.2726
1.24688
1.2636
1.26299
1.26511
1.28469
1.2698
1.32301
1.33467
1.35492
1.4309
1.3838
1.32782
1.17666
1.18182
1.20624
1.19589
1.22436
1.22044
1.24403
1.22751
1.13721
1.14357
1.17052
1.15095
1.16564
1.1725
0.811221
0.726615
0.658189
0.691527
0.639613
0.532298
0.727668
0.692262
0.92917
0.923626
0.8823
0.928868
1.01473
1.06527
0.930817
0.975269
1.06832
1.06646
1.08974
1.06871
1.1105
1.12706
1.13151
1.12648
1.12609
1.12703
1.12756
1.12148
1.12631
1.12062
0.17169
0.224708
0.411602
0.389923
0.309624
0.398397
0.417868
0.490104
0.160445
0.154336
0.140427
0.0655538
5.3971e-05
9.2263e-05
0.0355461
1.35633
1.38935
1.39522
1.40072
1.41522
1.43419
1.43803
1.4373
1.47741
1.44885
1.46478
1.43124
1.46018
1.47164
1.49757
1.51687
1.52992
1.52609
1.58096
1.58116
1.60632
1.58646
1.49396
1.49699
1.61473
1.61057
0.00016622
0.000334169
0.00101
8.3553e-06
0.000729054
0.00122574
0.00122561
0.000977179
0.000305007
0.000143911
0.000159187
0.00192499
0.00122643
0.00050435
0.000822227
0.00085655
0.00100232
0.000626775
0.000320397
0.000824137
8.63116e-05
0.000995528
0.000313215
0.00113818
0.000727779
0.0944822
0.156401
0.039425
0.256447
0.198954
0.267283
0.267165
0.369458
0.313617
0.425303
0.454916
0.451108
0.46007
0.574183
0.527698
0.502109
0.560259
0.587254
0.58087
0.587318
0.579414
0.587422
0.58177
0.670287
0.710054
0.754467
0.704971
0.750432
0.776755
0.917482
0.852041
0.946165
0.93208
1.00583
1.0871
1.1684
1.16801
1.20429
1.2388
1.31439
1.30807
1.32592
1.3338
1.36248
1.37187
1.39216
1.38378
1.39673
1.39352
1.37581
1.3904
1.37692
1.37569
0.000975042
0.000864682
0.00101
0.00067133
0.000955405
0.000657298
0.000566723
0.000789161
0.000642839
0.00127844
0.000346526
0.000777264
0.000295436
0.00127754
0.00127728
0.00127687
0.00127796
0.00127831
0.0012783
0.000317234
0.000371652
0.00100461
0.000689527
0.000938422
0.000788581
0.00100179
0.000943005
0.000997704
0.000180038
0.000954666
0.000624923
0.00101
0.000209386
0.000613088
0.00100863
0.00104296
0.000662291
0.000881619
0.000974054
0.00354235
0.000163462
0.000210438
0.00024578
0.00100992
0.000871155
6.51125e-09
0.000993067