/*--------------------------------*- C++ -*----------------------------------*\
  =========                 |
  \\      /  F ield         | OpenFOAM: The Open Source CFD Toolbox
   \\    /   O peration     | Website:  https://openfoam.org
    \\  /    A nd           | Version:  8
     \\/     M anipulation  |
\*---------------------------------------------------------------------------*/
FoamFile
{
    version     2.0;
    format      ascii;
    class       volScalarField;
    location    "5880";
    object      Hclip;
}
// * * * * * * * * * * * * * * * * * * * * * * * * * * * * * * * * * * * * * //

dimensions      [0 1 0 0 0 0 0];

internalField   nonuniform List<scalar> 
526318
(
0.747998
0.70878
0.780794
0.691048
0.763652
0.721343
0.735044
0.652633
0.713158
0.590324
0.571741
0.693258
0.638169
0.676722
0.639711
0.666734
0.634433
0.834535
0.74503
0.791376
0.786519
0.739746
0.505456
0.740412
0.624162
0.490342
0.764674
0.762026
0.763744
0.776593
0.805423
0.852159
0.834516
0.715048
0.716442
0.679676
0.692205
0.77787
0.707902
0.660322
0.716956
0.686755
0.352991
0.400368
0.308151
0.363955
0.334914
0.453471
0.637282
0.533632
0.624907
0.621253
0.577033
0.530887
0.0321137
0.274381
0.273148
0.0713552
0.791914
0.807634
0.828161
0.777911
0.718978
0.852851
0.84452
0.802566
0.793601
0.790929
0.693788
0.687178
0.797061
0.58122
0.632537
0.528197
0.483544
0.473123
0.573286
0.560646
0.480589
0.523421
0.599444
0.605357
0.559933
0.509735
0.535818
0.607458
0.603072
0.583017
0.534636
0.607017
0.508033
0.464098
0.451187
0.390083
0.384648
0.38764
0.383463
0.384155
0.382003
0.383785
0.001
0.001
0.001
0.001
0.00103668
0.001
0.293506
0.100788
0.423684
0.376584
0.420071
0.540893
0.762506
0.654577
0.763397
0.778976
0.841179
0.814881
0.859076
0.380428
0.375076
0.382431
0.38381
0.339841
0.374936
0.290062
0.332977
0.243255
0.288299
0.241319
0.240333
0.233389
0.204774
0.199496
0.225707
0.166413
0.221217
0.168689
0.191377
0.134078
0.142833
0.162296
0.189212
0.175106
0.133313
0.135236
0.149922
0.140014
0.132122
0.143508
0.154742
0.143946
0.145543
0.150025
0.143389
0.114147
0.141605
0.149548
0.1147
0.0585853
0.151824
0.0924191
0.151526
0.65232
0.743388
0.686594
0.673369
0.472363
0.542844
0.478916
0.473803
0.474241
0.473687
0.500734
0.467266
0.403029
0.379272
0.34495
0.282877
0.344883
0.388965
0.386426
0.389433
0.277147
0.326063
0.212214
0.225079
0.233129
0.220301
0.224989
0.226077
0.217289
0.216225
0.211985
0.204492
0.183773
0.208593
0.201489
0.17001
0.150752
0.180294
0.160248
0.15582
0.170228
0.159581
0.164998
0.129625
0.1408
0.175394
0.179865
0.628114
0.640306
0.672078
0.639963
0.631857
0.632537
0.624731
0.508176
0.549629
0.290149
0.274321
0.269981
0.391503
0.530151
0.402375
0.436998
0.446524
0.391535
0.365673
0.001
0.001
0.0134438
0.213877
0.001
0.001
0.001
0.001
0.001
0.001
0.842799
0.828193
0.872899
0.864951
0.829224
0.828186
0.735337
0.817777
0.659872
0.607265
0.612325
0.603642
0.609248
0.603056
0.587516
0.602463
0.512147
0.582851
0.394546
0.448272
0.378416
0.391608
0.00100536
0.001
0.001
0.00100202
0.001
0.001
0.001
0.00844794
0.391338
0.204017
0.441604
0.437844
0.549209
0.651485
0.773184
0.77803
0.811597
0.789414
0.857568
0.887655
0.358747
0.35681
0.31576
0.290068
0.188105
0.221705
0.148986
0.158048
0.147407
0.144152
0.133087
0.144817
0.0632309
0.0996095
0.114359
0.164588
0.224565
0.175114
0.154415
0.143023
0.075609
0.0755498
0.111021
0.172941
0.0924297
0.128639
0.133497
0.098858
0.0931019
0.067545
0.0657658
0.0260825
0.0260009
0.0303344
0.0201737
0.129737
0.183668
0.143751
0.176672
0.545152
0.499967
0.400171
0.48958
0.411222
0.460365
0.472291
0.464236
0.473261
0.473753
0.382649
0.299529
0.225673
0.209186
0.28445
0.229137
0.214664
0.322892
0.213811
0.267466
0.203001
0.205664
0.212954
0.200734
0.21566
0.210193
0.210619
0.214355
0.214875
0.21435
0.218558
0.216158
0.223028
0.225949
0.236756
0.205639
0.224912
0.202494
0.175305
0.180917
0.205661
0.23289
0.230723
0.205251
0.189885
0.215365
0.260331
0.250451
0.266087
0.228967
0.270407
0.271284
0.304451
0.261777
0.277129
0.298992
0.323993
0.451749
0.534486
0.446215
0.486272
0.561159
0.620102
0.532877
0.398743
0.511216
0.405405
0.427755
0.162317
0.103668
0.141106
0.124023
0.241525
0.364087
0.294731
0.366109
0.362735
0.387854
0.364327
0.001
0.001
0.001
0.001
0.0252813
0.001
0.001
0.00100998
0.001
0.00100962
0.001
0.00100889
0.001
0.001
0.001
0.001
0.86643
0.861966
0.89422
0.882844
0.862318
0.835801
0.761841
0.673453
0.604533
0.617009
0.601594
0.597272
0.576349
0.571998
0.556923
0.555227
0.500723
0.549529
0.479106
0.416946
0.359796
0.318432
0.001
0.00111416
0.00111415
0.001
0.001
0.001
0.001
0.001
0.00111375
0.00111417
0.001
0.00100984
0.001
0.00100942
0.00125508
0.001
0.001
0.001
0.001
0.001
0.001
0.001
0.001
0.001
0.0967742
0.001
0.30062
0.462087
0.474641
0.565468
0.787346
0.680109
0.800315
0.798486
0.814227
0.842111
0.876161
0.893892
0.277344
0.277279
0.231866
0.257852
0.199888
0.158034
0.151
0.146925
0.144162
0.151195
0.107552
0.0991826
0.042757
0.0507106
0.116787
0.0954855
0.0521698
0.116374
0.102971
0.10852
0.0279865
0.0189739
0.0424303
0.0524729
0.0540104
0.0109098
0.0149548
0.0109633
0.0163999
0.001
0.001
0.303369
0.275467
0.276756
0.265973
0.294275
0.399885
0.35904
0.336927
0.222372
0.261706
0.24478
0.248934
0.15983
0.0919377
0.267153
0.379852
0.267096
0.273523
0.255021
0.338529
0.320939
0.387382
0.421394
0.348974
0.332432
0.359623
0.237666
0.214077
0.21312
0.209138
0.124711
0.180071
0.104661
0.0587408
0.0400008
0.157413
0.156107
0.20193
0.200925
0.203025
0.203004
0.203743
0.209243
0.207135
0.215598
0.211432
0.225347
0.221082
0.230806
0.227137
0.25168
0.241194
0.26603
0.273459
0.221357
0.20569
0.266471
0.245184
0.239663
0.251531
0.240084
0.22645
0.274906
0.250474
0.357695
0.373291
0.314671
0.354255
0.367312
0.332265
0.417279
0.397142
0.468676
0.48032
0.507765
0.424949
0.424236
0.42805
0.385803
0.36443
0.338542
0.421166
0.283411
0.254695
0.306944
0.330366
0.00643661
0.0553622
0.139454
0.257118
0.290684
0.327849
0.233398
0.197348
0.156226
0.102965
0.001
0.001
0.001
0.001
0.00100231
0.00469571
0.001
0.001
0.00100979
0.001
0.001
0.001
0.001
0.001
0.001
0.001
0.001
0.001
0.001
0.001
0.001
0.00101
0.001
0.00100021
0.001
0.001
0.00118599
0.001
0.001
0.001186
0.00118599
0.001186
0.001
0.001
0.001
0.001
0.001
0.001
0.001
0.001
0.00100959
0.001
0.00100809
0.00100869
0.001
0.001
0.86272
0.874843
0.896886
0.879755
0.86426
0.788359
0.605222
0.694894
0.574691
0.578852
0.561027
0.55244
0.547857
0.553764
0.546773
0.548371
0.486077
0.457006
0.363752
0.402226
0.257433
0.297346
0.001
0.001
0.001
0.001
0.001
0.001
0.001
0.001
0.001
0.001
0.001
0.001
0.001
0.001
0.001
0.001
0.001
0.00100737
0.001
0.001
0.001
0.001
0.001
0.001
0.001
0.001
0.00101
0.001
0.001
0.001
0.001
0.001
0.00137072
0.001
0.281197
0.108252
0.486619
0.441591
0.508931
0.613679
0.721726
0.800091
0.809425
0.802606
0.844081
0.872768
0.858202
0.859957
0.00101
0.001
0.001
0.001
0.001
0.001
0.001
0.001
0.001
0.001
0.001
0.001
0.001
0.001
0.001
0.00101
0.001
0.258183
0.25775
0.258439
0.225852
0.142123
0.17517
0.10726
0.100548
0.0583108
0.0527109
0.0103706
0.00807901
0.0371584
0.0369474
0.001
0.0257048
0.0239354
0.0736525
0.0562424
0.0513858
0.001
0.001
0.001
0.001
0.00113643
0.00118488
0.001
0.001
0.001
0.001
0.001
0.001
0.494884
0.463791
0.504474
0.510908
0.468769
0.42325
0.584974
0.605681
0.664989
0.68007
0.226631
0.266806
0.323931
0.409787
0.231127
0.171287
0.200185
0.20403
0.0449805
0.109525
0.14943
0.0378295
0.251332
0.255552
0.253603
0.253858
0.269648
0.253483
0.266239
0.282893
0.166769
0.163238
0.0548013
0.129607
0.147573
0.0911604
0.0472108
0.0452195
0.001
0.0229477
0.00467612
0.0887406
0.151791
0.0825773
0.152881
0.202553
0.203186
0.2037
0.210359
0.211148
0.229277
0.2215
0.23367
0.23725
0.262329
0.250201
0.269465
0.265157
0.272602
0.265763
0.27802
0.266098
0.314845
0.285997
0.247581
0.245457
0.323297
0.285909
0.290431
0.331435
0.364268
0.366763
0.368035
0.3707
0.402664
0.45909
0.520667
0.536617
0.545751
0.525815
0.668684
0.60911
0.739726
0.783116
0.763093
0.802484
0.865788
0.721676
0.809344
0.838791
0.91067
0.958382
0.988942
1.00772
1.03944
0.983917
1.03305
0.992729
1.06878
1.07002
1.1159
1.08508
1.14371
1.17639
1.1628
1.11344
1.18266
1.20831
1.17182
1.17086
1.23868
1.21087
1.24446
1.18732
1.18716
1.25502
1.22388
1.17138
1.17273
1.19973
1.23321
0.222191
0.187468
0.366614
0.358829
0.325482
0.323473
0.319358
0.090506
0.219713
0.001
0.00107427
0.0568495
0.0444974
0.001
0.001
0.001
0.156675
0.0598921
0.0606007
0.001
0.001
0.001
0.001
0.001
0.00101605
0.001
0.001
0.001
0.001
0.00101
0.001
0.001
0.001
0.001
0.00144483
0.001
0.001
0.001
0.001
0.001
0.001
0.001
0.001
0.00123728
0.001
0.001
0.001
0.001
0.001
0.001
0.001
0.001
0.001
0.00100231
0.001
0.001
0.001
0.001
0.001
0.00116334
0.001
0.001
0.001
0.001
0.00100986
0.00105967
0.001
0.00104911
0.001
0.00104927
0.00104939
0.00101715
0.001
0.00104953
0.00104926
0.001
0.001
0.00101
0.001
0.001
0.001
0.001
0.001
0.00100983
0.00100977
0.001
0.001
0.001
0.001
0.001
0.001
0.001
0.00118641
0.001
0.001
0.852178
0.838852
0.809156
0.814429
0.728606
0.796555
0.619425
0.563304
0.545641
0.554485
0.549447
0.546572
0.485221
0.49285
0.339439
0.299149
0.254067
0.431433
0.431009
0.383046
0.377436
0.377408
0.001
0.001
0.00105797
0.00105787
0.001
0.001
0.001
0.001
0.00105774
0.001
0.001
0.00100893
0.001
0.001
0.001
0.001
0.001
0.001
0.001
0.001
0.001
0.001
0.00123958
0.00123982
0.001
0.001
0.001
0.00136838
0.111193
0.001
0.270701
0.447734
0.472684
0.503226
0.585982
0.696792
0.762617
0.7437
0.782411
0.724115
0.773527
0.810521
0.769957
0.762073
0.00123103
0.001
0.00101
0.001
0.001
0.00120014
0.001
0.001
0.00120014
0.001
0.001
0.00100941
0.001
0.001
0.001
0.001
0.001
0.001
0.001
0.001
0.001
0.001
0.001
0.001
0.00130592
0.00100941
0.235753
0.233716
0.150491
0.167705
0.0447319
0.0668156
0.00601949
0.00631188
0.00490506
0.00675832
0.001
0.001
0.001
0.001
0.001
0.001
0.0468295
0.00948698
0.0488403
0.0467221
0.001
0.001
0.001
0.001
0.001
0.001
0.001
0.001
0.001
0.001
0.00124071
0.001
0.717422
0.717049
0.546254
0.464296
0.451046
0.439764
0.708079
0.62264
0.873808
0.950753
0.845702
0.763464
0.967517
0.948569
1.01451
1.05741
1.08312
1.08502
1.11209
1.08477
1.13969
1.16693
1.16309
1.16505
1.18279
1.17393
1.17309
1.22023
1.15887
1.15344
0.27676
0.201513
0.351063
0.425365
0.213043
0.163908
0.197829
0.201768
0.0354764
0.0830014
0.001
0.0910197
0.001
0.251089
0.194912
0.250381
0.243247
0.25303
0.143922
0.0446655
0.001
0.001
0.001
0.010195
0.001
0.001
0.001
0.001
0.0150581
0.00952778
0.001
0.0304421
0.0978684
0.046557
0.154931
0.100625
0.137803
0.197349
0.231726
0.210368
0.241834
0.247514
0.257364
0.242214
0.27264
0.288899
0.29212
0.301365
0.301255
0.301011
0.342719
0.345854
0.342976
0.341375
0.338106
0.32973
0.359348
0.370243
0.421309
0.415274
0.377164
0.409277
0.405353
0.438555
0.470123
0.529015
0.563696
0.557132
0.570825
0.642647
0.729313
0.793138
0.806801
0.936629
0.808871
0.862123
1.01875
1.0317
1.03558
1.06886
1.11545
1.17034
1.17967
1.18519
1.21709
1.24072
1.27159
1.27014
1.25725
1.26353
1.27353
1.25163
1.18607
1.24592
1.20958
1.16501
1.17018
1.20131
1.23574
1.24452
1.16635
1.23398
1.1922
0.016953
0.0100401
0.0858187
0.153542
0.0471721
0.118382
0.246606
0.18871
0.208263
0.0474016
0.001
0.001
0.001
0.0192539
0.0085441
0.001
0.001
0.001
0.001
0.00142618
0.00142836
0.001
0.001
0.001
0.00137747
0.001
0.001
0.00111117
0.001
0.00127642
0.00127704
0.001
0.001
0.001
0.00144451
0.001
0.001
0.001
0.001
0.001
0.00101
0.001
0.00123688
0.001
0.00102171
0.001
0.001
0.001
0.001
0.001
0.001
0.00105264
0.001
0.001
0.001
0.00107765
0.001
0.001
0.001
0.001
0.001
0.001
0.001
0.001
0.001
0.001
0.001
0.001
0.001
0.001
0.001
0.001
0.00129277
0.001
0.00103615
0.001
0.00100962
0.001
0.001
0.001
0.001
0.001
0.001
0.001
0.001
0.758102
0.762009
0.744496
0.749735
0.678977
0.735933
0.548065
0.61275
0.511595
0.507
0.45255
0.435643
0.378094
0.380872
0.291183
0.194279
0.166588
0.336964
0.382605
0.383507
0.376539
0.378056
0.00105815
0.001
0.00105823
0.001
0.001
0.001
0.001
0.001
0.00100548
0.001
0.001
0.001
0.001
0.001
0.001
0.00100999
0.001
0.001
0.001
0.001
0.001
0.001
0.001
0.00101
0.001
0.001
0.001
0.001
0.181077
0.00608887
0.31076
0.449866
0.42193
0.52921
0.695941
0.60161
0.678462
0.674722
0.672806
0.695311
0.755294
0.74979
0.752342
0.729629
0.001
0.001
0.001
0.001
0.001
0.001
0.001
0.001
0.001
0.001
0.001
0.00104625
0.001
0.001
0.001
0.001
0.001
0.001
0.001
0.0010399
0.001
0.00104379
0.00110789
0.001
0.00101
0.001
0.001
0.001
0.001
0.001
0.001
0.108399
0.108283
0.0703331
0.0492131
0.00615517
0.028345
0.001
0.001
0.145962
0.0886278
0.0685451
0.001
0.001
0.001
0.00100989
0.0013437
0.00134356
0.001
0.001
0.0210544
0.001
0.0110602
0.001
0.001
0.001
0.001
0.001
0.001
0.00100971
0.001
0.001
0.001
0.001
0.001
0.001
1.29031
1.30186
1.32672
1.29962
1.34643
1.32964
1.35691
1.34824
1.40995
1.39277
1.35802
1.41552
1.38236
1.43394
1.26353
1.21366
1.23325
1.28116
1.26442
1.23596
1.23597
1.28785
1.29053
1.27183
1.25244
1.29949
1.28255
1.2882
1.31359
1.16998
1.17229
1.1735
1.16994
1.18559
1.20903
0.763358
0.707219
0.604434
0.515605
0.424876
0.499871
0.697237
0.673866
0.915252
0.947389
0.825766
0.912898
0.955131
1.00379
1.05284
1.08838
1.08624
1.08577
1.07898
1.11174
1.12201
1.15045
1.13314
1.1403
1.15154
1.15965
1.13001
1.12935
0.324638
0.25455
0.206455
0.186556
0.242352
0.427261
0.401304
0.137172
0.192659
0.0584381
0.001
1.27963
1.29887
1.31864
1.32234
1.32379
1.33376
1.33962
1.36324
1.34984
1.36927
1.36838
1.42198
1.44641
1.46841
1.46543
1.46956
1.48847
1.5117
0.001
0.001
0.00138991
0.174375
0.0693402
0.237284
0.141137
0.0568734
0.00120969
0.001
0.00120945
0.00120932
0.001
0.001
0.001
0.001
0.001
0.001
0.0226503
0.001
0.001
0.0451305
0.0444174
0.0473018
0.102022
0.0606851
0.183121
0.131135
0.21564
0.181197
0.21612
0.246968
0.267864
0.298656
0.308579
0.313145
0.325711
0.313157
0.370301
0.359105
0.355971
0.354834
0.403025
0.378429
0.453668
0.412082
0.388114
0.433658
0.472397
0.470778
0.493764
0.526169
0.527218
0.470766
0.582917
0.610969
0.584143
0.566526
0.655272
0.730989
0.805157
0.876265
0.820539
0.842282
0.977003
1.02513
1.07331
1.05024
1.11468
1.15341
1.19556
1.20483
1.20443
1.22044
1.27632
1.26165
1.25793
1.27442
1.27646
1.28413
1.25283
1.25804
1.2731
1.2752
1.26848
0.00379449
0.001
0.0163199
0.001
0.001
0.001
0.001
0.0573797
0.001
0.001
0.001
0.001
0.001
0.001
0.00139014
0.001
0.001
0.001
0.001
0.00142477
0.001
0.001
0.001
0.001
0.001
0.001
0.001
0.001
0.00111354
0.001
0.0012745
0.001
0.00106377
0.001
0.001
0.001
0.001
0.001
0.001
0.001
0.00100984
0.001
0.00111314
0.001
0.001
0.001
0.001
0.001
0.001
0.001
0.001
0.00239944
0.001
0.00102217
0.001
0.001
0.001
0.001
0.00100993
0.001
0.001
0.001
0.001
0.001
0.00109096
0.001
0.001
0.001
0.001
0.00109052
0.001
0.001
0.001
0.001
0.001
0.001
0.001
0.001
0.00101
0.001
0.001
0.001
0.001
0.001
0.001
0.001
0.001
0.001
0.001
0.00194219
0.001
0.001
0.001
0.001
0.00194336
1.45227
1.4252
1.40358
1.50027
1.53888
1.52834
0.744451
0.740309
0.731528
0.726679
0.649004
0.71471
0.542659
0.471671
0.393572
0.409622
0.379458
0.379775
0.378066
0.381271
0.254827
0.177332
0.266752
0.345497
0.342855
0.001
0.001
0.001
0.001
0.001
0.001
0.001
0.001
0.001
0.001
0.00100943
0.00103921
0.001
0.001
0.001
0.00638296
0.00100998
0.001
0.001
0.001
0.001
0.001
0.001
0.001
0.001
0.001
0.001
0.146653
0.290286
0.399086
0.401697
0.719145
0.636415
0.653188
0.442306
0.526579
0.618332
0.6666
0.668986
0.67038
0.688028
0.715033
0.709142
0.001
0.00112799
0.001
0.001
0.001
0.001
0.00100904
0.001
0.001
0.001
0.001
0.001
0.001
0.001
0.00100996
0.001
0.001
0.00101998
0.001
0.001
0.001
0.001
0.001
0.001
0.00101244
0.001
0.001
0.001
0.001
0.001
0.00101
0.001
0.001
0.001
0.001
0.0011733
0.001
0.109831
0.141274
0.127881
0.0725741
0.0691306
0.0428641
0.0624951
0.001
0.001
0.001
0.001
0.0764445
0.0634512
0.001
0.001
0.001
0.001
0.001
0.001
0.001
0.001
0.001
0.001
0.001
0.00100635
0.001
0.001
0.001
0.001
0.001
0.001
0.001
0.001
0.001
0.001
0.001
0.001
1.29035
1.29934
1.32413
1.34806
1.35566
1.35406
1.39109
1.36879
1.22665
1.22374
1.21124
1.22623
1.26337
1.22952
1.27081
1.24686
1.15914
1.15077
1.1498
1.17843
1.20617
1.18109
0.765417
0.691712
0.592865
0.67545
0.526145
0.433508
0.682502
0.689083
0.921605
0.927791
0.944352
0.845317
0.913881
1.03216
0.981594
0.916316
0.958536
1.0662
1.07558
1.07058
1.07345
1.08267
1.1064
1.13058
1.12144
1.12834
1.1298
1.13028
1.13357
1.1262
1.12769
0.181358
0.180635
0.317777
0.396252
0.180593
0.251105
0.411837
0.434524
0.188138
0.0989925
0.0205589
0.0923417
1.31087
1.25902
1.28944
1.32987
1.32763
1.32614
1.33719
1.35851
1.38205
1.39772
1.39339
1.40018
1.42395
1.46647
1.45276
1.46883
1.48537
1.52933
1.50366
1.33327
1.34282
1.36044
1.53689
1.53147
1.54321
0.00138929
0.00138926
0.00138945
0.001
0.001
0.00137082
0.001
0.001
0.001
0.001
0.001
0.001
0.001
0.00121203
0.001
0.00121199
0.001
0.001
0.001
0.001
0.00178473
0.001
0.04745
0.001
0.119425
0.148028
0.0847787
0.117667
0.181405
0.151508
0.273111
0.222453
0.289472
0.302996
0.31446
0.30373
0.338129
0.386005
0.424719
0.431312
0.430843
0.416618
0.448729
0.422567
0.470031
0.478261
0.506972
0.510343
0.480484
0.480928
0.598686
0.647814
0.544944
0.609424
0.658216
0.616354
0.722981
0.762971
0.863584
0.908563
0.883662
0.976972
1.02589
1.1248
1.10934
1.17334
1.14023
1.23839
1.2504
1.24088
1.27041
1.2973
1.29121
1.35099
1.31243
1.34708
1.3206
1.27903
1.33157
1.29737
1.32656
1.26558
0.001
0.001
0.001
0.001
0.001
0.001
0.001
0.001
0.00101
0.001
0.001
0.001
0.001
0.001
0.001
0.001
0.001
0.001
0.001
0.001
0.001
0.001
0.001
0.001
0.001
0.001
0.001
0.001
0.00111327
0.00111319
0.001
0.001
0.001
0.001
0.00101
0.001
0.0010004
0.001
0.001
0.001
0.001
0.001
0.00200163
0.001
0.001
0.001
0.001
0.001
0.001
0.001
0.001
0.00220303
0.001
0.001
0.001
0.00117834
0.00117119
0.001
0.00100983
0.001
0.001
0.001
0.001
0.001
0.0010906
0.00109055
0.001
0.001
0.00109056
0.00109052
0.001
0.001
0.001
0.001
0.00137109
0.001
0.00137084
0.001
0.001
0.001
0.001
0.00101472
0.00104728
0.00104742
0.001
0.001
0.001
0.001
0.001
0.001
0.001
0.001
0.001
0.001
0.0011711
0.001
0.00100958
0.00100997
0.001
0.001
0.001
0.001
0.00101
1.40707
1.4391
1.44597
1.43079
1.4731
1.57579
1.55132
1.55485
1.58155
1.51098
0.649901
0.637187
0.569847
0.570578
0.534236
0.555114
0.476737
0.4265
0.415261
0.377853
0.354676
0.355487
0.266949
0.275811
0.151192
0.179465
0.186176
0.001
0.001
0.001
0.00101
0.001
0.001
0.001
0.00123967
0.117701
0.001
0.001
0.001
0.001
0.001
0.001
0.001
0.00101
0.001
0.001
0.00102231
0.001
0.001
0.001
0.001
0.001
0.514223
0.514961
0.561244
0.260292
0.399432
0.401415
0.432356
0.560266
0.631324
0.588151
0.500772
0.58525
0.606264
0.614415
0.53125
0.559599
0.001
0.001
0.00112805
0.00103201
0.001
0.001
0.00101461
0.00119063
0.001
0.001
0.001
0.00195266
0.001
0.001
0.001
0.00291437
0.00294719
0.00293646
0.001
0.001
0.001
0.00101941
0.001
0.001
0.001
0.00100998
0.001
0.001
0.001
0.001
0.001
0.001
0.00100136
0.001
0.001
0.001
0.0010996
0.001
0.001
0.001
0.001
0.001
0.001
0.001
0.001
0.126495
0.137973
0.140356
0.0104249
0.0315059
0.001
0.001
0.001
0.001
0.001
0.001
0.00106895
0.00206894
0.001
0.001
0.001
0.001
0.001
0.001
0.001
0.001
0.001
0.001
0.001
0.001
0.00339938
0.001
0.001
0.00113597
0.001
0.00117196
0.001
0.001
0.001
0.001
0.00101
0.001
0.001
0.00113544
1.29048
1.24878
1.31765
1.28769
1.29433
1.34334
1.33879
1.3819
1.39017
1.40164
1.39233
1.3333
1.40286
1.35284
1.19371
1.18568
1.18394
1.19171
1.21143
1.21839
1.22116
1.22651
1.13891
1.13605
1.15821
1.14513
1.17347
1.1822
0.769304
0.695131
0.620945
0.69128
0.477653
0.579969
0.687999
0.69771
0.923736
0.913699
0.918725
0.854582
1.00691
1.05307
0.964328
0.919854
1.06111
1.06295
1.07729
1.0643
1.10609
1.12422
1.13052
1.13534
1.13168
1.12311
1.13278
1.12958
1.12378
1.12104
0.16974
0.172662
0.33917
0.4093
0.312823
0.23497
0.474208
0.407534
0.136484
0.178265
0.134573
0.0588496
1.28427
1.3523
1.33917
1.34101
1.36268
1.35665
1.39537
1.40137
1.3783
1.39566
1.38285
1.39702
1.40308
1.42692
1.45086
1.46651
1.46407
1.52251
1.49799
1.54711
1.55194
1.41983
1.4317
1.54473
1.56427
0.001
0.001
0.001
0.001
0.001
0.001
0.001
0.001
0.00101
0.001
0.001
0.001
0.001
0.001
0.001
0.001
0.00178469
0.001
0.001
0.001
0.001
0.001
0.0373697
0.001
0.140312
0.138831
0.105892
0.057976
0.181068
0.216834
0.280463
0.265999
0.281557
0.270523
0.397092
0.341462
0.45955
0.434538
0.475747
0.466113
0.455358
0.511537
0.542575
0.521036
0.503501
0.533291
0.587008
0.563653
0.55004
0.593085
0.675501
0.674973
0.673574
0.687897
0.823029
0.734327
0.909567
0.932734
0.934293
0.999407
1.06782
1.14767
1.1509
1.16812
1.21478
1.26409
1.29951
1.29727
1.3345
1.31203
1.36309
1.37633
1.38039
1.37882
1.3771
1.37035
1.36927
1.3906
1.32397
0.001
0.001
0.00642652
0.0010256
0.001
0.001
0.001
0.001
0.001
0.001
0.00101
0.00127831
0.001
0.00127908
0.00127846
0.00127865
0.00127883
0.001
0.00127799
0.00623114
0.00100914
0.001
0.001
0.00206947
0.001
0.00206937
0.00206911
0.001
0.001
0.00100217
0.001
0.001
0.001
0.001
0.00101
0.00104295
0.001
0.001
0.00100986
0.001
0.001
0.001
0.00179294
0.001
0.001
0.001
0.001
0.001
0.001
0.001
0.001
0.001
0.00100941
0.001
0.001
0.001
0.00100992
0.001
0.001
0.001
0.00101
0.001
0.001
0.001
0.001
0.001
0.001
0.001
0.001
0.001
0.001
0.00100949
0.001
0.001
0.001
0.001
0.001
0.001
0.001
0.001
0.001
0.001
0.00112255
0.001
0.001
0.001
0.001
0.001
0.001
0.001
0.001
0.001
0.001
0.001
0.001
0.001
0.001
0.001
0.001
0.001
0.001
0.001
0.001
0.001
0.001
0.001
0.001
0.001
0.001
0.001
0.001
0.001
0.00106743
0.001
0.001
0.001
0.001
1.60159
1.59487
1.60981
1.6083
1.61072
1.61294
1.44329
1.44224
1.5132
1.4729
1.58026
1.59645
1.58389
1.47449
1.38921
0.508468
0.514733
0.514493
0.500396
0.516545
0.445297
0.489882
0.275931
0.33502
0.199722
0.2036
0.140289
0.144347
0.140171
0.001
0.001
0.001
0.001
0.001
0.141841
0.001
0.001
0.001
0.001
0.001
0.001
0.001
0.001
0.001
0.001
0.001
0.001
0.00101
0.001
0.00100974
0.001
0.001
0.001
0.515274
0.51487
0.515422
0.514459
0.517469
0.229761
0.339843
0.288105
0.403209
0.469126
0.48802
0.421476
0.504413
0.457033
0.458851
0.442816
0.001
0.00113841
0.001
0.001
0.001
0.001
0.001
0.00101502
0.001
0.001
0.00101391
0.001
0.001
0.001
0.001
0.001
0.001
0.001
0.001
0.00101581
0.001
0.001
0.001
0.001
0.001
0.00100972
0.001
0.001
0.001
0.001
0.001
0.001
0.001
0.001
0.001
0.001
0.001
0.001
0.00116496
0.001
0.001
0.001
0.001
0.001
0.001
0.001
0.001
0.001
0.001
0.001
0.001
0.001
0.001
0.001
0.001
0.001
0.001
0.126294
0.0477822
0.0379708
0.001
0.001
0.001
0.001
0.001
0.001
0.001
0.00100956
0.001
0.001
0.001
0.001
0.001
0.001
0.001
0.001
0.001
0.001
0.001
0.001
0.001
0.001
0.001
0.001
0.001
0.001
0.001
0.001
0.001
0.001
0.00182756
0.00183069
0.001
0.001
0.001
0.001
0.00100972
0.001
1.2726
1.24688
1.2636
1.26299
1.26511
1.28469
1.2698
1.32301
1.33467
1.35492
1.4309
1.3838
1.32782
1.17666
1.18182
1.20624
1.19589
1.22436
1.22044
1.24403
1.22751
1.13721
1.14357
1.17052
1.15095
1.16564
1.1725
0.811221
0.726615
0.658189
0.691527
0.639613
0.532298
0.727668
0.692262
0.92917
0.923626
0.8823
0.928868
1.01473
1.06527
0.930817
0.975269
1.06832
1.06646
1.08974
1.06871
1.1105
1.12706
1.13151
1.12648
1.12609
1.12703
1.12756
1.12148
1.12631
1.12062
0.17169
0.224708
0.411602
0.389923
0.309624
0.398397
0.417868
0.490104
0.160445
0.154336
0.140427
0.0655538
0.001
0.001
0.0355461
1.35633
1.38935
1.39522
1.40072
1.41522
1.43419
1.43803
1.4373
1.47741
1.44885
1.46478
1.43124
1.46018
1.47164
1.49757
1.51687
1.52992
1.52609
1.58096
1.58116
1.60632
1.58646
1.49396
1.49699
1.61473
1.61057
0.001
0.001
0.00101
0.001
0.001
0.00122574
0.00122561
0.001
0.001
0.001
0.001
0.00192499
0.00122643
0.001
0.001
0.001
0.00100232
0.001
0.001
0.001
0.001
0.001
0.001
0.00113818
0.001
0.0944822
0.156401
0.039425
0.256447
0.198954
0.267283
0.267165
0.369458
0.313617
0.425303
0.454916
0.451108
0.46007
0.574183
0.527698
0.502109
0.560259
0.587254
0.58087
0.587318
0.579414
0.587422
0.58177
0.670287
0.710054
0.754467
0.704971
0.750432
0.776755
0.917482
0.852041
0.946165
0.93208
1.00583
1.0871
1.1684
1.16801
1.20429
1.2388
1.31439
1.30807
1.32592
1.3338
1.36248
1.37187
1.39216
1.38378
1.39673
1.39352
1.37581
1.3904
1.37692
1.37569
0.001
0.001
0.00101
0.001
0.001
0.001
0.001
0.001
0.001
0.00127844
0.001
0.001
0.001
0.00127754
0.00127728
0.00127687
0.00127796
0.00127831
0.0012783
0.001
0.001
0.00100461
0.001
0.001
0.001
0.00100179
0.001
0.001
0.001
0.001
0.001
0.00101
0.001
0.001
0.00100863
0.00104296
0.001
0.001
0.001
0.00354235
0.001
0.001
0.001
0.00100992
0.001
0.001
0.001
0.00100983
0.001
0.001
0.00100647
0.001
0.00100976
0.001
0.001
0.001
0.001
0.001
0.00351087
0.001
0.001
0.001
0.001
0.001
0.0011528
0.00115269
0.00115271
0.001
0.001
0.001
0.001
0.001
0.001
0.001
0.001
0.001
0.001
0.001
0.001
0.001
0.001
0.001
0.001
0.001
0.001
0.001
0.001
0.001
0.001
0.001
0.001
0.001
0.001
0.001
0.001
0.001
0.001
0.001
0.001
0.001
0.001
0.001
0.001
0.001
0.001
0.001
0.00101
0.001
0.00110497
0.001
0.00116558
0.001
0.001
0.00107353
0.001
0.00110652
1.62261
1.64702
1.64482
1.61034
1.61818
1.60301
1.60955
1.52268
1.51861
1.52274
1.55986
1.55343
1.57684
1.61244
1.45058
1.46568
1.4008
1.45267
1.44043
0.508476
0.50394
0.409881
0.373229
0.470804
0.401268
0.413833
0.281711
0.308705
0.171558
0.143391
0.148567
0.141461
0.121261
0.001
0.001
0.0595614
0.169507
0.001
0.001
0.001
0.001
0.001
0.001
0.001
0.001
0.00111462
0.001
0.001
0.001
0.001
0.00107121
0.001
0.001
0.00103315
0.001
0.001
0.001
0.469495
0.518902
0.48851
0.470494
0.232225
0.229899
0.253047
0.323602
0.441464
0.444804
0.396822
0.442107
0.442646
0.00100999
0.001
0.001
0.001
0.001
0.001
0.00132013
0.00132233
0.001
0.001
0.00102013
0.00100946
0.001
0.001
0.00100978
0.001
0.001
0.00183913
0.001
0.001
0.001
0.001
0.001
0.001
0.001
0.001
0.001
0.001
0.0012841
0.001
0.001
0.001
0.001
0.001
0.001
0.001
0.001
0.001
0.001
0.001
0.001
0.001
0.001
0.001
0.001
0.001
0.001
0.001
0.001
0.001
0.001
0.00180117
0.001
0.001
0.001
0.001
0.001
0.001
0.001
0.001
0.001
0.001
0.001
0.0374341
0.001
0.001
0.001
0.001
0.001
0.001
0.001
0.00120156
0.001
0.001
0.001
0.001
0.001
0.001
0.001
0.001
0.001
0.001
0.001
0.001
0.001
0.001
0.001
0.001
0.001
0.001
0.001
0.001
0.001
0.001
0.001
0.001
0.001
0.00138782
0.00101
0.001
0.001
0.001
0.001
0.00100999
0.001
0.001
1.23414
1.25438
1.28035
1.27361
1.29949
1.29012
1.32262
1.28776
1.31428
1.37274
1.32796
1.40634
1.36956
1.44727
1.16201
1.1815
1.17653
1.19864
1.17844
1.21113
1.25159
1.19957
1.12746
1.13218
1.14228
1.15799
1.15765
1.15436
0.864396
0.778359
0.670095
0.689785
0.585163
0.683925
0.699656
0.756533
0.929926
0.932729
0.928885
0.903732
1.0235
1.07055
0.986356
0.944991
1.06665
1.06867
1.07637
1.09421
1.13409
1.11152
1.13752
1.11369
1.12221
1.12613
1.12062
1.12972
1.11833
1.11415
0.246284
0.156437
0.422493
0.416195
0.328517
0.43371
0.425295
0.532415
0.154801
0.149289
0.125741
0.108955
0.0545005
0.150794
1.38378
1.40434
1.42253
1.46688
1.45693
1.48555
1.49128
1.50222
1.51507
1.49639
1.50585
1.52755
1.54617
1.5589
1.56171
1.57531
1.59363
1.6121
1.62176
1.62321
1.6333
1.50547
1.49833
1.64912
1.67282
0.001
0.001
0.001
0.001
0.001
0.001
0.001
0.001
0.001
0.00192486
0.001
0.001
0.001
0.001
0.001
0.00106646
0.00106652
0.001
0.001
0.001
0.001
0.001
0.0272226
0.0147029
0.001
0.0792773
0.089587
0.174979
0.240353
0.203805
0.293401
0.230439
0.417161
0.33344
0.444351
0.449888
0.454892
0.53372
0.662275
0.662
0.613195
0.63179
0.659911
0.603962
0.715514
0.644034
0.62243
0.652279
0.791699
0.80293
0.871202
0.918984
0.810697
0.893187
1.04064
0.986951
1.06038
1.02436
1.22479
1.18417
1.25548
1.27347
1.34653
1.3513
1.41648
1.38255
1.4294
1.41513
1.43646
1.46809
1.43702
1.47116
1.47565
1.42881
1.41701
1.46049
1.45511
1.42909
0.001
0.001
0.00101
0.001
0.001
0.001
0.001
0.001
0.001
0.001
0.001
0.001
0.001
0.001
0.001
0.001
0.00100968
0.00127904
0.001
0.001
0.00127738
0.00101634
0.001
0.001
0.00131959
0.001
0.001
0.001
0.001
0.001
0.00133909
0.00100982
0.001
0.001
0.001
0.001
0.001
0.00100967
0.001
0.001
0.001
0.001
0.001
0.001
0.001
0.001
0.00102266
0.00102276
0.001023
0.001
0.001
0.001
0.001
0.00108829
0.001
0.001
0.00108818
0.001
0.001
0.001
0.00100996
0.00110488
0.001
0.00107369
0.001
0.001
0.001
0.001
0.00101
0.001
0.001
0.001
0.001
0.001
0.001
0.001
0.001
0.001
0.001
0.001
0.001
0.001
0.001
0.001
0.001
0.001
0.001
0.001
0.001
0.001
0.001
0.001
0.001
0.001
0.001
0.001
0.001
0.001
0.001
0.001
0.001
0.001
0.001
0.001
0.001
0.001
0.001
0.001
0.001
0.001
0.001
0.001
0.001
0.001
0.001
0.001
0.001
0.00116558
0.001
0.001
0.001
0.00108087
0.001
0.001
1.66903
1.6577
1.67154
1.65193
1.63932
1.66558
1.64727
1.62444
1.64407
1.50004
1.54274
1.52079
1.51765
1.60061
1.65981
1.66766
1.57135
1.44877
1.48618
1.4414
1.43189
1.43694
1.4755
1.3674
0.270537
0.374597
0.275118
0.314272
0.310987
0.220876
0.215833
0.225486
0.223752
0.22343
0.193817
0.118173
0.0913867
0.00966672
0.0108532
0.121883
0.237613
0.001
0.001
0.00119795
0.001
0.001
0.00120531
0.001
0.001
0.001
0.00101745
0.001
0.00113529
0.001
0.001
0.001
0.00113524
0.001
0.00108596
0.001
0.001
0.382677
0.303814
0.279462
0.369771
0.230628
0.255785
0.390806
0.321486
0.368056
0.443273
0.441758
0.00111638
0.001
0.001
0.00116425
0.001
0.001
0.0013202
0.00132074
0.001
0.001
0.00100995
0.001
0.001
0.001
0.001
0.001
0.00202012
0.00207723
0.001
0.001
0.00205428
0.001
0.00180148
0.001
0.001
0.001
0.001
0.00299724
0.001
0.00128427
0.00302614
0.001
0.001
0.001
0.001
0.001
0.001
0.001
0.001
0.001
0.001
0.001
0.001
0.00101
0.001
0.001
0.001
0.001
0.001
0.001
0.001
0.001
0.001
0.00147619
0.001
0.001
0.001
0.001
0.001
0.001
0.001
0.001
0.001
0.001
0.001
0.001
0.001
0.001
0.001
0.001
0.001
0.001
0.001
0.001
0.001
0.001
0.00119984
0.00119983
0.001
0.001
0.001
0.001
0.001
0.001
0.001
0.001
0.00153787
0.001
0.001
0.001
0.001
0.001
0.001
0.00153786
0.001
0.001
0.001
0.001
0.001
0.001
0.001
0.001
0.001
0.001
0.0285335
0.001
0.001
0.00101
0.00107702
0.001
0.00101196
0.001
0.001
0.001
0.001
0.001
0.001
0.001
1.21616
1.23178
1.20558
1.2591
1.24375
1.2656
1.24452
1.28159
1.29482
1.33333
1.33704
1.33442
1.37544
1.34073
1.44323
1.15441
1.15835
1.16143
1.16121
1.16461
1.15891
1.17083
1.19215
1.17965
1.12961
1.13796
1.14215
1.15375
1.15373
0.829704
0.909681