/*--------------------------------*- C++ -*----------------------------------*\
  =========                 |
  \\      /  F ield         | OpenFOAM: The Open Source CFD Toolbox
   \\    /   O peration     | Website:  https://openfoam.org
    \\  /    A nd           | Version:  8
     \\/     M anipulation  |
\*---------------------------------------------------------------------------*/
FoamFile
{
    version     2.0;
    format      ascii;
    class       volScalarField;
    location    "5880";
    object      nut;
}
// * * * * * * * * * * * * * * * * * * * * * * * * * * * * * * * * * * * * * //

dimensions      [0 2 -1 0 0 0 0];

internalField   nonuniform List<scalar> 
526318
(
0.000171581
0.000226964
0.000208087
0.000218321
0.000211602
0.000223051
0.000308414
0.000253284
4.31497e-05
0.000212355
4.33328e-05
0.000160327
0.000174513
0.000263323
0.000218862
0.000229811
0.000166665
0.00020369
0.000122177
0.000194273
0.0002053
0.000215245
0.00026863
0.000263794
0.000104533
5.57408e-05
0.000160185
0.000346527
0.000130847
0.000164832
0.000181203
0.000153175
0.000232051
0.00012421
0.000171827
5.08524e-05
0.000154855
0.000145675
0.000212729
4.74703e-05
0.000271236
0.000140887
0.000160294
0.000137957
0.000106795
0.000323328
0.00010283
0.000175529
0.000191872
0.000171739
0.000128502
9.96022e-05
8.5695e-05
4.02483e-05
4.61538e-05
0.000175305
0.000101499
2.52736e-05
0.000141551
0.000174293
0.000140212
6.97504e-05
8.17493e-05
0.000119307
0.000204007
0.000145401
0.000193963
0.000119257
0.000233583
0.000180829
9.9051e-05
6.65952e-05
7.84827e-05
9.78731e-05
6.64458e-05
0.000116071
0.000160125
6.84188e-05
2.20013e-05
0.000153837
4.54808e-05
0.000109477
0.000121302
6.29027e-05
7.57805e-05
0.000173093
5.90513e-05
0.000138832
6.30335e-05
0.000192391
7.87889e-05
1.3939e-05
0.000191817
7.78982e-05
0.000234705
0.000117046
0.000186072
0.000108173
5.88778e-05
0.000102718
0
0
0
0
1.56232e-06
0
0.000129696
1.1256e-05
0.000123897
0.000206455
0.000154446
0.000133236
0.000221902
0.000164127
0.000142391
0.000225937
0.000209864
9.04823e-05
0.000131378
0.000120972
6.83119e-05
0.000175718
0.000161421
0.000110285
6.8872e-05
7.38029e-05
0.000141833
5.21806e-05
3.21131e-05
2.75536e-05
9.76588e-05
7.73356e-05
3.23426e-05
6.09827e-05
3.72601e-05
4.0636e-05
5.61504e-05
2.59623e-05
4.0189e-05
6.77292e-06
2.49564e-05
5.86701e-05
3.96305e-05
3.76242e-05
5.75308e-05
5.14347e-05
7.45951e-06
2.73256e-05
2.00179e-05
4.92644e-06
4.99873e-05
1.07858e-05
2.4362e-05
2.35274e-05
3.6521e-05
5.14623e-05
7.18158e-05
5.70188e-05
2.66218e-05
5.20386e-05
4.82205e-05
6.98121e-05
4.82544e-05
9.36415e-05
0.00014723
6.61393e-05
9.60198e-05
0.000102133
0.000142273
9.63454e-05
6.72669e-05
6.55962e-05
8.99765e-05
0.000159982
9.9508e-05
5.79043e-05
0.000129164
0.000212057
9.92963e-05
0.000224603
7.29489e-05
0.000209287
0.000202283
0.000122845
0.000170884
7.32346e-05
4.02348e-05
1.59098e-05
8.27332e-05
4.11246e-05
6.89127e-05
6.44986e-05
4.70962e-05
4.98635e-05
2.48089e-05
3.71959e-05
5.29194e-05
0.00010087
6.1403e-05
4.58727e-05
4.04656e-05
6.43361e-05
0.000117895
5.57962e-05
3.26032e-05
4.97776e-05
5.91376e-05
8.63971e-05
8.5801e-05
6.06538e-05
4.48083e-05
0.000139753
0.000172163
6.36917e-05
0.000128638
0.00014423
0.000133977
2.10976e-05
0.00012331
0.000140593
0.000149241
0.000195032
8.40771e-05
2.4025e-05
0.000140095
8.69431e-05
4.56061e-05
6.47202e-05
8.98952e-05
0
0
4.28687e-06
0.000210745
0
0
0
0
0
0
8.88444e-05
0.000217913
6.83541e-05
0.000188597
0.000125395
0.00022133
0.000150868
0.000177176
0.00015013
3.43898e-05
0.000198722
7.50644e-05
8.53709e-05
7.44196e-05
7.39038e-05
0.000154368
4.69046e-05
4.27285e-05
3.35241e-05
8.78464e-05
8.19744e-05
1.74033e-05
0
0
0
0
0
0
0
8.26609e-06
0.000139604
0.000186236
6.62692e-05
0.000192356
0.000215929
0.000118874
0.000195041
0.000164088
0.000130068
0.000121534
5.79698e-05
0.000100044
9.52535e-05
5.58714e-06
2.88873e-05
5.73165e-05
4.0119e-05
4.80901e-05
3.24344e-05
4.1777e-05
9.67915e-06
3.55963e-05
3.8311e-05
2.15886e-05
8.55085e-05
5.42774e-05
0.000144578
6.32639e-05
3.7992e-05
8.58212e-05
4.95069e-05
8.28058e-05
0.000108401
5.95944e-05
6.95376e-05
2.07186e-05
0.000113225
5.61991e-05
7.12883e-05
5.94879e-05
7.64936e-06
3.7156e-05
3.19129e-05
1.33028e-05
1.21531e-05
3.77333e-05
9.00469e-06
0.000144004
7.78867e-05
3.14574e-05
6.10622e-05
0.000189192
8.98377e-05
8.57022e-05
3.98852e-05
0.000131895
0.000115335
8.36068e-05
1.17004e-05
0.000106097
4.07619e-05
3.99506e-05
0.000134718
0.000163464
2.25359e-05
0.00011792
5.55729e-05
0.000194943
0.000232448
0.000286911
0.00014142
8.40629e-05
5.40067e-05
4.44248e-05
4.11801e-05
6.4511e-05
2.94469e-05
5.37509e-05
3.40068e-05
2.124e-05
4.9872e-05
8.58324e-05
7.60723e-05
9.62004e-05
0.000111523
4.47043e-05
4.71486e-05
5.59671e-05
3.92014e-05
6.49085e-05
2.29702e-05
2.83274e-05
6.71503e-05
5.24763e-05
1.4895e-05
1.33932e-05
3.91319e-05
8.66557e-05
5.36083e-05
6.0786e-05
1.64329e-05
2.87723e-05
9.57838e-06
1.8936e-05
7.67268e-05
1.54398e-05
0.000124905
0.000111687
0.000106458
3.79506e-05
8.98958e-05
6.62466e-05
0.000173239
0.000169908
7.59866e-05
0.000137744
0.000171681
3.84766e-05
9.81651e-05
7.11186e-05
6.12945e-05
5.03406e-05
5.70081e-05
0.000145621
0.00013191
0.000154304
9.5486e-05
0.000170159
0.000119153
0.00012796
0
0
0
0
1.0474e-05
0
0
0
0
0
0
0
0
0
0
0
0.000132123
0.000131497
0.00011556
6.56336e-05
0.000227635
0.000147209
0.000216452
4.3314e-05
7.05854e-05
0.000214049
0.000205635
3.66489e-05
4.29164e-05
0.000233983
9.49958e-05
4.74704e-05
5.66418e-05
0.000126125
3.97585e-05
4.78893e-05
6.65362e-05
6.94775e-05
0
1.59694e-09
3.28699e-09
0
0
0
0
0
1.67572e-10
1.7328e-09
0
0
0
0
2.24771e-09
0
0
0
0
0
0
0
0
0
9.46704e-05
0
0.000336857
7.04919e-05
0.000270259
8.43123e-05
0.000108615
0.00024812
0.000208572
0.000116626
0.000167713
5.59821e-05
0.000103179
0.000105498
5.40513e-05
7.1247e-05
4.09946e-05
6.16494e-05
6.21688e-05
2.66968e-05
3.14567e-05
5.98648e-05
4.88166e-05
3.284e-05
4.97932e-05
2.87444e-05
4.09439e-05
4.47048e-05
0.000102609
7.31443e-05
2.32708e-05
8.89334e-05
2.25379e-05
0.000101095
2.27637e-06
8.90705e-06
1.84067e-05
2.01015e-05
2.31775e-05
5.9836e-06
5.34057e-06
4.20323e-06
7.2704e-06
0
0
9.82718e-05
0.000109217
8.78146e-05
3.58107e-05
0.000105127
0.000143495
8.69221e-05
0.000144219
3.48288e-05
7.70173e-05
8.26756e-05
0.000118167
9.23847e-05
6.79526e-05
9.7022e-05
0.000114489
5.44133e-05
0.000113147
6.47488e-05
0.000128313
4.96317e-05
5.59724e-05
7.51119e-05
3.48022e-05
0.000159595
1.54405e-05
5.11546e-05
0.000187436
0.000115867
0.000196587
0.00014409
0.000113289
9.45522e-05
0.000162102
4.89991e-05
0.0001064
2.16337e-05
7.21687e-05
7.33105e-05
1.86976e-05
5.13534e-05
2.77947e-05
3.71667e-05
5.68274e-05
3.45275e-05
5.89899e-05
2.0236e-05
5.78515e-05
7.12652e-05
2.7822e-05
1.85151e-05
8.48744e-05
3.44713e-05
3.62151e-05
2.22854e-05
3.51054e-05
9.90994e-05
4.38877e-05
4.52075e-05
3.14322e-05
2.24405e-06
3.92477e-05
7.3138e-05
8.65235e-05
7.63073e-05
0.000169658
9.23586e-05
4.62471e-05
9.25206e-05
9.39812e-05
0.000247202
0.000195928
0.000182409
0.000251506
0.000212887
0.000104967
4.47557e-05
0.000107588
7.71078e-05
0.000118138
8.69212e-05
0.000124651
0.000104264
8.28344e-05
6.97397e-05
0.00011783
3.83426e-06
4.87127e-05
0.000109148
3.98311e-05
8.04426e-05
6.13646e-05
0.000151975
4.64793e-05
6.24874e-05
4.11773e-05
0
0
0
0
0
2.56465e-06
0
0
0
0
0
0
0
0
0
0
0
0
0
0
0
0
0
0
0
0
1.37644e-10
0
0
1.22065e-10
8.5534e-11
3.48993e-11
0
0
0
0
0
0
0
0
0
0
0
0
0
0
0.000123117
0.000213992
0.00017084
0.000148698
0.000275806
0.000153424
0.000113012
0.000189593
5.79353e-05
9.49129e-05
0.000121883
7.22158e-05
5.25224e-05
0.00010592
3.0537e-05
0.000134072
8.02563e-05
4.35629e-05
3.98183e-05
8.6833e-05
7.18495e-05
6.93292e-05
0
0
0
0
0
0
0
0
0
0
0
0
0
0
0
0
0
0
0
0
0
0
0
0
0
0
0
0
0
0
0
0
2.27755e-08
0
4.18576e-05
3.87324e-05
0.000134041
0.000215241
0.000243635
0.000192849
0.00030335
0.00015582
0.000172243
0.000268054
0.000249661
0.000203625
0.00024215
0.000171771
0
0
0
0
0
0
0
0
0
0
0
0
0
0
0
0
0
7.55642e-05
7.15647e-05
4.34398e-05
9.95216e-05
3.72439e-05
6.0668e-05
2.44643e-05
2.85909e-05
1.10646e-05
1.82097e-05
2.86722e-06
2.96854e-06
4.59378e-05
2.43014e-05
0
1.34537e-05
3.10602e-05
4.39946e-05
1.22976e-05
3.13574e-05
0
0
0
0
5.32876e-08
2.10391e-07
0
0
0
0
0
0
0.000235977
0.000171632
0.000200177
0.000256083
9.48225e-05
0.000136364
0.000338153
0.00025365
0.000283648
0.000245237
8.83669e-05
0.000139351
0.000142127
0.000135211
0.000129325
3.10475e-05
0.000160267
0.00011966
2.43727e-05
6.74488e-05
7.6183e-05
1.98675e-05
0.000137674
2.2926e-05
8.78838e-05
1.71292e-05
2.99442e-05
5.9121e-05
8.91858e-05
0.000115597
5.85543e-05
0.000105088
9.07961e-06
0.000174319
0.000422851
4.54692e-06
0.000171723
0.000382964
0
7.74336e-06
1.21597e-06
4.70508e-05
4.99997e-05
2.8475e-05
3.14341e-05
6.62988e-05
6.33358e-05
6.87184e-05
6.71715e-05
3.79035e-05
1.13929e-05
3.03082e-05
6.81007e-05
2.07091e-05
6.28833e-05
4.53661e-05
0.000104039
8.24617e-05
0.00011385
6.0413e-05
0.000124278
0.00010063
0.000133932
0.000129436
7.538e-05
6.02142e-05
0.000138472
0.000143458
7.02807e-05
7.35299e-05
6.64506e-05
0.000123803
9.09487e-05
0.000116263
8.42939e-05
0.000185191
0.000200163
0.000227642
0.000292656
0.000236716
0.000262443
0.000281998
0.000293767
0.000289038
0.000312396
0.00032232
0.000195822
0.000318981
0.000370117
0.000240509
0.000283907
0.000280806
0.000119999
0.000214554
0.000296819
5.76043e-05
6.67659e-05
5.57917e-05
0.00022141
0.000293234
0.000183116
0.00021731
0.000300873
0.000170836
0.000353168
0.000236632
0.000295773
7.48482e-05
0.000239575
0.000230027
0.000215687
0.000194514
0.000110484
0.000153075
0.000221353
0.000186976
7.1683e-05
0.000147242
0.000200479
0.000147038
0.000189641
5.20214e-05
9.93416e-05
7.1364e-05
2.81777e-05
1.87794e-05
4.48376e-05
0.000141765
4.1582e-05
5.75896e-05
0
9.69525e-07
1.45372e-05
5.83876e-05
0
0
0
9.14057e-05
3.12299e-05
3.89706e-05
0
0
0
0
0
2.94117e-09
0
0
0
0
0
0
0
0
0
4.62375e-09
0
0
0
0
0
0
0
0
4.26719e-09
0
0
0
0
0
0
0
0
0
0
0
0
0
0
0
4.6111e-09
0
0
0
0
1.29547e-07
4.30573e-08
0
1.90694e-09
0
1.93181e-09
1.60522e-09
2.51847e-09
0
4.1124e-09
2.35595e-09
0
0
0
0
0
0
0
0
0
0
0
0
0
0
0
0
0
3.42454e-09
0
0
0.000215563
0.000209863
0.000251796
0.00020295
0.00012963
0.000212668
0.000188414
9.38745e-05
0.000146342
7.29271e-06
6.99463e-06
9.919e-05
6.96919e-05
5.41463e-05
4.57299e-05
6.71537e-05
6.69339e-05
6.98828e-05
3.36197e-05
3.99774e-05
6.60066e-05
5.28666e-05
0
0
1.65717e-09
1.27187e-09
0
0
0
0
2.28372e-09
0
0
0
0
0
0
0
0
0
0
0
0
0
4.54129e-09
3.46584e-09
0
0
0
3.98091e-09
5.49825e-05
0
3.96669e-05
2.33262e-05
4.58203e-05
0.000211285
0.000224981
0.000251591
0.000248908
0.000309884
0.000272101
0.000313596
0.000282125
0.000262678
0.000209568
0.000266932
7.56129e-10
0
0
0
0
2.07718e-11
0
0
8.08377e-11
0
0
0
0
0
0
0
0
0
0
0
0
0
0
0
1.33714e-07
0
8.51538e-05
2.51954e-05
3.31364e-05
1.40923e-05
1.06169e-05
1.71201e-05
1.70507e-06
1.84495e-06
8.45334e-07
1.25251e-06
0
0
0
0
0
0
3.75233e-05
5.57487e-06
2.69211e-06
2.71937e-05
0
0
0
0
0
0
0
0
0
0
5.59071e-10
0
0.000238342
0.000249762
0.000233281
0.000169377
0.000132349
0.000183811
0.000330451
0.000352108
0.000186159
0.000200737
0.000211156
0.000310052
0.00014416
9.31649e-05
0.000158389
0.000202856
0.000280115
0.000183635
0.0002909
0.00025214
0.000291638
0.000224021
0.000287732
0.000196232
0.000116546
0.000148172
0.000154522
0.000173292
9.89221e-05
0.000190775
0.00018436
0.000132289
0.000220891
0.000179761
4.41485e-05
0.000202321
0.000124702
0.000107091
4.70543e-05
8.23994e-05
0
3.11171e-05
0
3.95799e-05
7.8287e-05
7.22993e-05
2.6287e-05
0.000108062
0.00012145
5.59085e-05
0
0
0
1.18394e-05
0
0
0
0
9.72132e-06
5.23831e-06
0
1.05722e-05
1.79414e-05
1.60112e-05
4.45587e-05
4.19356e-05
0.000103655
3.05888e-05
7.5273e-05
3.60281e-05
6.42693e-05
2.96929e-05
2.39281e-05
2.0081e-05
9.29492e-05
9.08565e-05
0.00013374
5.75499e-05
0.000137441
0.000148439
9.21574e-05
6.95659e-05
4.99754e-05
7.64093e-05
8.90622e-05
4.78517e-05
2.17458e-05
0.000115343
2.09639e-05
0.00016512
4.53996e-05
0.000114847
2.95942e-05
8.01959e-05
0.000186654
4.01689e-05
0.000169695
0.000264069
0.000240992
0.000237977
0.000292857
0.00024902
0.000337194
0.000261761
0.000180513
0.000250946
0.000316764
0.000230305
0.000340386
0.000230795
0.000389934
0.000203397
0.000309011
0.000123716
0.000259612
0.000112345
0.000217337
5.58484e-05
0.000172274
0.000170366
0.000198252
5.18846e-05
0.000160316
0.000166286
9.99188e-05
9.55954e-05
0.000107575
0.000142534
0.000167048
0.000151093
0.000100001
0.000159795
0.000104616
9.82555e-06
6.20784e-06
1.62935e-05
7.25475e-05
3.81378e-05
6.56537e-05
0.000117127
4.34241e-05
0.000137931
5.11266e-05
0
0
0
1.04711e-05
2.70187e-06
0
0
0
0
1.38332e-08
3.11705e-08
0
0
0
4.6317e-07
0
0
1.68823e-08
0
4.84161e-09
6.897e-09
0
0
0
6.02412e-09
0
0
0
0
0
0
0
4.99874e-09
0
6.4387e-09
0
0
0
0
0
0
5.72354e-11
0
0
0
1.46119e-09
0
0
0
0
0
0
0
0
0
0
0
0
0
0
0
0
4.16677e-09
0
1.49449e-09
0
0
0
0
0
0
0
0
0
0
0.000145712
0.000171759
0.000187761
0.000187311
0.000102937
0.000116722
2.30965e-05
9.24377e-05
4.8033e-05
5.35294e-06
4.36416e-05
7.85467e-05
1.08043e-05
6.20167e-05
4.02789e-05
4.81054e-05
5.73649e-05
3.20606e-05
3.70745e-05
5.71564e-05
3.26415e-05
2.41865e-05
1.16047e-09
0
4.02645e-10
0
0
0
0
0
0
0
0
0
0
0
0
0
0
0
0
0
0
0
0
0
0
0
0
0
3.3479e-05
1.09978e-06
7.72387e-05
5.02761e-05
4.53844e-05
0.000133387
0.000232871
0.000220056
0.000257736
0.000258685
0.000283824
0.000237848
0.00018225
0.000217066
0.000226314
0.000241285
0
0
0
0
0
0
0
0
0
0
0
2.23389e-09
0
0
0
0
0
0
0
1.10783e-08
0
4.72698e-08
5.70799e-08
0
0
0
0
0
0
0
0
5.04451e-05
3.59109e-05
6.15258e-06
1.83719e-06
1.86705e-06
4.37955e-06
0
0
3.31097e-05
4.43916e-05
4.11433e-05
0
0
0
0
4.7724e-10
6.41879e-10
0
0
1.13343e-05
0
3.71796e-06
0
0
0
0
0
0
0
0
0
0
0
0
0
0.000136556
0.000257428
0.000280381
0.000262456
0.000179919
0.000153833
0.00020798
0.000296462
0.000118921
6.74902e-05
0.00031515
8.94545e-05
0.0002583
7.43122e-05
0.000162422
7.40027e-05
0.000161661
0.000185955
8.00169e-05
3.59008e-05
0.00010199
0.000180475
0.000116026
4.3533e-05
5.80983e-05
0.000135064
4.55942e-05
6.69384e-05
0.000172272
0.000128714
0.00010916
0.000114213
6.60238e-05
3.43183e-05
4.80111e-05
0.000188491
0.0002568
0.00025127
0.000161668
0.000181329
0.000215032
0.000322675
0.000246797
0.000229366
0.00019993
0.000257622
0.000174165
0.000107234
0.000129113
0.000218575
0.000249682
0.000159584
0.000255757
0.000187268
0.000241248
0.000231086
0.000239869
0.000235725
0.000194777
6.96912e-05
0.000110137
0.000145256
0.000116126
0.000202503
0.000106767
7.30816e-05
4.05445e-05
0.00017729
0.000184898
0.000186609
0.000127684
0.000234914
9.26008e-05
0
0.000170814
0.00017085
0.000165859
0.000148852
0.000166328
0.00014737
0.000159373
0.000151987
0.000213132
0.000149582
0.000218645
0.000119452
0.000158083
1.65832e-05
5.33255e-05
6.93054e-05
2.04001e-05
0.000124299
0
0
5.04503e-10
8.94315e-05
6.89647e-06
0.000101235
6.03967e-05
6.06383e-05
8.66073e-10
0
3.24562e-09
4.53944e-09
0
0
0
0
0
0
5.81521e-06
0
0
5.71428e-06
2.18225e-05
1.39968e-05
3.37843e-05
0.000103208
9.47075e-05
1.68299e-05
6.17035e-05
0.000135136
3.72493e-05
1.41456e-05
0.000102881
3.11232e-05
0.000143967
1.9427e-05
7.6429e-05
0.000179033
0.000165562
8.12096e-05
8.1103e-05
3.25861e-05
0.000126337
0.000149007
4.79459e-05
2.45901e-05
7.09046e-05
0.000139562
0.000103324
0.000122156
0.000210577
0.000293957
0.000295847
0.000123463
0.000318215
0.00030006
0.00025221
0.000259392
0.000209436
0.000268992
0.000281252
0.000318695
0.000269133
0.000244823
0.000304413
0.000328667
0.00038239
0.000274823
0.000362179
0.00023135
0.000185293
0.000278131
0.000304404
8.64253e-05
9.17516e-05
0.00023764
8.58791e-05
0.000207129
9.18182e-05
0.000136562
0.000133874
0.000315733
6.76616e-05
0.000142624
0.000204981
2.43978e-06
0
8.34347e-06
0
0
0
0
9.8793e-06
0
0
0
0
0
0
6.8853e-09
0
0
0
0
7.03059e-09
0
0
0
0
0
0
0
0
1.89897e-09
0
1.34609e-08
0
5.72766e-10
0
0
0
0
0
0
0
0
0
5.35722e-09
0
0
0
0
0
0
0
0
2.60364e-07
0
9.35065e-10
0
0
0
0
0
0
0
0
0
0
2.78519e-09
0
0
0
0
4.24347e-10
0
0
0
0
0
0
0
0
0
0
0
0
0
0
0
0
0
0
0
1.76897e-09
0
0
0
0
3.00226e-09
0.000179286
0.000284425
0.000204765
0.000173682
7.21469e-05
6.11452e-05
0.000129448
7.46042e-05
0.000116329
0.000108813
7.74641e-05
6.82325e-05
3.65377e-05
1.65868e-05
8.28236e-05
2.1565e-05
7.77067e-05
4.47766e-05
4.3291e-05
4.80211e-05
3.41468e-05
1.59234e-05
8.75825e-06
1.49517e-05
2.42116e-05
0
0
0
0
0
0
0
0
0
0
0
8.45566e-10
0
0
0
3.80602e-06
0
0
0
0
0
0
0
0
0
0
0
8.20812e-05
2.79231e-05
3.83118e-05
5.71626e-05
0.000121779
7.96889e-05
8.51656e-05
2.57742e-05
3.18522e-05
0.000191157
0.000152475
0.000166371
0.000205913
0.000213373
0.000146169
0.000133016
0
4.70668e-10
0
0
0
0
0
0
0
0
0
0
0
0
0
0
0
1.13556e-09
0
0
0
0
0
0
4.63168e-09
0
0
0
0
0
0
0
0
0
0
1.24418e-08
0
2.86826e-05
2.46546e-05
5.20569e-06
2.26015e-05
2.99474e-05
1.55962e-05
1.17497e-05
0
0
0
0
2.20772e-05
2.27774e-05
0
0
0
0
0
0
0
0
0
0
0
0
0
0
0
0
0
0
0
0
0
0
0
0
0.000174518
0.000200993
0.000303713
0.000325338
0.000334264
0.00012634
0.0001926
0.000195306
8.77795e-05
7.63025e-05
7.12605e-05
5.28421e-05
4.6124e-05
7.48693e-05
5.60148e-05
8.35565e-05
5.40553e-05
0.000124679
7.87021e-05
0.000107896
3.73823e-05
3.26848e-05
0.000224016
0.000228695
0.000100554
0.00022429
0.000173707
0.000210216
0.000214679
0.00023706
0.000108577
7.83093e-05
0.000255108
0.00016335
8.36306e-05
0.000194018
0.000319652
0.00015928
0.000108433
0.000212103
0.000200096
0.000194581
0.000211194
0.000213778
0.000187004
0.000177242
0.000202125
0.000199517
0.000207492
7.04749e-05
1.73219e-05
0.000300855
0.000142698
0.000104069
1.95769e-05
0.000150487
0.000201397
0.000102734
0.000135048
0.00017035
0.000174894
0.000111825
0.000147581
2.21533e-05
5.33648e-05
5.03185e-05
9.26329e-05
8.86481e-05
9.54552e-05
0.000111566
0.00015117
0.000181592
0.000157513
0.000217892
0.000215931
0.000138794
3.0724e-05
0.000108024
4.55245e-05
2.78441e-05
1.56576e-05
1.61204e-05
0.00017958
4.07215e-05
0.000199312
0.000199026
0.000152426
1.85634e-05
4.77902e-05
0.00010829
3.7012e-09
1.07038e-08
4.22524e-09
0
0
7.25333e-09
0
0
0
0
0
0
0
2.92671e-09
0
1.34931e-09
0
0
0
0
3.28013e-09
0
3.78572e-05
0
8.58274e-05
5.9594e-05
0.000224797
0.000137355
9.11112e-05
3.92291e-05
0.000109474
8.38519e-05
0.000145861
7.65684e-05
0.000118754
9.38112e-05
0.000167956
0.000217977
0.000102145
0.00021186
0.000183306
0.000160722
7.73556e-05
0.000168161
8.52678e-05
0.000191359
0.000102892
5.55664e-05
0.00011035
0.000258932
0.000218712
0.000317931
0.000190075
0.000233424
0.000228152
0.00039416
0.000302099
0.000300513
0.000298687
0.000461763
0.000443285
0.000304089
0.000297207
0.000378481
0.000212668
0.000179593
0.000300951
0.000235171
0.000161715
0.00012654
0.000306439
0.000322649
0.000119291
0.000208944
0.000114059
0.000121414
0.000208073
0.000258508
0.000338729
0.000198226
0.000157575
0.000329713
0
0
0
0
0
0
0
0
0
0
0
0
0
0
0
0
0
0
0
0
0
0
0
0
0
0
0
0
2.30227e-09
1.42349e-09
0
0
0
0
0
0
0
0
0
0
0
0
2.17534e-07
0
0
0
0
0
0
0
0
1.3759e-06
0
0
0
3.4621e-09
1.3662e-09
0
0
0
0
0
0
0
2.61629e-09
1.68302e-09
0
0
7.53195e-10
9.5119e-10
0
0
0
0
3.45801e-09
0
5.18681e-09
0
0
0
0
3.00135e-09
1.17353e-09
1.66447e-09
0
0
0
0
0
0
0
0
0
0
1.60704e-09
0
0
0
0
0
0
0
0
9.27806e-05
0.000235401
7.52345e-05
0.000342363
0.000154234
3.4709e-05
0.000263208
0.00019669
0.000165068
0.000175877
4.39068e-05
0.000113628
4.80212e-05
4.57171e-05
0.000102442
5.01277e-06
2.64972e-05
9.04403e-05
3.48458e-05
5.89712e-05
4.31601e-05
1.59679e-05
3.17101e-05
3.90313e-05
9.25824e-06
7.22951e-06
1.79224e-05
0
0
0
0
0
0
0
5.85322e-09
8.23618e-05
0
0
0
0
0
0
0
0
0
0
5.26594e-11
0
0
0
0
0
7.58982e-05
6.60315e-05
3.2907e-05
0.000136819
8.84137e-05
4.60585e-05
0.000153287
2.26793e-05
3.44927e-05
0.00011974
3.43123e-05
0.000142641
3.9391e-05
8.80643e-05
0.000136242
6.8891e-05
0
0
4.3759e-10
2.56485e-09
0
0
2.47023e-09
7.84214e-10
0
0
0
1.53184e-08
0
0
0
8.18481e-08
2.85787e-08
5.07868e-08
0
0
0
9.44801e-10
0
0
0
0
0
0
0
0
0
0
0
0
0
0
1.51074e-08
0
0
0
0
0
0
0
0
3.25949e-05
1.8802e-05
2.58044e-05
4.03351e-06
1.99768e-06
0
0
0
0
0
0
1.05307e-09
1.39786e-09
0
0
0
0
0
0
0
0
0
0
0
0
3.15341e-06
0
0
4.63334e-10
0
2.44129e-09
0
0
0
0
0
0
0
6.07526e-10
0.000268319
0.000104793
0.000384478
0.000495226
0.000410987
0.000443155
0.000632704
0.000283834
0.000633254
0.00026125
0.00022271
0.000117665
0.000341067
0.00032088
4.79767e-05
1.63556e-05
0.000117669
2.95474e-05
6.09553e-05
7.06244e-05
9.76682e-05
3.78716e-05
0.000104933
0.00012027
0.000120852
0.000123247
5.03681e-05
5.14756e-05
0.000191817
0.000280233
0.0001906
0.000192235
0.000240435
0.000218301
0.000183661
0.000232331
0.000135245
0.000110739
8.95072e-05
0.000285821
0.00013485
0.000134859
5.18232e-05
6.56103e-05
0.000106036
0.000161895
0.000169101
0.00017526
0.000175088
0.000267184
0.000200777
0.000258141
3.42081e-05
0.000102013
0.000145903
6.69673e-05
3.32068e-05
3.68724e-05
9.12253e-06
0.000154402
0.000164094
0.000155059
0.000151832
9.93886e-05
0.000198195
0.000133806
7.96509e-05
0.000195469
2.54809e-05
7.77375e-05
0.000101855
0.000294213
0.000337994
0.00016695
0.000161607
0.000224203
0.000322919
0.000217375
0.000199066
0.000119723
0.000119688
9.05633e-05
0.000148694
5.9234e-05
0.000120939
3.8084e-05
4.18003e-05
5.10568e-05
5.03346e-05
0.000145488
5.6468e-05
4.32204e-05
9.79347e-05
5.86227e-05
0.000249719
0
0
0
0
0
0
0
0
0
0
0
0
0
0
0
0
3.44602e-09
0
0
0
0
0
0.000219936
0
0.000141587
7.26008e-05
0.000174218
0.000134191
8.15382e-05
0.000147818
0.000118484
4.85491e-05
0.000202122
3.36137e-05
5.72837e-05
0.000190389
8.85985e-05
0.000153089
0.000107865
0.000104916
0.00021308
7.91039e-05
6.90256e-05
2.99071e-05
7.05592e-05
0.000133388
0.000221749
4.27534e-05
0.000176731
0.00015866
0.000207695
0.000209988
0.000243294
0.000157737
0.000312616
0.00029861
0.000433284
0.000119574
0.000343213
0.000198739
0.000364815
0.000149743
0.000267318
0.0001244
0.000221082
0.000140247
0.000272153
7.97479e-05
8.82228e-05
0.000252668
0.000251086
4.34947e-05
0.00017915
2.47671e-05
0.000254153
0.000247524
0.000333694
0.000292321
0.000470676
0
0
1.26512e-06
6.37352e-11
0
0
0
0
0
0
0
1.46197e-09
0
2.42419e-09
2.84115e-09
1.91486e-09
9.80552e-10
0
1.33323e-09
2.96308e-06
3.67464e-07
0
0
1.04358e-09
0
4.48133e-09
4.92801e-09
0
0
0
0
0
0
0
0
9.81132e-12
0
0
0
0
0
0
1.86585e-07
0
0
0
0
0
0
0
0
0
0
0
0
0
0
0
0
0
0
0
0
0
0
0
0
0
0
0
0
0
0
0
0
0
0
0
0
0
0
0
4.38121e-09
0
0
0
0
0
0
0
0
0
0
0
0
0
0
0
0
0
0
0
0
0
0
0
0
0
0
0
0
0
2.10948e-10
0
0
0
0
0.000138421
0.0001354
0.00015276
0.000102047
0.00027906
0.000263933
0.000608832
0.000142396
0.00033916
0.000474135
0.000181381
0.000140535
0.000392155
7.97263e-05
0.000670519
0.000172252
7.79151e-05
0.000206363
6.14279e-05
5.04794e-05
3.50667e-05
2.98227e-05
4.86926e-05
2.3322e-05
2.86925e-05
2.874e-05
3.3626e-05
9.05261e-06
3.65442e-05
0
0
0
0
0
0.000112788
0
0
0
0
0
0
0
0
0
0
0
0
0
0
0
0
0
0
5.71961e-05
5.20024e-05
6.06847e-05
8.07563e-05
7.62239e-05
6.60368e-05
0.000164757
2.8168e-05
0.000156071
2.29626e-05
0.000100746
1.0982e-05
0.000163131
7.02145e-05
1.7294e-05
7.51376e-05
0
9.83625e-10
0
0
0
0
0
5.20661e-10
0
0
5.12627e-10
0
0
0
0
0
0
0
0
3.00012e-11
0
0
0
0
0
0
0
0
0
0
0
0
0
0
0
0
0
0
1.05561e-09
0
0
0
0
0
0
0
0
0
0
0
0
0
0
0
0
0
0
2.16204e-05
3.09259e-05
2.17479e-05
0
0
0
0
0
0
0
0
0
0
0
0
0
0
0
0
0
0
0
0
0
0
0
0
0
0
0
0
0
0
2.30783e-09
2.61279e-09
0
0
0
0
0
0
0.000591545
5.044e-05
0.000467796
0.000318067
0.00083761
0.000239733
0.000347487
0.000215929
0.000193774
0.000645261
0.00023691
0.000291246
7.0078e-05
8.68962e-05
2.69354e-05
0.000120421
0.000120978
8.20978e-05
0.000113764
0.000185862
8.95406e-05
8.11639e-05
0.000110644
0.000181722
9.35326e-05
2.01122e-05
0.000188281
0.000171312
0.000260944
0.000299821
0.000241178
0.000230486
0.000159998
0.000271578
0.000250039
0.000169971
4.11521e-05
0.000300015
0.000118274
2.54433e-06
7.04153e-05
2.79545e-05
4.43534e-05
4.10489e-05
8.29171e-05
9.57181e-05
0.000104251
9.80204e-05
0.000193559
0.000302229
0.000404901
0.000350708
0.000270945
0.000113882
5.07741e-05
0.000228679
0.000230376
0.000107686
2.72299e-05
0.000167777
0.000144355
0.00011739
0.000164941
0.000159741
0.000230823
0.000164457
7.43889e-05
5.49586e-05
0.000110117
0
0
2.65547e-05
0.000224554
0.00045798
0.000197713
0.000402619
0.00021557
0.000160278
0.000336858
0.000262672
7.01945e-05
0.000131696
0.000134289
8.41246e-05
6.45124e-05
6.55947e-05
0.000123235
0.000116142
7.26253e-05
2.49978e-05
6.28537e-05
3.67398e-05
8.90986e-05
0.000113341
5.51353e-05
5.69155e-05
0.000329612
0.000128338
0
0
0
0
0
2.10947e-09
2.9439e-09
0
0
0
0
4.14331e-09
1.88957e-09
0
0
0
0
0
0
0
0
0
0
7.23382e-07
0
0.000104731
1.57878e-05
1.68894e-05
2.11933e-05
0.000132712
0.000108217
3.91794e-05
0.000358555
0.000149336
0.000118605
0.000210335
0.00022228
0.000121469
0.000301189
0.000394396
0.000380939
0.000337912
0.00024255
7.99605e-05
4.91949e-05
0.000165055
0.000286606
0.000181443
0.000263685
0.000212838
0.000198556
0.000281583
0.000211913
0.00032828
0.00020754
0.000268026
0.000326753
0.00029857
0.000349649
0.000188606
0.000279781
0.000124172
0.000251092
0.000118961
9.48832e-05
0.000262979
7.39358e-05
0.000221976
0.000209352
4.14184e-05
0.000240493
0.000149935
0.000222594
0.000274679
0.000252186
0.000281918
9.05232e-05
0.000132697
0
0
0
0
0
0
0
0
0
5.33826e-09
0
0
0
2.87089e-09
1.85503e-09
2.8851e-09
1.54046e-09
3.38151e-10
4.85497e-09
0
0
0
0
0
0
0
0
0
0
0
0
0
0
0
0
2.0635e-10
0
0
0
3.19264e-08
0
0
0
0
0
0
0
0
0
0
0
0
0
0
0
0
0
0
5.12552e-08
0
0
0
0
0
8.32971e-10
2.90343e-10
1.26075e-09
0
0
0
0
0
0
0
0
0
0
0
0
0
0
0
0
0
0
0
0
0
0
0
0
0
0
0
0
0
0
0
0
0
0
0
0
0
0
0
0
0
2.23776e-09
0
2.91328e-10
0
0
1.60052e-10
0
2.57584e-09
0.000133561
0.000133652
0.000222553
0.000261944
0.000217919
0.000258299
0.000249901
0.000920127
0.00019154
0.000142691
0.000664325
0.000481387
0.00027854
0.000202708
0.000780186
0.00041872
0.000134625
0.000321106
0.000334318
2.71594e-05
3.34856e-05
1.11257e-05
1.26907e-05
2.87889e-05
2.79971e-05
4.40072e-05
4.71174e-05
3.15358e-05
3.22843e-05
4.10426e-05
2.64576e-05
2.53518e-05
1.22118e-05
0
0
2.94379e-05
4.37164e-05
0
0
0
0
0
0
0
0
6.43148e-09
0
0
0
0
4.23287e-09
0
0
4.16247e-09
0
0
0
6.54328e-05
2.88103e-05
7.1807e-05
5.16136e-05
9.18241e-05
7.28559e-05
5.7957e-05
9.68049e-05
6.1388e-05
1.65785e-05
4.03222e-05
9.3358e-05
3.71932e-05
0
0
0
0
0
0
2.17678e-09
3.23505e-09
0
0
1.23969e-09
0
0
0
0
0
0
6.53856e-07
0
0
0
0
0
0
0
0
0
0
8.03643e-09
0
0
0
0
0
0
0
0
0
0
0
0
0
0
0
0
0
0
0
0
0
0
7.10863e-09
0
0
0
0
0
0
0
0
0
0
0
2.29839e-05
0
0
0
0
0
0
0
2.12127e-09
0
0
0
0
0
0
0
0
0
0
0
0
0
0
0
0
0
0
0
0
0
0
0
0
0
1.80492e-09
0
0
0
0
0
0
0
0
0.000593153
0.000445214
0.000694541
0.000365712
0.00133731
0.000347583
9.62461e-05
0.00010796
0.000265008
0.000173811
0.000230632
0.000103232
4.74332e-06
0.000223407
4.98749e-05
0.000215336
7.80172e-05
0.000251978
0.000130421
0.000192876
9.32309e-05
0.000136027
0.000114827
0.000167927
4.26293e-05
7.66746e-05
4.21498e-05
0.000182803
0.000277439
0.000279974
0.00021863
0.000208843
9.51877e-05
0.000205143
0.000272527
0.000329528
4.01672e-05
0.000186782
0.000241232
0.00029347
9.47855e-05
0.000108404
7.0497e-05
9.76105e-05
0.000124774
2.27126e-05
5.27869e-05
0.00024368
0.000343249
0.000147279
0.000291522
0.000151946
0.000274156
0.000380976
0.000170097
0.000104962
0.000352406
0.000215759
4.75456e-05
8.40908e-05
0.000137744
6.30549e-05
4.04647e-05
0.000220424
0.000160888
0.000304022
8.0148e-05
0.000136717
0.000129423
6.96521e-05
3.58313e-05
4.04294e-05
4.92873e-05
0.000217033
6.55035e-05
0.000222588
0.000199684
0.000155605
9.02144e-05
0.000118227
0.000102124
0.000100109
7.6099e-05
7.66245e-05
2.76967e-05
4.91622e-05
8.41044e-05
7.54913e-05
0.000143684
0.00012835
0.000152973
0.000106141
4.859e-05
9.66513e-05
1.58923e-05
4.60301e-05
0.000263903
0
0
0
0
0
0
0
0
0
4.67566e-09
0
0
0
0
0
3.07149e-10
2.66471e-10
0
0
0
0
0
2.72339e-05
2.42315e-06
0
8.77894e-05
3.98333e-05
5.23871e-05
0.000124953
0.000200982
0.000192069
0.000160182
0.000161804
3.32178e-05
0.000120816
0.000203351
0.000276877
0.000259736
0.000398715
9.05594e-05
0.000284308
0.000365832
0.000141262
0.000291861
0.000360397
0.000308492
0.000416108
0.000396018
0.000379318
0.000378699
0.00029075
0.00029892
0.000363335
0.000378376
0.000300627
0.0003386
0.00035636
0.000329654
0.00023472
0.000296806
0.000191075
0.000327655
0.000294903
0.000195703
0.000249179
0.000124285
0.000214377
6.5428e-05
0.000174782
0.000227034
0.000242777
0.00026821
0.000207686
0.000220667
0.000233023
0.000124507
5.73956e-05
0.000212921
0
0
0
0
0
0
0
0
0
0
0
0
0
0
0
0
0
6.95108e-09
0
0
2.06828e-08
1.34653e-08
0
0
2.02579e-09
0
0
0
0
0
1.95699e-09
0
0
0
0
0
0
0
0
0
0
0
0
0
0
0
1.70502e-09
2.60113e-09
2.47456e-09
0
0
0
0
1.04382e-09
0
0
1.29208e-09
0
0
0
0
2.21979e-09
0
7.84613e-09
0
0
0
0
0
0
0
0
0
0
0
0
0
0
0
0
0
0
0
0
0
0
0
0
0
0
0
0
0
0
0
0
0
0
0
0
0
0
0
0
0
0
0
0
0
0
0
0
0
0
0
0
0
9.71283e-10
0
0
0
9.55129e-09
0
0
0.000139602
9.97777e-05
0.000197669
0.000128748
0.00012216
0.000198012
0.000168219
0.000221202
0.000218826
0.00051552
9.6708e-05
0.000132501
0.000367415
0.000493652
0.000324064
0.000290844
0.000157574
0.000579189
5.67751e-05
0.000205086
0.000262099
0.000178522
7.6725e-05
5.9487e-05
3.10569e-05
6.84627e-05
3.98711e-05
5.62579e-05
4.52167e-05
5.65481e-05
3.36973e-05
4.79911e-05
2.63067e-05
7.7007e-05
5.64193e-05
2.59947e-06
2.4264e-05
4.54243e-06
1.31848e-06
7.16056e-05
3.91351e-05
0
0
3.89588e-09
0
0
5.06258e-09
0
0
0
7.29875e-10
0
8.89397e-11
0
0
0
5.76319e-10
0
1.8569e-09
0
0
2.10295e-05
8.64699e-05
5.93695e-05
1.29647e-05
6.84174e-05
9.46655e-05
7.74106e-05
5.59499e-05
4.50082e-05
5.37584e-05
4.11417e-05
7.49809e-10
0
0
3.37128e-10
0
0
2.76142e-09
1.80584e-09
0
0
0
0
0
0
0
0
3.2666e-08
2.2473e-07
0
0
9.7438e-08
0
6.63468e-09
0
0
0
0
4.54305e-08
0
2.03653e-09
2.3183e-08
0
0
0
0
0
0
0
0
0
0
0
0
0
0
0
0
0
0
0
0
0
0
1.12453e-08
0
0
0
0
0
0
0
0
0
0
0
0
0
0
0
0
0
0
0
0
0
0
2.21915e-09
6.92899e-10
0
0
0
0
0
0
0
0
1.06653e-09
0
0
0
0
0
0
7.05906e-10
0
0
0
0
0
0
0
0
0
0
3.02536e-05
0
0
0
1.4701e-09
0
1.0313e-10
0
0
0
0
0
0
0
1.56855e-05
4.45921e-05
0.000290299
0.000231109
0.000329386
0.000152053
0.000132592
0.000129786
0.000170687
0.000164859
0.00011714