/*--------------------------------*- C++ -*----------------------------------*\
  =========                 |
  \\      /  F ield         | OpenFOAM: The Open Source CFD Toolbox
   \\    /   O peration     | Website:  https://openfoam.org
    \\  /    A nd           | Version:  8
     \\/     M anipulation  |
\*---------------------------------------------------------------------------*/
FoamFile
{
    version     2.0;
    format      ascii;
    class       surfaceScalarField;
    location    "10980";
    object      phi;
}
// * * * * * * * * * * * * * * * * * * * * * * * * * * * * * * * * * * * * * //

dimensions      [0 3 -1 0 0 0 0];

internalField   nonuniform List<scalar> 
788991
(
-0.0217822
-0.00329344
-0.0153787
-0.0325698
0.0191826
-0.040836
0.0097503
0.0130042
-0.0897339
0.0469467
0.00201469
0.0438853
-0.00369456
-0.0330357
-0.0597108
0.00116977
0.0383313
0.0066726
-0.0224354
0.00324057
0.0172022
0.00459974
-0.0226819
0.0177976
0.00526379
0.0340159
-0.00675859
0.0252541
-0.0248656
0.0363043
0.0191916
0.0213203
0.0559905
-0.0138669
0.0610232
-0.00463169
-0.0122954
-0.0303942
-0.0272623
-0.0115964
-0.0291143
0.0411877
0.00130408
-0.0166101
0.0322746
-0.0148299
-0.0259336
0.0239163
-0.0162302
-0.0132884
-0.0671674
0.00608225
-0.0134504
-0.0100049
0.0146801
0.0476454
-0.0177515
0.025579
0.0213238
0.023732
-0.000967259
0.0394774
0.0241704
-0.03279
0.00167096
-0.0303564
-0.00394468
0.0274119
-0.00202536
-0.0263764
-0.0106708
-0.00112948
0.00630919
0.0257087
0.0528154
0
-0.0273129
-0.0496679
-0.00467589
0.0181107
0.0253146
0.00770615
0.0225534
-0.0360878
-0.0141596
-0.0231638
0.0482397
-0.027113
-0.0403564
-0.00882816
0.0410285
0.0115862
-0.0261101
-0.0529863
0.0188483
0.00443765
0.00690604
0.027378
-0.051002
-0.0524328
-0.0423195
-0.0368632
-0.0241798
-0.0447926
-0.0804568
-0.0845204
-0.0847513
0.00319739
-0.0237823
0.0768032
-0.0201271
-0.0809869
0.0052264
-0.00182722
-0.0398867
0.00814203
-0.0160381
-0.0223103
-0.0209423
0.0224491
-0.00772471
-0.0176053
0.0313252
-0.000743543
-0.024448
-0.00476213
-0.00893092
-0.00178451
-0.0138011
0.000562578
0
0
0
0
0
0
0.00320805
0
0.0202308
-0.0205134
-0.0175615
0.00858524
0.00493091
0.0158399
0.00557467
-0.0448884
0.0526793
0.000919291
0.0371942
-0.017053
-0.0116415
-0.0326511
-0.00932608
-0.0276305
0.020834
-0.000889471
-0.0613633
0.0136543
0.0165002
0.00139043
0.000963843
-0.00222801
0.00165392
-0.003627
0.00201022
0.0143486
-0.0011802
-0.0231194
-0.000896944
0.00723287
0.0231722
0.00123646
-0.0425406
-0.0311893
-0.0265405
-0.00357442
-0.019887
-0.0161801
-0.0120344
-0.00419263
-0.0110855
0.0251727
-0.0244587
-0.0203794
0.0163836
-0.00169744
0.0392093
0.0217109
0.0229507
-0.0276099
0.00336581
-0.0473587
0.0204424
0.0182268
0.00266916
-0.0516485
-0.0227043
-0.00266954
-0.0126929
0.00229885
0.0253703
-0.024117
0.0262399
-0.0177329
-0.0320507
-0.0245169
-0.0253483
-0.00316803
-0.0238623
-0.0500904
-0.0125093
0.0281941
0.0194484
0.0553576
0.00488627
0.0208599
-0.00278455
0.00786433
-0.00147052
0.0244452
-0.000642215
-0.0255936
0.03473
0.00883222
-0.0928816
0.0126009
0.0170446
-0.0731021
-0.0682626
-0.0281379
-0.00300413
-0.0738915
-0.0112015
0.00602329
-0.0264645
0.0262632
-0.00445752
0.00997179
-0.000838262
-0.0139579
0.00754843
0.00462695
-0.00443653
-0.0232542
-0.00442236
-0.0151869
-0.0301173
-0.00769204
-0.0236008
-0.0648781
0.0133278
0.0193341
-0.00593658
-0.00177249
0.034683
0.00406994
0.00969805
0.00516521
-0.0327089
0.00746066
-0.0414729
-0.0613019
-0.0144021
-0.0522869
-0.0448588
0.0191717
-0.025846
0.0073425
0.0162591
-0.0186622
-0.030631
-0.0286456
-0.0287711
-0.00585636
0.00611484
-0.0283351
-0.00374011
-0.0219288
-0.0220123
-0.00111166
-0.0443635
-0.00830444
-0.0158334
-0.0236252
-0.0058527
0.00225438
-0.0297059
-0.00907648
0.0151793
-0.0338307
-0.00484122
0.017806
0.0356312
0.00738019
0.00568939
0.058603
-0.04867
-0.0551491
0.0819258
0.0858374
-0.0183584
0.00695999
-0.0168766
0.00853688
-0.019881
-0.0366629
-0.00741252
-0.0123179
0.0295493
0
0
0
0.028601
0
0.00459457
0
0
0
0
0
0
0
0
-0.0405163
-0.040806
-0.011868
-0.0480229
-0.0233883
-0.0233108
-0.0360629
-0.0542678
-0.0193904
0.0268483
-0.0552651
0.0392601
0.038633
-0.0456548
-0.0724317
0.065527
-0.0324543
-0.0642176
-0.00127736
-0.0136186
-0.0404271
0.00268191
-0.0181714
-0.00658583
-0.0142072
-0.0150315
0.034016
-0.00465254
-0.0116973
-0.0011973
-0.00869786
-0.00834944
0.0118407
0
0
0
0
0
0
0
0
-0.00526758
0
0
0.0102989
0.0725179
-0.0226863
0.0678162
0.0317183
0.0437311
0.0471985
0.00729048
-0.0345437
0.0183018
0.00625562
-0.0241972
0.0142297
0.00456744
0.0002174
-0.0374374
-0.0106106
0.0120037
-0.00999997
-0.000789955
-0.00995158
-0.00188265
0.00983602
0.0197321
0.0116279
-0.0150526
-0.016261
0.0141829
0.00756807
0.016482
0.0125432
0.00943974
-0.0132974
0.0275006
0.0039723
0.00200902
-0.00100105
-0.0239357
0.00911548
0.0441141
-0.00300782
-0.0144294
-0.0111053
-0.0176236
-0.0188967
0.0448108
-0.0165968
-0.011315
0
0.0316893
0.0265065
-0.0554044
0.0291371
-0.0211465
-0.00689952
-0.0100942
0.0536642
-0.070809
0.110335
-0.0427805
-0.170672
0
0
0
0
0
0
0
0.0153577
-0.0512619
-0.0309196
-0.00130574
-0.0111694
0.032131
0.0285793
0.0130117
0.0192429
0.0560884
0.0149588
0.0562675
0.0586792
0.0204479
0.000976968
0.0548776
-0.0397182
-0.0952595
0.0334294
-0.0364271
-0.0863076
-0.0654277
0.0361584
-0.00680625
-0.0690388
0.023253
0.00606166
0.0080584
-0.00944301
-0.000875012
-0.0157021
-0.0136293
0.0136243
-0.00255294
-0.000994533
-0.00982729
0.00592705
-0.0239098
-0.00776109
0.00106993
0.017333
0.00608867
0.00980057
-0.0272088
-0.0227696
0.0110409
-0.0204289
-0.0395282
-0.0280877
0.039148
0.0261018
0.0069279
-0.0147091
0.0714916
0.052186
0.0100615
0.035618
0.00569497
-0.0212798
0.0201293
-0.0596915
-0.00272272
0.0121284
0.0660488
-0.0198636
-0.0968313
-0.00296645
0.0218783
0.0265948
0.0610993
0.0340582
-0.0225918
0.0509211
-0.0332064
-0.0268234
-0.068102
-0.05987
-0.0367146
-0.00102511
-0.0771662
0.0390671
-0.0179704
0.013706
-0.0353175
-0.0237922
0.0199966
0.000373427
0.0208937
0.0430577
0.00769769
-0.00344401
-0.0152087
0.00419064
-0.0314081
-0.00629412
-0.0128785
0.00145607
-0.0266077
-0.0196692
0.0320133
0.031272
0.0333762
-0.0163037
0.0069819
-0.0133742
-0.0155013
-0.00476987
-0.0442223
-0.00661117
-0.0320273
-0.0236207
0.0534617
-0.00933559
-0.00314752
0.0315202
-0.0404797
-0.0310371
0.0499961
-0.00899161
-0.0378583
0.0125133
0
0
0
-0.0370647
0
0
-0.00799231
0
0
0
0
0
0
0
0
0
0
0
0
0
0
0
0
-0.0447406
-0.0402321
-0.00665707
-0.019895
-0.0371977
0.00601972
0.0144707
-0.0433529
-0.0230674
0.0271915
-0.0351571
-0.0391123
0.0453208
-0.0230454
0.0508988
0.000284757
-0.0130304
-0.0264228
-0.000349857
-0.0120653
0.00299461
-0.0166811
-0.00171351
0.00120837
-0.00962405
-0.0078959
-0.00605933
-0.00926991
-0.00447077
-0.000325352
-0.00289585
-0.0101879
0.014845
5.3829e-05
0
8.54472e-05
0
0
3.55217e-05
4.5917e-05
-0.000118042
3.56449e-05
0.00010771
0
0
0
0
0
0
0
0
0
0
0
0
0
0
0
0
0
0
0
0
0.0242118
0
-0.043712
0.0677436
0.10921
-0.0446074
0.0438854
0.0348691
-0.0307371
0.0337438
0.0197922
0.0156266
0.00314415
0.0196312
-0.00360572
-0.00835823
0.0185866
0.00983617
-0.0305566
0.00219256
0.0250594
-0.000535815
7.87077e-05
0.0170715
-0.0198421
-0.00693639
-0.00352656
-0.0206977
0.0184447
-0.00173798
0.00523312
0.0118733
-0.00502998
0.0126876
0.0060526
-0.00609985
0.00805525
0.00171711
0.0532547
0
0
0
0.00302494
-0.0227157
-0.0563852
0
-0.0180052
-0.0182114
-0.0259289
0.0126207
0.0027932
0
0
0
0
-0.0582092
-0.0134214
0
0
0
0
0
0
0
0
0
0
0.0335875
0.0343371
0.0269461
-0.0128913
0.00797784
-0.00373735
-0.0306529
0.00528439
0.0551856
-0.00421119
0.0640525
-0.0270219
5.17015e-05
0.0770188
0.0773109
0.00910289
-0.0261414
-0.0291107
-0.000878163
0.0242332
0.0360274
-0.0289186
0.034585
0.0507199
0.0420937
0.055072
0.0439736
0.030344
0.0183486
0.0718434
0.057373
-0.0135254
0.069576
-0.0971696
-0.111966
0.0667113
-0.0818714
-0.00299329
-0.0598728
-0.0201406
-0.0103588
0.00876453
-0.027044
0.0188926
-0.00291747
0.0119499
0.010718
-0.0171738
0
-0.0165276
-0.0130666
0.0355325
0.011414
-0.0167913
-0.00662711
0.0145819
0.0353773
0.0158535
-0.0202659
-0.00611573
-0.0092883
-0.0248243
-0.0696165
0.0150034
-0.0188128
-0.016911
-0.0347864
-0.0308529
0.0252473
0.0097406
-0.0842194
-0.0484355
-0.037533
-0.0664765
-0.0468733
0.039716
-0.0271923
0.00341113
0.0370961
-0.0268414
-0.0421984
-0.0439482
0.0513519
0.0552614
-0.0370617
-0.0393316
0.00126494
-0.0239646
0.0197352
0.0652476
0.048737
0.00301486
0.0167315
0.0385974
-0.00584945
0.0330717
-0.047625
-0.0102137
0.0428573
-0.0310265
0.00885037
-0.00365442
-0.0345916
-0.0296737
-0.0506574
0.0143933
-0.0465514
-0.0274884
-0.0140958
-0.0135717
0.013411
-0.0124625
0.0102904
0.017804
0.0370961
0.0132489
-0.00394885
-0.0615768
-0.00470631
-0.0093282
0.00581038
-0.0610408
-0.0504592
-0.00416762
0.016819
0.00506377
-0.0439058
0
0
0.0138846
0.0175705
-0.0109935
0.00861313
-0.00757403
-0.00325233
-0.0562867
0.0143628
-0.0333826
-0.0192019
-0.0780046
-0.0107427
0
0
0
0
0
0
0
0
0
0
0
0
0
0
0
0
0
0
0
0
0
0
0
0
0
0
0
0
0
0
0
0
0
-6.74606e-05
0
-2.67575e-05
0
-2.42536e-05
-5.17657e-10
-1.37919e-05
2.01789e-06
1.28351e-05
-5.3884e-05
0
0
1.72613e-05
0
0
0
0
0
0
0
0
0
0
0
0
0
0
0
0
0
-0.0272784
-0.0135082
-0.00168213
-0.00796245
-0.0246732
0.0191648
0.00450115
-0.0149274
-0.0115627
-0.0106259
-0.0169624
0.032802
-0.00386393
-0.00367995
-0.0138042
-0.0192475
0.000922402
0.006557
-0.014176
0.0116889
-0.0214585
-0.0118819
0.00744008
-0.00611813
-0.00826374
0.00798881
0.00933762
0.00160173
-0.00353668
-0.0122496
0.00797842
-0.00813167
0.00390565
0
2.03948e-06
0
0
0
0
0
0
0
0
0
0
0
0
0
0
0
0
0
0
0
0
0
0
0
0
0
0
0
0
0
0
0
0
0
0
0
0
0
0
0
0
0
0
0
0
0
0
0
0
0.0823519
0.106568
-0.0517663
0.0467969
0.10956
0.00934959
0.0281132
0.0438073
-0.00901921
0.0169722
0.0337196
0.0109401
-0.0145512
0.0274239
-0.02213
-0.022191
0.0309027
0.0378767
-0.0320025
0.0127625
-0.0459499
2.18667e-05
0
0
-6.09783e-05
-2.2292e-06
0
0
2.58238e-05
0
0
0
0
0
0
0
0
0
0
0
0
0
0
0.00471272
0.00996642
-0.0018824
0.0050281
0.00381247
0.0195017
0.010177
0.00879304
0.0137085
-0.0145593
4.7724e-05
0.0172965
-0.0619182
-0.0430345
0
0
0
0
0
0
0
-0.0311507
0
0
-0.00204694
0
0
0.000688159
0
0
0
0
0
0
0
0
0
0
0
0
0
0
0
0
0
0
0
0
0.0520301
-0.0514461
-0.0181552
0.0582928
-0.0205944
0.0252582
0.0400403
0.00394977
-0.015782
0.0548444
-0.0640725
0.0716289
-0.00810174
0.0272947
0.0633897
-0.07085
0.0150168
-0.0249096
0.026996
-0.0033202
0.0326995
-0.115121
0.0080423
0.041585
-0.0379929
0
-0.017092
0.0188522
0.0617552
-0.1229
-0.106881
0.0356253
0.0759801
0.049335
0.0215863
0.0490984
0.0329338
-0.0553176
0.0431586
-0.0971717
-0.00337002
0.0642173
0.114065
-0.116689
0.0677221
0.112179
0.00664982
-0.00308764
0.00491058
-0.0128327
-0.0551497
-0.0430472
0
-0.000780532
0
0
0
0
0
-0.0227813
0.0194555
-0.0173038
-0.00421539
-0.0146154
-0.0273657
-0.0454994
0.0121052
0.0144399
0.033601
-0.0108405
0.0362542
0.0461364
0.00252027
0.00108109
-0.0134252
-0.0126433
-0.00384438
-0.0309921
-0.000713089
0.0213745
-0.0337197
0.0212363
0.0561537
0.0275847
-0.0231317
0.0751079
0.0536626
-0.016419
0.0455981
0.102152
-0.027467
0.0351667
0.0659273
0.0190169
0.0143797
0.0236623
-0.0611191
-0.023589
0.0378543
-0.088879
0.0235368
-0.0215339
-0.00500946
-0.034944
-0.034547
-0.00843295
-0.0403891
-0.0234062
-0.0145319
-0.0563413
-0.0565719
-0.0339622
-0.0190501
-0.0154241
0.0175234
-0.0381533
-0.0570033
0.0115695
-0.0752863
-0.0199322
-0.041259
-0.0883758
-0.0180866
-0.0330027
0.0489105
-0.0543105
0.0571506
-0.083228
0.0290413
-0.0425961
-0.0553476
-0.005312
-0.086134
-0.0209185
0.0552184
-0.0290092
0.0608906
-0.0289449
0.0151444
0.0605246
-0.0301061
0.0618818
0.0325621
0.0233218
0.0631797
-0.0433167
0.0669369
0.0298702
0.0247309
-0.0667557
0.0271054
0.0728214
0.0515489
0.0258009
0.0707464
0.00014536
0.0706712
0.0741284
0.0436459
0.0695952
0.013986
0.0629754
-0.0903477
0.0674355
0.0621268
0.0677983
0.00968748
-0.0899748
0.0713874
-0.0622254
-0.000679028
0.00123373
-0.0174054
0.00164275
0.0111268
0.00415747
-0.00712186
0.00908569
0.00312886
0.0446206
-0.0267428
0.0109314
0.0443042
0
0.0177772
0
-0.0212741
-0.0505104
0
-0.048431
0
0
-0.0335132
0.0286711
0.185902
-0.0451609
-0.188932
0.0433709
-0.0335471
0
0
0
0
0
0
0
0
0
0
0
0
0
0
0
0
0
0
0
0
0
2.82365e-05
8.06747e-05
0
0
0
0
0
0
0
0
0
0
0
0
0
-2.48088e-05
-9.4678e-05
0
0
0
0
0
0
0
0
0
0
0
0
-7.37226e-05
0
0
0
0
0
-3.1122e-06
1.95654e-05
0
-1.99199e-06
-2.32533e-06
-1.92374e-07
0
0
0
-2.19404e-06
0
0
0
-1.55696e-05
1.62203e-05
-1.73401e-05
2.47944e-05
5.19403e-05
0
-3.83482e-06
5.966e-05
0
0
0
0
0
0
0
0
0
0
0
0
0
0
0
0
0
0
0
0
0
0
0
0
-8.77955e-05
0
4.08417e-05
0
-4.70805e-05
0
-0.00334406
-0.0156742
0.0155269
0.00602864
-0.0274298
-0.0266805
-0.00860406
0.00908915
-0.00334467
0.00989758
0.00875436
0.0339228
-0.0154725
0.0182023
0.0159699
-0.0147012
0.00781978
-0.0371054
-0.0132172
0.0188308
-0.0245675
0.000375601
0.00301317
0.00382035
0.000597997
-0.00997638
0.0143098
-0.0246784
-0.00758038
1.38281e-05
-0.0151099
-0.0306248
-0.00961103
0
0
0
-2.7944e-05
2.72677e-05
5.60697e-05
0
0
0
0
0
0
3.97555e-05
0
-1.5188e-05
0
0
0
0
0
0
0
0
0
0
0
0
0
0
0
0
0
0
5.07767e-05
4.96184e-05
2.10417e-05
0
-4.80512e-05
0
0
0
0
0.135479
0
0.00582913
0.0614015
0.0264708
0.0474539
0.0350608
0.0766597
0.015408
0.020228
0.0642475
0.0358334
-0.00236918
0.0501307
-0.0546133
-0.0280125
0.0404906
-0.0674436
-0.0347901
0.0348772
0.0669123
-0.0348603
0.0505809
0.0190632
3.12977e-05
0
0
-2.32752e-06
0
3.37823e-05
0
-9.35935e-07
0
5.39623e-07
0
-1.08418e-06
-6.16148e-08
0
0
0
0
0
0
3.17906e-05
0
0
-4.56506e-07
0
0
0
0
0
0
0
0
0
0
0
0
0.00304071
0.0331241
-0.0104898
0.0095738
0.0167267
0.00161975
0.00208753
-0.021395
-0.0139726
-0.00801971
-0.0260228
0
0
0
0
0
-5.74964e-05
3.53969e-05
0
0
0
0
0
0
0
0
0
0
0
0
3.00934e-05
-0.000224897
-0.000819757
0
0
0
0
0
0
0
0
0
0
0
0
0
0
0
-1.16116e-05
0
-1.20064e-05
0.0414099
0.0721924
-0.00885909
0.0463726
0.040271
-0.00594403
0.0228134
0.0378371
-0.0235291
0.055922
0.0702396
0.011839
0.0666968
0.043351
0.00712619
0.066516
0.0625593
0.00730403
0.0267342
0.0597646
-0.0288874
0.0356267
0.0689263
0.0363442
0.0185851
0.0757579
-0.0599293
-0.00884591
0.0754896
-0.0860197
-0.0206178
0.071801
0.092654
-0.0204559
0.0715803
0.0979423
0.0649915
0.0686925
-0.0604502
0.00345876
0.0743472
0.070535
-0.00815456
-0.08841
0.0116106
-0.0418772
0.0422172
0.0238031
0.00681442
0.031234
-0.0610569
-0.00704357
-0.0341656
0.0298232
-0.0215288
0.021178
-0.000415137
-0.039321
0.0130487
0.00531756
0
0
-0.0508345
0.0379325
0.113982
-0.0520677
-0.0540101
0.0302679
-0.00954037
0.0328164
-0.0517667
-0.0706361
-0.0329697
-0.0193108
0
0
0
-0.0421228
0
0
0
0
0
0
0
0
0
0
0
0
-0.0142704
0
-0.0103683
0
-0.0178988
0.0151194
0.0216835
-0.0574886
-0.0292566
-0.0165613
-0.00206243
-0.022945
0.0228881
0.0155423
0.0118488
0.0453216
-0.0217758
0.06369
-0.00580665
-0.0081343
0.070401
0.0243231
-0.0174647
0.0411629
-0.0136845
0.0247895
0.0144299
-0.0540683
-0.0290086
-0.0320492
0.0223115
-0.0684042
-0.0637329
0.0204488
0.0577003
-0.042055
0.0112591
0.054535
-0.0652628
0.00720192
-0.0819023
0.000157898
-0.0316432
-0.0262811
-0.0504511
-0.0424031
-0.0148569
-0.0591979
-0.0437263
0.0267077
-0.0519381
-0.0613099
-0.000507553
-0.0582866
-0.093801
-0.0114888
-0.072639
-0.0515272
0.014872
-0.0896987
-0.0347173
0.041766
-0.039039
-0.0540213
-0.0591238
-0.0819892
-0.0433331
-0.0429368
-0.0445229
-0.00114946
0.0568759
-0.0362633
0.00548403
0.0608802
-0.0372356
0.0160956
0.059741
-0.0482847
0.0239166
0.0671297
-0.0285788
0.0189863
0.0663878
-0.0068828
0.0367173
0.0582224
0.00200538
0.0406079
-0.0527489
-0.00304911
0.0543509
0.0483096
-0.013623
0.0506294
0.0398822
0.0508875
-0.00811562
0.0578913
0.0478441
0.0435978
-0.0472858
0.00308715
0.0487968
0.040249
0.0403305
0.0497407
-0.0507835
0
0
0.000650739
-0.00369912
-0.000952723
-0.00682264
-0.0406376
-0.0245288
0.101481
-0.00436701
-0.0435364
0.0474744
0
-0.0511702
0
0
0
0
0
0.00503983
-0.00758444
-0.0443054
0
0
-0.0437945
0
0
-7.35341e-05
0.000143651
0.000128738
0
6.52826e-05
0
0
0
0
0
0
0
0
0
0
-0.000188285
0.00067444
-0.000589819
0
0
0
-1.62252e-05
0
9.23678e-05
0
-3.27301e-05
0
0
0
0
0
0
0
0
4.78618e-06
-4.52694e-05
0
0
0
0
-0.000110624
0
0
0
0
0
0
0
0
-2.20367e-07
-1.04833e-06
0
0
0
0
0
0
0
0
0
0
0
0
0
0
0
-2.59844e-05
0
0
0
-1.53562e-05
-1.59009e-05
0
0
0
0
0
0
0
0
0
0
0
0
0
0
0
0
0
0
0
0
0
0
8.28584e-07
0
0
0
0
0.00833992
-0.0107474
0.0224204
0.0167577
-0.0132612
-0.0265527
0.015538
0.0135187
-0.022565
-0.00916007
0.0164579
-0.0208955
-0.00452495
0.0130432
-0.0249242
-0.0106844
0.0223566
0.0220314
-0.0157579
0.0201085
0.0141408
-0.0200771
-0.00898033
0.00385757
0.0124064
-0.0203794
-0.0114363
-0.00632265
-0.0226619
0.00961027
-0.00581257
-0.0163036
-0.00224967
-3.3248e-05
0
-1.05693e-05
6.51426e-05
-1.12424e-05
-9.69541e-07
0
0
0
0
0
0
0
0
0
0
0
0
0
0
0
0
0
0
0
0
0
0
0
0
-7.0193e-05
0
0
0
0
0
0
0
0
0
0
0
-0.0565025
0
-0.0507577
0.037379
-0.00314224
0.009227
0.025082
0.0443539
0.0211383
0.00201431
0.0478845
-0.0491743
-0.0017134
0.047852
0.0681791
-0.0267801
0.0388138
0.0691756
-0.0292467
-0.0175291
0.0411474
-0.0249288
0.0321756
-0.0525004
0
0
0
0
0
0
0
0
0
0
4.47666e-07
0
0
0
0
0
0
0
0
-0.00453504
0
0
0
0
0
0
0
0
0
0
0.00746515
0
0.00177817
0
0
0
0
0
0
0
0
0
0
-0.00396748
0
-0.0364813
-0.0263655
-0.00377662
0
-0.020449
0
0
0
0
-2.21249e-05
0
0
0.0265617
-0.0502397
-0.033891
-0.0208727
0
0
0
0
0
0
-1.48637e-05
-2.28146e-05
2.9397e-06
0
-8.10586e-06
0
0.000147434
0
0
0
0
0
0
3.7111e-07
0
-1.31128e-05
0
0
0
0
0
0
0
0
0
0
0
0
0
0
0.033674
0.0189627
0.0293047
0.0108096
0.00496452
-0.0290662
0.00986084
0.0240217
0.00408805
-0.00464531
-0.0214357
-0.0063761
-0.000667587
0.0147935
0.00923358
0.0100375
-0.0053228
0.0405834
0.051179
-0.0330772
0.0371151
-0.0218536
0.0454911
-0.0245498
0.0354643
0.0517226
-0.0260155
0.0494715
-0.0187253
0.0338938
-0.0520736
0.0345148
-0.00061626
-0.024728
0.0296181
0.0418588
0.00347387
0.0625872
0.0666817
0.00861248
0.0580462
-0.0474435
0.015911
0.0508217
0.02894
0.0504475
0.0445958
-0.0321193
0.0450099
0.0374814
-0.0406694
0.0347013
0.0393302
0.0412988
0.042827
0.0562233
-0.00160712
0.0657166
0.0419847
0.0145359
0.0589688
0.037636
0.0255531
0.0374565
0.0664148
0.0271137
0.00808069
0.0759916
0.0703306
-0.0198624
0.0789197
0.0982466
-0.029265
0.0850831
0.110215
-0.0267208
0.0787165
0.104372
-0.0139118
0.0798171
0.0924821
0.0686204
-0.00996154
0.087558
0.0808504
-0.0157091
0.0952718
0.0347996
0.0265122
0.0239877
0.0138423
0.0660636
0.0246251
0.0174982
0.0138918
0.0248771
-0.0107685
-0.0102228
0.015547
-0.0328078
0
-0.0440253
0
0.020283
0.0128906
0.0555344
0.0281251
0.0274548
0.0495436
-0.0202619
0.0318299
0.0394452
0.00700555
0.0260118
0.0269308
-0.00263187
0.0319467
0.0148203
-0.00756899
0.0101466
0.0162642
-0.00712454
-0.00524761
0.00417033
-0.0120274
-0.0265703
0.00130885
-0.0142978
-0.0100908
0
1.73869e-05
2.70902e-05
0
0.0028065
0
-0.102053
0.0153899
0.0468759
-0.0573967
-0.0459027
-0.0514014
1.42257e-05
0
-1.08901e-05
2.41059e-05
-1.56797e-05
-8.49253e-06
0
-4.48145e-05
0
0
0
0
0
0
0
0
0
0
0
0
0
-0.0120243
0.000120634
0.000172017
-0.0198017
0
-0.0478702
-0.0129495
-0.0177879
0.100928
0.0178448
-0.054664
-0.0225893
0.0201787
0.0491528
-0.00256926
0.0265811
0.0660446
-0.0367158
-0.00308509
-0.00982636
0.0568723
-0.000101483
-0.0294442
0.0485038
-0.00167625
-0.0332286
0.0453686
-0.0554774
0.00649223
-0.0792014
-0.0243731
0.0330679
-0.0548842
-0.0332244
0.00286352
0.0627881
-0.024884
0.0320372
-0.0775042
-0.00758033
-0.0433581
-0.0510422
-0.0702241
-0.077536
-0.00823005
-0.0591244
-0.0339026
0.0444038
-0.0939138
-0.0806275
0.00991275
-0.081342
-0.0694726
0.0129764
-0.0876112
-0.0446758
0.0336383
-0.0361432
-0.058137
-0.0642403
-0.0830469
-0.0484024
-0.0350607
-0.0530074
-0.0257605
0.048556
-0.0549147
-0.0110844
0.0552528
-0.044025
-0.00194955
0.0592433
-0.0406829
0.0134121
-0.0601579
-0.049151
0.0199065
0.0632328
-0.0287147
0.00923329
-0.0543849
-0.00599983
0.0180555
-0.0393335
-8.49357e-05
0.0394274
0.0291412
0.00266104
0.0319479
-0.0335751
0.00273783
0.0565257
-0.0341178
-0.0322597
0.0486019
0
-0.011217
-0.000878711
-0.00563736
0
0
0
-0.0644778
0
0
-0.0663107
0
0
0
0
0
0
0
0
1.60809e-05
0
9.12091e-05
0
-0.0347482
0
0
0.000189799
0
-0.000118516
0
-0.000201014
0
-7.09607e-05
0
0
0
0
0
0
0
0
4.14134e-05
5.82846e-05
-1.971e-05
0.000355176
0
0.000298985
8.34014e-06
-0.000411862
1.88227e-05
0
0
0
0
0
0
0
0
0
0
0
0
-4.62295e-05
0
-0.000123174
0
0
0
0
0
0
0
0
0
0
0.00330208
0.0020889
0
0
0
0
0
0
0
0
0
0
0
0
0
0
0
0
0
0
0
-3.42434e-07
-3.64361e-06
-3.19988e-05
0
0
0
-5.84987e-05
1.01468e-05
0
0
0
0
0
0
0
0
0
0
0
0
0
0
0
0
0
0
0
0
0
0
0
0
0
0
0
9.83586e-06
0
-4.21477e-05
0
0
0
-1.02424e-05
0
1.72823e-05
-0.00521009
-0.00128654
-0.00147259
0.0268627
-0.0112499
0.00485568
0.00310041
-0.01307
0.01158
-0.00188919
-0.019292
0.0245326
-0.000458488
0.0230178
-0.0080193
0.0169424
-0.000709349
0.00523221
0.0185095
0.0188126
0.00450791
0.0158194
-0.0154715
-0.000847125
0.0177189
-0.00759205
-0.0149574
0.00133281
0.00909059
-0.0147856
0.00511247
0.0310161
-0.014035
-0.0272391
-0.00329329
-0.0113097
-0.0271882
8.67949e-07
0
0
0
0
0
0
0
0
0
0
0
0
0
0
0
0
0
0
0
0
0
0
0
0
0
0
0
0
0
0
0
0
0
0
0
0
0
0
0
0
-0.0271532
0.0640048
-0.0131185
0.0145413
-0.0156628
0.00289101
-0.013937
-0.00502522
0.0088195
-0.00149148
-0.0126735
-0.0007466
0.042001
-0.00736305
0.0134304
0.0362517
-0.0111925
0.04186
-0.0250051
-0.0145598
0.0274037
0.0207639
-0.00673238
0.00947011
0
0
9.43442e-06
7.0087e-07
0
0
0
0
0
0
0
0
0
0
0
0
0
0
0
0
0
0
0
0
0
0
0
0
0
0
0
0
0
0
0
0
0
0
0
0
0
0
0
0
0
0
0
0
0
0
0
0
0
0
-0.0161105
-0.066982
-0.0138609
-0.00488147
0
0
0
0
0
0
0
0
0
0
0
0
-0.0321667
0
0
0
0
0
0
0
0
0
0
0
0
0
0
0
0
0
0
0
0
0
0
0
0
0
0
0
0
0
0
0
0
0
0
0
0
0
0
-0.0350124
0.0160334
0.0264735
-0.0314481
-0.0135693
0.0434867
0.00314404
-0.0035304
-0.00957965
-0.0321306
0.0270383
-0.0131611
-0.00469557
0.0388128
-0.043317
-0.017778
0.0410528
0.057973
-0.0210904
0.0382132
-0.0561188
-0.0148934
0.0435442
-0.0322197
-0.0017175
0.0685349
-0.0713354
0.0124718
0.0624925
0.0431872
0.00594209
0.0522302
-0.0381722
0.0462413
0.0241344
-0.0608056
0.0368264
-0.00204757
0.0694175
0.0572482
0.00137094
-0.0205867
0.00403616
0.0375173
0.0359942
0.0731359
0.0579453
0.00707095
0.0600464
0.0548817
-0.00146829
0.0784777
0.067024
0.00835623
-0.0652329
0.0630774
0.0125923
0.0561045
-0.0269485
0.0803993
0.104005
-0.0459478
0.0820157
0.130021
-0.0406096
0.0817549
0.127553
-0.0235379
0.084678
-0.102982
-0.0196262
0.0851729
-0.107731
0.077215
-0.00690491
-0.0934578
0.0796642
-0.0112403
0.0991431
-0.00628985
0.00994317
0.0216449
-0.018325
0.0194805
-0.0156843
-0.0398948
-0.00477831
0.0190401
0.0158943
0.0251761
0.014802
0.0426622
0.0425517
-0.0200288
0
0.0118525
0.0335606
0.0330829
0.0265339
0.0565281
-0.0127488
0.034309
0.043848
-0.00981712
0.0369846
0.000805077
0.0334637
0.0313267
0.0192277
-0.0110663
0.024345
0.00355199
0.0202726
0.0152306
0.00292903
-0.00641035
0.00467599
-0.00415601
0.00736052
-0.00953399
-0.0133774
-0.0228306
-0.0021424
-0.0155658
0.00498764
0.0353957
0.00830366
0.0338784
-0.0184291
-0.00340314
-0.0225001
-0.00987443
-0.0285599
-2.89634e-05
3.5033e-05
7.49079e-05
-7.34318e-05
0
3.9273e-05
0
-0.0305261
0
0
0
0
-0.000118069
0
0
0
0
0
-8.67138e-05
0
3.35328e-05
0
-1.42517e-05
-1.9586e-05
0
0
0
0
3.87209e-05
3.22615e-05
0
-5.19628e-05
0
0
0
0
0.0195998
0.0256432
-0.0237086
0.0764806
-0.00285253
0.00591975
0.0231117
0.00839995
-0.0217493
0.00279597
-0.0172088
-0.0148296
-0.00171308
0.000390123
-0.0448495
0.027931
0.0061584
0.0739992
0.0513418
0.0211973
-0.0462471
0.0470153
0.0203002
-0.0720802
-0.00692309
0.0442611
0.0859232
-0.0299636
0.0830722
0.0848268
-0.0283149
0.0181602
-0.0731322
-0.01411
0.0610074
0.0874287
0.00501366
-0.0421045
-0.0708619
-0.0575702
-0.0456715
-0.0327807
-0.0580985
-0.00481622
-0.0622329
-0.0742454
-0.0717445
-0.0293523
-0.0733028
-0.0777694
0.0145502
-0.0398622
-0.0504256
-0.0673971
-0.0791419
0.0120578
-0.0647236
-0.0507199
0.0364237
-0.0662199
-0.0330207
0.0450911
-0.0636453
-0.0206959
-0.0563074
-0.0488067
-0.00983101
0.0608519
-0.0464947
0.0074869
-0.0605849
-0.0452587
0.00269459
0.0506684
-0.0152897
-0.00114311
0.0257299
0.00604946
0.0182391
0.00830582
0.023595
0.0297124
-0.0166666
0.0254423
0.0619198
-0.0117495
-0.0160304
0.0447207
-0.00434626
0
0
0
0
0
0
0
0
0
0
0
0
0
0
0
0
0
0
0
0
0
-0.000155235
0
0
0
0
0
0
-1.04668e-05
0
0
0
0
0
0
0
-2.95367e-05
0
7.41871e-07
0
-2.9916e-05
3.23435e-05
-2.02302e-05
-2.18742e-05
0
4.77569e-06
0
0
0
0
0
0
0
0
0
0
0
0
0
0
0
0
0
0.00345272
-0.00284114
-7.42801e-05
0
0
0
0
0
4.99376e-05
0
9.2989e-05
0.00233411
0
-0.00170186
0
-0.00476475
0
0
-7.59114e-06
-2.48051e-05
6.01783e-06
0
-3.13017e-05
0
0
0
0
0
0
0
0
0
1.31562e-05
1.20032e-05
-2.10231e-05
0
9.00915e-06
0
-2.60075e-05
4.76386e-06
-2.80988e-05
0
3.50665e-05
0
0
0
0
1.043e-05
0
-6.57216e-05
0
-1.66944e-05
-2.47079e-05
0
0
0
0
0
0
0
0
0
0
0
0
0
0
0
0
0
0
0
0
0
-6.01283e-06
0
7.74697e-06
0
0
0
-4.50293e-05
0
0
0
0
0
0
0
0
0.015452
0.0183261
0.032842
-0.0200854
0.00828363
-0.0523833
-0.0200245
0.0100594
-0.000887163
0.00664497
-0.00077707
0.0104972
-0.00988343
0.0132052
0.0114672
-0.00372557
-0.00577716
0.00203828
4.97631e-05
0.00614518
0.00809543
0.0145732
-0.00149533
0.00380014
0.0108452
0.0062541
0.00233007
0.0208476
0.0117069
-0.00745265
0.00632509
-0.00231911
0.00468684
0.00107602
-0.0225839
0.0582129
0.0108606
0.0154302
0.0382502
-0.0236638
0
0
0
0
0
0
0
0
0
0
0
1.39424e-05
0.0647323
-0.0300227
2.86151e-05
0
0
0
0
0
0
0
-1.46408e-05
0
0
0
0
-4.64938e-07
0
9.10414e-07
0
4.44442e-07
0
0
0
0
0
0
-0.00590069
0.00151435
0.00376696
0.000186314
0.00713918
0.0633593
-0.0116946
-0.0304318
-0.0047363
0.0316295
0.0126663
0.0163163
0.0113864
-0.0153589
-0.00121694
-0.0212595
-0.0148862
0.000618725
0.0238396
-0.0161167
-0.01708
-0.00190121
-0.00926743
-0.00459068
3.20905e-08
0
0
7.60282e-07
0
-7.94349e-06
0
0
0
0
1.2589e-09
0
-1.57459e-06
0
1.57912e-06
0
0
0.00022556
6.6626e-05
0
0
0
6.51834e-05
0.00015938
3.84579e-05
5.02786e-05
-3.77601e-05
-3.94321e-05
0
0
0
0
0
0
0
0
0
0
0
0
0
0
0
0
1.02101e-06
4.38856e-05
0
0
0
0
0
0
0
0
0
0
0
0
0
0
0
0
0
6.90126e-05
0
0
-0.0527544
0.0171725
0.010124
0.00090313
0
-0.0726627
0
0
0
0
0
0
0
6.263e-06
0
2.20759e-06
0
-1.23935e-05
1.46385e-05
0
0
0
0
0
0
0
0
0
0
2.7511e-05
-1.29453e-05
0
0
0
0
0
0
0
0
0
0
1.84566e-05
1.11162e-05
4.40135e-06
0
4.05011e-05
0
0
0
0
0
0
0
0
0
-8.4112e-06
0
2.84692e-05
-0.0445852
0.0214008
-0.0232145
-0.0218213
0.00121461
-0.0169616
0.024695
0.000127884
0.0466043
0.0261807
0.00731144
-0.00269002
0.0322622
0.0360268
0.00703757
-0.0602187
-0.01141
-0.00542177
-0.0111808
-0.0293899
-0.00625259
0.0467025
0.0567909
-0.00230737
0.0495625
0.0554986
0.0146106
0.0546976
0.035201
0.007895
0.0524497
0.0265347
0.01052
0.0765871
-0.0610132
0.00844458
0.0730526
-0.0559011
0.00366214
0.0625408
0.0587048
0.0391488
-0.0170448
-0.0916758
0.0179025
-0.0314231
0.06726
0.0481882
0.0122992
-0.0155669
-0.0335283
0.0311771
0.0438465
0.0472798
0.000475023
0.0646328
0.0343292
-0.0189383
-0.0808435
0.0706659
-0.0269858
0.0909126
0.0554877
-0.0243072
-0.0788867
-0.0499981
0.0671134
-0.119947
-0.0472578
0.0737507
-0.133711
-0.0310746
0.0740838
0.120357
-0.031148
0.0800043
0.100165
-0.0195228
0.0969172
-0.0857102
0.0802631
0.00967972
0.0796653
0.0923567
0.0168357
-0.0795563
-0.0499306
0.0125708
0.0321879
-0.0407583
-0.00536369
0.0175814
0.0425607
-0.0306145
0.00942398
-0.0153675
0.00847798
-0.0269811
0.101843
0.0509376
-0.0230923
0
-0.0305581
-0.0567465
0.0401708
0.0403752
0.0382937
-0.00675832
0.0382806
0.0256226
0.00756509
0.01169
0.0194972
0.026061
0.0301782
-0.00623397
-0.0287298
0.0231106
0.0029123
0.0255304
0.0141803
-0.0135616
-0.0216806
0.00821958
-0.00813014
-0.020175
0.0118839
-0.00816885
-0.0192639
0.00305995
-0.0130721
0.0261736
0.00519629
-0.00566225
0.00711727
-0.00366958
0.0292476
0.0300488
0.00868932
-0.00555587
-0.0208165
-5.72248e-05
0
0
0
0
0
0
0
0
0
0
0
0
0
0
0
0
0
1.95954e-05
0
0
0
0
0
-9.94098e-06
0
-4.73298e-05
0
-2.55875e-05
0
0
0
0
0.00218794
0
0
0.012603
0.0290059
-0.0122748
0
0.0307263
-0.0312369
0.0334568
0.0575139
-0.0050132
0.0194861
-0.0141645
0.0209477
0.0621767
-0.019839
0.0240721
0.0965671
0.0403696
0.0364598
0.0942896
0.0297947
-0.0700394
0.0657624
0.0300385
0.0927895
0.142686
0.020605
0.0984358
-0.0922824
-0.0747179
0.102928
-0.00244873
0.0642317
0.109009
-0.0204514
0.0699636
-0.108506
0.00666106
-0.0653953
-0.0940622
-0.0634356
-0.0574585
-0.0537507
-0.0719643
-0.0297539
-0.0762437
-0.0865982
-0.104278
0.0305708
-0.0833512
-0.0852795
-0.00404646
-0.0796432
-0.0738293
0.0237708
-0.0795784
-0.0547473
0.0358293
-0.0796199
-0.04596
0.0468364
-0.0753418
-0.0315607
0.0568122
-0.0605492
-0.0226603
0.0613378
-0.0495312
-0.0144399
-0.0484114
-0.02268
-0.00884093
0.0201581
0.00902928
0.00216166
-0.00391398
0.0329059
0.0207298
-0.0102922
0.031489
0.0410464
0.0195554
0.0077295
0.0183129
0
0.0116976
0.00802334
0
0
-7.50128e-07
7.79061e-07
0
0
0
0
0
0
0
0
0
4.37782e-06
-5.71172e-05
0.000251423
2.03155e-05
-0.000331977
0.000337645
0.000193188
-0.000252204
-0.000469911
0
-0.000132063
0.000155564
0
0.0183113
-0.000621207
0
0
0
4.93144e-05
0
-1.211e-05
-6.48289e-05
2.69619e-05
6.91014e-05
0
-1.72555e-05
0
0
0
0
0
0
0
0
0
0
0
-7.3065e-07
2.36555e-07
0
0
0
0
0
0
0.00209333
0
0.0111391
0
0.00701984
0
0
0
0
0
0
0
0
1.0725e-05
0
0
0
0
0
0
0
0
0
0
0
-3.55546e-05
0
0
0
0
0
0
0
0
0
0
0
0
-1.97686e-06
0
0
0
0
0
0
0
0
0
0
0
0
0
-7.98188e-05
0
0
0
0
0
0
0
0
0
0
0
0
0
0
0
0
0
0
0
0
0
0
0
0
0
0
0
0
0
0
0
0
0
0
0
0
0
0
0
0
0
0
0
0
0
0
0
0
0
-1.32877e-06
3.72818e-11
0
0
0
0
0
0
-0.0256547
-0.0125155
-0.0126302
-0.00603281
-0.0325969
-0.0169989
-0.0209551
-0.0108918
-0.00402069
-0.0204069
-0.0857045
0.0132553
0.0102952
0.0165621
0.0219101
-0.0281345
0.00795866
-0.032011
0.00858985
-0.00555792
0.0437163
0.0122329
-0.00379579
0.0118855
-0.0169143
-0.000838074
0.0313653
0.0142423
0.0147068
0.00380007
0.00640587
0.00484481
-0.0202314
-0.00847555
0.0025407
-0.0085474
-0.00453882
0.014931
-0.00873446
-0.00416535
0.0185973
0.0249954
0.0200134
0.0385307
0
0
0
0
0
0
0
-0.00711331
-0.0448183
0
0
0
0
0
0
0
0
0
0
0
0
0
0
0
0
1.58059e-05
7.70718e-06