/*--------------------------------*- C++ -*----------------------------------*\
  =========                 |
  \\      /  F ield         | OpenFOAM: The Open Source CFD Toolbox
   \\    /   O peration     | Website:  https://openfoam.org
    \\  /    A nd           | Version:  8
     \\/     M anipulation  |
\*---------------------------------------------------------------------------*/
FoamFile
{
    version     2.0;
    format      ascii;
    class       volScalarField;
    location    "18180";
    object      SH;
}
// * * * * * * * * * * * * * * * * * * * * * * * * * * * * * * * * * * * * * //

dimensions      [0 1 0 0 0 0 0];

internalField   nonuniform List<scalar> 
526318
(
70.6828
70.6802
70.6769
70.6857
70.6848
70.6826
70.6794
70.6898
70.6821
70.6807
70.6803
70.6757
70.6797
70.673
70.6889
70.6834
70.6829
70.6825
70.671
70.6839
70.6757
70.6812
70.6842
70.6825
70.6697
70.6744
70.6832
70.6798
70.684
70.6819
70.6886
70.6839
70.6825
70.679
70.6711
70.6987
70.6774
70.6705
70.6744
70.6913
70.6736
70.6853
70.6826
70.678
70.6767
70.678
70.6791
70.6821
70.6809
70.6678
70.674
70.6866
70.6765
70.6804
70.6732
70.6794
70.6766
70.684
70.6741
70.6872
70.6895
70.6781
70.6746
70.6863
70.6755
70.6866
70.6696
70.6829
70.6801
70.6926
70.6784
70.6805
70.6798
70.6848
70.6776
70.6799
70.6767
70.6749
70.6868
70.6804
70.6841
70.6772
70.6797
70.6799
70.6821
70.676
70.675
70.6785
70.685
70.6786
70.6837
70.677
70.6797
70.685
70.6822
70.6775
70.6835
70.6818
70.6824
70.6809
70.6768
70.6828
70.6825
70.6839
70.6747
70.6714
70.6774
70.6807
70.6801
70.6772
70.6783
70.6857
70.6883
70.6733
70.6744
70.6806
70.6786
70.6864
70.6818
70.6794
70.6797
70.6797
70.6829
70.6795
70.6819
70.6811
70.6808
70.678
70.6806
70.6821
70.6787
70.6784
70.6819
70.6783
70.6818
70.6789
70.6781
70.6814
70.6816
70.6797
70.6808
70.6808
70.6789
70.6795
70.6804
70.6794
70.6795
70.6793
70.681
70.6795
70.6794
70.6833
70.6803
70.6817
70.6802
70.6804
70.6811
70.6826
70.6845
70.6835
70.6822
70.6793
70.6811
70.6797
70.6865
70.6796
70.6704
70.6856
70.6772
70.6807
70.6825
70.6845
70.6788
70.6739
70.6835
70.6807
70.6749
70.6759
70.6845
70.6864
70.6787
70.6862
70.6773
70.6816
70.6832
70.6819
70.6801
70.6815
70.6791
70.6813
70.6787
70.681
70.6786
70.679
70.68
70.6781
70.6794
70.6798
70.6787
70.6814
70.6812
70.6816
70.6799
70.6827
70.6819
70.6828
70.6817
70.6803
70.6806
70.6821
70.6775
70.6954
70.6837
70.6721
70.6868
70.682
70.6841
70.6689
70.685
70.681
70.68
70.677
70.6878
70.68
70.6823
70.6724
70.6909
70.6765
70.6879
70.6708
70.6884
70.6885
70.6737
70.6795
70.6781
70.6812
70.6774
70.6727
70.6881
70.6691
70.6891
70.686
70.6797
70.6766
70.671
70.6809
70.6763
70.685
70.6794
70.6793
70.6833
70.6762
70.6812
70.6852
70.6782
70.6806
70.6803
70.6828
70.6814
70.6802
70.6812
70.6727
70.6792
70.6791
70.6836
70.6775
70.6801
70.6799
70.6784
70.6827
70.6786
70.6863
70.6751
70.6774
70.6828
70.6785
70.6887
70.6709
70.6754
70.6834
70.6779
70.678
70.6803
70.6812
70.6784
70.6788
70.6812
70.6788
70.6813
70.6806
70.6791
70.679
70.6802
70.6813
70.6794
70.6813
70.68
70.6818
70.6795
70.6817
70.6792
70.6804
70.6797
70.6808
70.6812
70.6793
70.6809
70.6785
70.6795
70.6834
70.6802
70.6853
70.6795
70.685
70.6793
70.6831
70.6814
70.6816
70.6791
70.6791
70.671
70.6735
70.6841
70.6788
70.6771
70.6816
70.6755
70.6792
70.6805
70.6812
70.6834
70.6774
70.6742
70.6832
70.6746
70.6852
70.6772
70.6864
70.6878
70.68
70.6853
70.6795
70.6817
70.6807
70.6796
70.6806
70.6789
70.6806
70.6804
70.6792
70.679
70.6798
70.6776
70.6799
70.6806
70.6789
70.6817
70.6817
70.6812
70.6829
70.6829
70.6815
70.681
70.6808
70.6803
70.6817
70.6817
70.6803
70.6793
70.6816
70.6817
70.6815
70.6796
70.6795
70.6813
70.6795
70.6814
70.686
70.6706
70.6717
70.685
70.6657
70.6806
70.6688
70.6794
70.6873
70.6891
70.671
70.6807
70.679
70.6848
70.6755
70.6823
70.6848
70.6809
70.6752
70.6841
70.6805
70.6793
70.6883
70.6747
70.6714
70.6895
70.6725
70.6877
70.713
70.6797
70.6806
70.699
70.789
70.6872
70.6788
70.6816
70.6882
70.6755
70.6751
70.6889
70.6939
70.681
70.6827
70.6928
70.6787
70.6786
70.687
70.6784
70.68
70.6737
70.6847
70.6805
70.679
70.6835
70.6826
70.6801
70.6823
70.6785
70.6826
70.678
71.727
71.7771
71.7771
71.989
71.887
71.829
71.777
71.7771
71.7771
71.7771
70.718
71.092
70.954
71.071
70.757
70.895
70.6781
70.6742
70.6835
70.6809
70.6793
70.6831
70.6797
70.6804
70.6829
70.6772
70.6776
70.684
70.6787
70.6864
70.6793
70.6751
70.6863
70.6801
70.6802
70.6894
70.6791
70.6761
70.6814
70.6781
70.6792
70.6812
70.6804
70.6799
70.6793
70.6803
70.6786
70.6799
70.6792
70.6782
70.6796
70.68
70.6788
70.68
70.6781
70.6793
70.68
70.6813
70.681
70.6808
70.6806
70.6805
70.6788
70.6823
70.6797
70.6825
70.68
70.6823
70.6818
70.6813
70.6801
70.68
70.6806
70.6801
70.6802
70.6798
70.6807
70.6794
70.6813
70.68
70.6805
70.6811
70.6797
70.6791
70.6807
70.6764
70.6802
70.6882
70.676
70.6787
70.6844
70.6848
70.6811
70.6779
70.6811
70.6817
70.6756
70.6835
70.6741
70.6756
70.6862
70.6873
70.6875
70.6794
70.6807
70.6841
70.682
70.6788
70.6822
70.6806
70.6785
70.6803
70.6791
70.6806
70.6795
70.6789
70.68
70.68
70.6779
70.6793
70.6807
70.6817
70.6809
70.6798
70.6823
70.6797
70.6826
70.6811
70.6808
70.6813
70.6797
70.68
70.6813
70.6812
70.6793
70.6807
70.6796
70.6812
70.6795
70.6801
70.6813
70.6801
70.6802
70.6809
70.6839
70.6801
70.6781
70.6767
70.7032
70.6841
70.6934
70.6882
70.6726
70.6838
70.6756
70.6817
70.6789
70.6785
70.682
70.6809
70.6841
70.6805
70.6862
70.6776
70.6839
70.6865
70.6786
70.6698
70.692
70.6888
70.6714
70.775
70.875
70.789
70.789
70.688
70.878
70.6834
70.6681
70.6895
70.6743
71.286
71.194
71.265
71.378
71.067
71.281
71.8
71.862
71.839
71.822
71.8451
71.766
71.766
71.8451
71.8451
71.8451
71.962
72.002
71.636
71.89
71.813
71.619
71.722
71.816
72.099
72.016
71.998
71.95
72.108
72.108
70.681
70.684
70.6868
70.6786
70.6825
70.691
70.6781
70.6754
70.6851
70.6757
70.6751
70.6861
70.6835
70.6787
70.682
70.6819
70.6827
70.679
70.6784
70.6806
70.6781
70.684
71.657
71.713
71.576
71.663
71.651
71.575
71.753
71.677
71.638
71.548
71.479
71.558
71.427
71.713
71.549
71.549
71.286
71.154
71.246
71.43
71.153
71.153
71.104
71.007
70.777
70.6742
70.6793
70.6782
70.6888
70.6799
70.6801
70.6827
70.6794
70.6831
70.6857
70.6781
70.6863
70.68
70.6782
70.6865
70.6794
70.6798
70.6798
70.6824
70.6878
70.6826
70.6734
70.6705
71.6431
71.6
71.734
71.855
71.52
71.534
71.549
71.549
71.812
71.681
71.68
71.812
71.479
71.87
71.734
71.609
71.876
70.6813
70.6792
70.68
70.6807
70.6806
70.6793
70.6795
70.6797
70.6788
70.6788
70.6784
70.6794
70.6792
70.6785
70.6784
70.6788
70.6792
70.6805
70.681
70.6801
70.6821
70.6815
70.6799
70.68
70.68
70.6793
70.6799
70.6795
70.6805
70.6804
70.681
70.6826
70.6806
70.6799
70.6805
70.6798
70.68
70.6794
70.6797
70.6806
70.6813
70.6798
70.68
70.6795
70.679
70.6795
70.6801
70.6802
70.679
70.6802
70.6806
70.6801
70.6859
70.6844
70.678
70.672
70.6775
70.6832
70.6765
70.6766
70.6784
70.681
70.681
70.6798
70.681
70.6754
70.6741
70.6836
70.6765
70.6864
70.687
70.686
70.6799
70.6812
70.6787
70.6826
70.6786
70.6801
70.6793
70.6782
70.6781
70.6821
70.6811
70.6797
70.6795
70.6793
70.6788
70.6796
70.6802
70.6804
70.6796
70.6821
70.6783
70.682
70.6825
70.6782
70.6805
70.6804
70.6789
70.681
70.6801
70.6797
70.6805
70.6793
70.6795
70.6793
70.6809
70.6797
70.6814
70.6802
70.6814
70.6801
70.6798
70.6807
70.6813
70.6807
70.6798
70.6821
70.6802
70.6801
70.6814
70.68
70.6816
70.6819
70.6805
70.6818
70.6819
70.6806
70.6808
70.6806
70.6816
70.6818
70.6808
70.6807
70.6814
70.6807
70.6815
70.681
70.681
70.6805
70.6812
70.6814
70.6806
70.6811
70.6804
70.6808
70.6818
70.6803
70.6806
70.6801
70.6819
70.6805
70.6798
70.6765
70.6829
70.6863
70.678
70.6792
70.6809
70.6668
70.6752
70.6798
70.6768
70.6806
70.6788
70.6807
70.6803
70.6796
70.6799
70.6827
70.6814
70.6835
70.6813
70.6849
70.6806
70.6814
70.6777
70.6793
70.671
70.6938
70.6755
70.6838
71.005
70.827
70.915
70.966
70.818
71.055
70.6811
70.6778
70.6632
70.6856
71.429
71.521
71.664
71.807
71.4294
71.394
71.292
71.468
71.858
71.858
72.074
72.103
71.876
71.866
71.914
71.903
71.876
71.876
71.55
71.831
71.596
71.736
71.69
71.831
71.588
71.864
71.864
71.87
71.858
71.763
71.858
71.858
71.763
71.858
71.858
71.858
71.856
71.858
71.838
71.84
71.749
71.826
71.965
71.889
72.079
72.02
72.18
72.196
71.894
71.977
72.061
72.108
72.122
72.108
72.171
72.171
70.679
70.6684
70.6864
70.6746
70.6832
70.6773
70.6853
70.6821
70.6836
70.6862
70.683
70.6799
70.6826
70.6794
70.6796
70.6825
70.6801
70.6789
70.678
70.6792
70.6846
70.6799
71.476
71.462
71.4341
71.4341
71.486
71.537
71.497
71.472
71.4341
71.407
71.417
71.549
71.383
71.446
71.205
71.073
71.017
70.986
70.931
70.787
70.6829
70.679
70.6835
70.6807
70.6815
70.6829
70.6818
70.6822
70.6835
70.6789
70.6778
70.6846
70.6788
70.6835
70.6863
70.6815
70.681
70.6774
70.6643
70.6808
70.6899
70.6764
70.6832
70.6797
71.476
71.476
71.462
71.478
71.477
71.4812
71.477
71.48
71.4812
71.448
71.462
71.437
71.437
71.715
71.623
71.482
71.482
71.574
71.626
71.735
71.951
72.109
71.471
71.438
71.4382
71.437
70.6807
70.6799
70.6815
70.6785
70.6808
70.6788
70.6792
70.6796
70.6798
70.679
70.6805
70.6794
70.6786
70.6791
70.6795
70.6794
70.6799
70.6799
70.6802
70.6794
70.6795
70.6812
70.6797
70.6793
70.6797
70.6797
70.6802
70.68
70.6809
70.6812
70.6806
70.679
70.6824
70.6801
70.6813
70.6794
70.6808
70.6785
70.6826
70.6799
70.6803
70.682
70.6825
70.6804
70.6815
70.6803
70.6804
70.6813
70.6816
70.6811
70.6819
70.682
70.6829
70.682
70.6833
70.6816
70.68
70.6811
70.679
70.6791
70.6806
70.6826
70.6787
70.6791
70.678
70.6801
70.6781
70.6801
70.6781
70.6794
70.6802
70.6785
70.6845
70.6821
70.6793
70.6733
70.6834
70.6808
70.6844
70.673
70.679
70.6816
70.6789
70.68
70.6803
70.6752
70.6742
70.684
70.6868
70.6777
70.6835
70.6787
70.686
70.6784
70.6774
70.6796
70.6772
70.6785
70.6778
70.6817
70.682
70.6792
70.6793
70.6814
70.6795
70.679
70.6796
70.6798
70.6813
70.68
70.6792
70.6821
70.6776
70.6815
70.6817
70.678
70.6798
70.6795
70.6786
70.6801
70.6789
70.6792
70.6796
70.6797
70.6795
70.6786
70.6807
70.6805
70.6806
70.6814
70.6814
70.6802
70.6808
70.6798
70.681
70.6803
70.6801
70.6815
70.682
70.6808
70.6821
70.681
70.6816
70.6808
70.681
70.6804
70.6803
70.68
70.6801
70.6799
70.68
70.6802
70.6798
70.68
70.6784
70.6792
70.6798
70.6793
70.6785
70.6796
70.679
70.6792
70.6789
70.6795
70.6793
70.6849
70.6806
70.6847
70.6827
70.6815
70.6818
70.6843
70.6816
70.6808
70.677
70.6782
70.6833
70.684
70.679
70.6811
70.6783
70.6811
70.6819
70.6805
70.6848
70.682
70.683
70.6821
70.6784
70.6804
70.6791
70.6748
70.6767
70.6793
70.6783
70.6823
71.021
71.219
71.072
71.055
70.873
71.063
70.772
70.918
70.6811
70.829
71.572
71.4294
71.736
71.879
71.519
71.593
71.684
71.486
71.922
71.938
72.1491
72.179
72.006
71.958
72.129
72.154
71.975
72.063
71.873
71.872
72.005
72.101
71.989
71.975
71.99
72.107
71.99
72.122
71.984
72.066
72.11
72.16
72.213
72.196
72.196
72.194
72.133
72.093
72.275
72.267
72.231
72.267
72.363
72.363
70.6766
70.6742
70.6921
70.6791
70.6909
70.68
70.6827
70.673
70.6837
70.6775
70.6814
70.6809
70.6827
70.6791
70.6809
70.6802
70.6808
70.681
70.6804
70.6782
70.6761
70.6836
71.4341
71.448
71.4341
71.434
71.28
71.317
71.354
71.289
71.345
71.398
71.234
71.343
71.24
71.24
71.015
70.9
70.893
70.893
70.862
70.687
70.6778
70.678
70.679
70.6821
70.6841
70.6807
70.6815
70.6824
70.6837
70.6769
70.6794
70.6828
70.6813
70.6781
70.6763
70.6823
70.6875
70.6797
70.6755
70.6736
70.6874
70.6696
70.6839
70.6851
71.257
71.336
71.383
71.316
71.411
71.298
71.366
71.43
71.445
71.227
71.305
71.386
71.407
71.403
71.373
72.08
72.16
71.901
72.216
71.437
71.436
71.437
71.4381
71.396
71.347
71.416
71.631
71.299
71.336
71.337
71.303
70.6812
70.679
70.6789
70.6812
70.68
70.6795
70.6798
70.6799
70.6815
70.6793
70.6809
70.6802
70.6798
70.6789
70.6793
70.6797
70.6801
70.6794
70.6793
70.6781
70.6789
70.6777
70.6787
70.6802
70.6773
70.6796
70.6807
70.6805
70.6781
70.6785
70.6817
70.6807
70.6803
70.6781
70.6807
70.678
70.6816
70.6811
70.677
70.6833
70.6805
70.6848
70.6796
70.6779
70.6787
70.6849
70.6826
70.6803
70.6805
70.6795
70.6791
70.6804
70.6799
70.68
70.6797
70.6818
70.6802
70.6791
70.6805
70.6799
70.68
70.6813
70.6829
70.6821
70.6797
70.6784
70.6788
70.6787
70.6784
70.6802
70.683
70.6803
70.6824
70.6793
70.6783
70.6818
70.683
70.6799
70.6801
70.6816
70.6801
70.6822
70.6802
70.6811
70.6807
70.6814
70.682
70.6821
70.6833
70.6828
70.6839
70.683
70.6835
70.6825
70.6807
70.6797
70.682
70.6816
70.6792
70.6783
70.6776
70.6786
70.6785
70.681
70.6782
70.6788
70.679
70.6787
70.6791
70.6799
70.6796
70.6797
70.6793
70.6795
70.6796
70.6792
70.6793
70.6802
70.6788
70.6768
70.6807
70.6798
70.6803
70.6815
70.6831
70.6789
70.6783
70.6802
70.6868
70.6887
70.6751
70.6843
70.6812
70.6759
70.6811
70.6813
70.6801
70.6792
70.6791
70.6751
70.6802
70.6833
70.6744
70.6777
70.6881
70.6814
70.6786
70.6856
70.6771
70.6787
70.677
70.6794
70.6791
70.6813
70.6803
70.6821
70.6795
70.6793
70.68
70.6794
70.6795
70.6806
70.6806
70.6815
70.681
70.6813
70.6803
70.6782
70.68
70.6794
70.68
70.679
70.6788
70.6788
70.6787
70.6784
70.6792
70.6795
70.6804
70.68
70.6787
70.681
70.6804
70.681
70.6809
70.6812
70.6804
70.6811
70.6802
70.6804
70.6814
70.682
70.6806
70.6821
70.681
70.6817
70.6811
70.6806
70.6809
70.68
70.68
70.6799
70.6795
70.6803
70.68
70.6805
70.6804
70.6803
70.6806
70.6802
70.6801
70.6799
70.68
70.6857
70.6854
70.6813
70.6843
70.6759
70.6826
70.6754
70.6769
70.672
70.6783
70.6822
70.6767
70.6893
70.686
70.6736
70.6821
70.6831
70.6771
70.6798
70.6837
70.6819
70.6845
70.6839
70.6803
70.6817
70.6767
70.6834
70.6794
70.6818
70.6784
70.6865
70.6704
70.6921
71.202
71.417
71.237
71.115
71.191
71.198
71.267
71.049
70.6788
70.87
71.753
71.679
72.015
71.988
71.77
71.7
71.615
71.7014
72.15
72.087
72.361
72.295
72.187
72.205
72.23
72.247
72.231
72.229
72.121
72.136
72.254
72.252
72.239
72.239
72.254
72.254
72.367
72.223
72.391
72.329
72.472
72.36
72.568
72.544
72.358
72.522
72.104
72.456
72.257
72.238
72.221
72.397
72.321
72.362
72.276
72.3961
72.386
72.443
72.409
72.409
72.3961
70.6872
70.682
70.6711
70.6807
70.6804
70.6819
70.685
70.6824
70.6783
70.674
70.6757
70.6793
70.6881
70.6852
70.6799
70.6807
70.6768
70.675
70.6871
70.6802
70.6812
70.68
70.6814
70.6801
70.6786
71.212
71.323
71.213
71.288
71.213
71.224
71.253
71.154
71.172
71.24
71.124
71.123
71.151
70.6813
70.6787
70.6827
70.856
70.972
70.808
70.801
70.6809
70.6785
70.6788
70.68
70.6791
70.6804
70.6827
70.6751
70.6825
70.6818
70.6768
70.6776
70.6753
70.6793
70.6799
70.6806
70.6827
70.6742
70.6895
70.6871
70.6753
70.6805
70.6707
71.101
71.0992
71.131
71.19
71.13
71.154
71.168
71.086
71.095
71.235
71.139
71.06
71.035
71.104
71.22
71.098
71.151
72.069
72.19
72.069
72.343
71.788
71.654
71.944
71.99
71.388
71.349
71.185
71.236
71.217
71.218
71.364
71.467
71.077
71.187
71.033
71.033
70.6811
70.6811
70.6794
70.6805
70.6805
70.68
70.6806
70.6801
70.6804
70.6806
70.6796
70.6807
70.68
70.6784
70.6797
70.6784
70.6803
70.6804
70.681
70.6778
70.6785
70.6762
70.6762
70.6774
70.6776
70.6809
70.6792
70.6824
70.682
70.6792
70.6828
70.6778
70.6808
70.6818
70.6814
70.6812
70.6812
70.6814
70.6827
70.6842
70.6777
70.676
70.6777
70.6885
70.6866
70.681
70.679
70.6798
70.682
70.6823
70.6799
70.6779
70.6803
70.6791
70.6791
70.6782
70.6795
70.6804
70.6782
70.6824
70.6799
70.6793
70.6825
70.6819
70.6788
70.6796
70.6823
70.6797
70.681
70.6806
70.6794
70.6816
70.681
70.6803
70.6796
70.6809
70.6813
70.6818
70.6827
70.6827
70.6835
70.6834
70.6835
70.6833
70.683
70.6825
70.6804
70.6801
70.6813
70.682
70.6788
70.6787
70.6788
70.6803
70.6796
70.68
70.6792
70.6815
70.6799
70.6797
70.6799
70.6807
70.6799
70.6805
70.6802
70.6794
70.6795
70.679
70.6792
70.6787
70.6786
70.6796
70.6792
70.6782
70.68
70.6775
70.6782
70.6804
70.68
70.681
70.6796
70.6792
70.679
70.679
70.6797
70.6824
70.6825
70.6871
70.6893
70.6844
70.6867
70.6766
70.6847
70.678
70.6813
70.6811
70.6779
70.68
70.6793
70.6804
70.6725
70.6749
70.6848
70.6884
70.678
70.6793
70.6807
70.6833
70.6792
70.6801
70.678
70.6793
70.6817
70.6793
70.6815
70.6797
70.6796
70.679
70.6795
70.6805
70.6797
70.6812
70.6817
70.6821
70.6814
70.6813
70.6804
70.6784
70.6793
70.6788
70.6802
70.6788
70.6785
70.6779
70.6792
70.6787
70.6793
70.6794
70.6806
70.6788
70.6799
70.6798
70.6806
70.6805
70.6807
70.6809
70.6811
70.6803
70.6818
70.6803
70.682
70.6808
70.681
70.6817
70.6807
70.6807
70.6802
70.6798
70.679
70.6799
70.6792
70.6804
70.6803
70.6811
70.6813
70.6812
70.681
70.6813
70.681
70.68
70.682
70.6752
70.6835
70.679
70.6724
70.6829
70.6755
70.6822
70.6729
70.6848
70.6841
70.6723
70.6844
70.6901
70.6818
70.6786
70.708
70.708
70.6815
70.6793
70.673
70.6767
70.6841
70.683
70.745
70.734
70.723
70.6799
70.6776
70.747
70.6718
70.6958
70.6617
70.6734
70.6912
71.518
71.681
71.471
71.273
71.305
71.305
71.3063
71.088
70.988
70.77
71.915
72.06
72.136
72.136
71.845
71.7012
71.769
71.835
72.214
72.136
72.4983
72.477
72.248
72.248
72.351
72.344
72.274
72.272
72.254
72.254
72.341
72.32
72.254
72.254
72.466
72.353
72.799
72.746
72.6647
72.664
72.6647
72.68
72.808
72.952
72.316
72.163
72.497
72.497
72.551
72.596
72.641
72.282
72.475
72.408
72.529
72.439
72.451
72.515
72.4983
72.421
72.335
72.476
72.442
72.477
72.443
72.502
72.489
70.7064
70.6752
70.6776
70.6866
70.6845
70.6811
70.6786
70.6821
70.6801
70.6829
70.678
70.6791
70.6885
70.6805
70.6858
70.6812
70.6764
70.6756
70.6913
70.6827
70.6778
70.6736
70.6817
70.6842
70.68
70.6811
70.6818
71.102
71.102
71.079
71.102
71.034
71.054
71.035
70.6829
70.6838
70.6768
70.974
71.037
70.948
70.972
70.681
70.6795
70.738
70.795
70.712
70.6807
70.6798
70.6807
70.6816
70.6776
70.6825
70.6814
70.691
70.6909
70.6758
70.6803
70.6791
70.6766
70.6789
70.6748
70.6818
70.6821
70.6732
70.6707
70.6752
70.6832
70.6877
71.09
71.089
71.0992
71.097
71.098
71.097
71.094
71.0692
71.081
71.06
71.06
70.981
71.008
70.999
71.025
70.98
70.98
70.98
70.98
71.97
71.89
72.069
71.991
71.963
72.05
71.885
72.311
72.146
72.341
71.677
71.6001
71.524
71.734
71.061
71.083
70.958
70.98
70.926
70.921
71.036
71.27
70.852
70.847
70.98
70.98
70.6812
70.6793
70.681
70.681
70.6805
70.6804
70.6825
70.681
70.681
70.6796
70.6804
70.677
70.6808
70.6824
70.6805
70.6797
70.6803
70.6816
70.6802
70.6797
70.6817
70.6767
70.6761
70.6766
70.6755
70.68
70.678
70.682
70.6821
70.6837
70.682
70.6803
70.6792
70.6791
70.6796
70.6818
70.6799
70.6807
70.6807
70.6862
70.6797
70.693
70.6802
70.688
70.6892
70.6625
70.6813
70.6488
70.6845
70.665
70.6922
70.6912
70.698
70.6788
70.681
70.6795
70.6808
70.6803
70.6824
70.681
70.6878
70.6797
70.6787
70.6797
70.678
70.6783
70.6798
70.6817
70.6794
70.6793
70.6819
70.6795
70.6816
70.6795
70.6815
70.6793
70.681
70.6811
70.6795
70.6804
70.6813
70.681
70.6798
70.682
70.6814
70.6825
70.6821
70.6822
70.683
70.6821
70.6831
70.6826
70.6818
70.68
70.6805
70.6814
70.6813
70.6802
70.6801
70.6802
70.6811
70.6808
70.6805
70.6815
70.6801
70.6811
70.6816
70.6825
70.6809
70.6814
70.6811
70.6807
70.6798
70.6803
70.6794
70.68
70.6795
70.6794
70.6792
70.6785
70.6789
70.678
70.679
70.6798
70.6769
70.6788
70.6782
70.6779
70.6794
70.6808
70.6791
70.6793
70.6798
70.681
70.6909
70.6925
70.6804
70.6828
70.6879
70.6848
70.6783
70.6726
70.6797
70.6801
70.6826
70.6722
70.6734
70.6828
70.6826
70.676
70.6814
70.6864
70.6859
70.6785
70.6777
70.6815
70.68
70.6798
70.6796
70.6811
70.68
70.6817
70.6807
70.6782
70.6784
70.6809
70.6803
70.6816
70.6814
70.6822
70.6819
70.6811
70.6798
70.6799
70.6808
70.6793
70.6778
70.6786
70.6784
70.6789
70.6791
70.678
70.6788
70.679
70.6788
70.6799
70.6782
70.6791
70.68
70.6792
70.6803
70.6802
70.6812
70.6803
70.6818
70.6807
70.6817
70.6811
70.6809
70.6809
70.6798
70.6803
70.68
70.6788
70.6786
70.6803
70.6795
70.6811
70.6806
70.6819
70.6819
70.6815
70.6817
70.723
70.734
70.7149
70.745
70.6823
70.6842
70.6941
70.6683
70.6905
70.687
70.6668
70.6886
70.6794
70.6821
70.6868
70.6848
70.674
70.6586
70.6616
70.7147
70.723
70.851
70.782
70.745
70.791
70.745
70.745
70.775
70.764
70.964
70.987
71.181
71.064
70.952
71.069
70.9532
70.929
71.704
71.904
71.441
71.642
71.441
71.3059
71.423
71.347
71.565
71.346
71.204
72.024
72.17
72.233
72.2
71.86
71.97
71.907
71.929
72.263
72.321
72.513
72.513
72.451
72.379
72.558
72.551
72.494
72.455
72.353
72.419
72.548
72.534
72.56
72.559
72.841
72.915
73.097
73.081
72.685
72.663
72.813
72.92
73.048
73.065
72.534
72.557
72.623
72.668
72.561
72.749
72.381
72.535
72.546
72.765
72.6
72.642
72.819
72.449
72.332
72.438
72.418
72.444
72.718
72.547
72.424
72.366
72.576
72.538
72.562
72.592
72.584
72.543
72.473
72.568
72.5741
72.599
72.588
72.637
72.594
70.6823
70.6795
70.6816
70.6885
70.6818
70.6806
70.6827
70.6792
70.683
70.6809
70.6846
70.6787
70.6791
70.6815
70.7138
70.6859
70.6796
70.6724
70.6814
70.6833
70.6779
70.6719
70.6825
70.6851
70.6821
70.6803
70.6813
70.6815
70.6801
71.102
71.09
71.071
71.028
70.6843
70.6836
70.6778
70.97
70.982
70.6815
70.6807
70.858
70.769
70.863
70.95
70.6792
70.6824
70.704
70.704
70.6828
70.704
70.682
70.6759
70.6798
70.6703
70.6763
70.6861
70.6701
70.6814
70.6763
70.6822
70.6758
70.6774
70.6847
70.6861
70.68
70.686
70.6815
70.6857
70.6722
70.983
70.9841
70.878
70.868
70.973
70.972
70.847
70.956
70.844
70.816
70.932
70.791
70.884
70.859
70.867
70.706
70.704
70.76
70.872
70.868
70.76
71.657
71.644
71.801
71.822
71.716
71.625
71.834
71.848
71.995
72.195
72.294
72.103
72.396
72.15
71.444
71.6001
71.189
71.6001
70.905
70.852
70.967
70.914
70.821
70.821
70.871
70.974
70.853
70.808
70.813
70.714
72.374
72.62
72.739
72.831
72.816
72.877
70.6813
70.6812
70.6794
70.6801
70.6815
70.6812
70.6814
70.6824
70.6828
70.6819
70.6813
70.6787
70.6813
70.6815
70.6799
70.6822
70.682
70.6789
70.678
70.678
70.6811
70.6796
70.6817
70.6792
70.6788
70.6805
70.6785
70.6779
70.6785
70.6806
70.6817
70.6821
70.6799
70.6807
70.68
70.6804
70.6814
70.68
70.6784
70.6767
70.6781
70.6535
70.6831
70.6714
70.6743
70.681
70.6578
70.7414
70.7087
70.6791
70.646
70.6742
70.6672
70.6934
70.6801
70.6787
70.6812
70.6794
70.6785
70.6804
70.6851
70.6808
70.6788
70.6796
70.6792
70.6785
70.6786
70.6791
70.6813
70.6799
70.6797
70.6814
70.6816
70.6801
70.6816
70.6804
70.68
70.681
70.6805
70.6813
70.6805
70.6813
70.6804
70.6809
70.681
70.6815
70.6817
70.681
70.6812
70.6819
70.6815
70.6819
70.6818
70.6816
70.6802
70.6803
70.6815
70.6807
70.6802
70.6809
70.6811
70.6805
70.6798
70.6803
70.6801
70.6815
70.6819
70.6808
70.6826
70.6805
70.6812
70.6792
70.6814
70.6819
70.6816
70.6805
70.6812
70.6804
70.68
70.6808
70.6806
70.6801
70.6801
70.6795
70.6792
70.6787
70.6781
70.678
70.6798
70.68
70.6796
70.6781
70.6797
70.6795
70.6794
70.6796
70.6794
70.6805
70.6811
70.6847
70.6922
70.6824
70.6799
70.6897
70.6828
70.6764
70.6773
70.6826
70.6737
70.6783
70.6803
70.6767
70.6829
70.6728
70.6911
70.6708
70.6899
70.6775
70.6869
70.6756
70.6837
70.6791
70.6802
70.6828
70.6814
70.6787
70.6807
70.6785
70.6819
70.6818
70.6794
70.6806
70.682
70.6816
70.6808
70.6804
70.6809
70.6794
70.6792
70.6798
70.679
70.6789
70.6784
70.6785
70.6787
70.6786
70.6787
70.6781
70.6787
70.6792
70.6779
70.6789
70.6774
70.6799
70.6787
70.6799
70.6804
70.681
70.6809
70.6815
70.6811
70.6813
70.681
70.6805
70.6804
70.6801
70.6795
70.6788
70.6802
70.6789
70.6808
70.6798
70.6817
70.6822
70.6807
70.682
70.6813
70.785
70.808
70.757
70.779
70.778
70.754
70.779
70.6817
70.782
70.6882
70.6798
70.696
70.6671
70.6766
70.6812
70.6825
70.6704
70.6649
70.6763
70.6596
70.6583
70.906
70.875
70.919
70.85
70.84
70.781
70.902
70.897
71.008
71.019
71.303
71.303
71.186
71.303
70.953
71.069
71.017
71.027
71.9098
71.843
71.858
71.657
71.565
71.663
71.706
71.706
71.588
71.73
71.445
71.303
72.179
72.297
72.327
72.327
72.115
71.975
71.953
71.9095
72.401
72.49
72.659
72.663
72.578
72.5693
72.5693
72.5693
72.588
72.598
72.796
72.705
72.669
72.791
73.024
72.979
73.099
73.099
73.093
73.11
72.766
72.933
73.04
73.048
73.126
73.098
72.843
72.811
72.949
72.892
73.143
73.018
73.204
73.002
72.684
72.853
72.599
72.692
72.986
73.057
72.868
72.917
72.734
72.73
72.852
72.653
72.7
72.761
72.728
72.5796
72.594
72.5941
72.6
72.6861
72.723
72.662
72.619
70.6814
70.6818
70.6802
70.6797
70.6811
70.6841
70.6837
70.6726
70.6872
70.6878
70.6799
70.6765
70.68
70.6804
70.6681
70.6804
70.6807
70.6851
70.6914
70.6843
70.6811
70.6784
70.6769
70.6862
70.6834
70.6821
70.6782
70.6769
70.6799
70.6821
70.6809
70.6807
70.6809
70.89
70.965
70.6798
70.6828
70.6849
70.842
70.902
70.6825
70.6828
70.81
70.871
70.679
70.684
70.74
70.6793
70.729
70.773
70.6797
70.6794
70.6818
70.6802
70.6812
70.6797
70.6783
70.6818
70.6893
70.6844
70.6713
70.6821
70.6793
70.6791
70.6808
70.6769
70.6855
70.6767
70.6769
70.682
70.784
70.784
70.784
70.772
70.751
70.73
70.7221
70.7221
70.719
70.693
70.677
70.6772
70.6804
70.6825
70.6812
70.6786
70.6812
70.6755
70.6811
70.6813
70.6783
70.6828
70.6733
71.503
71.515
71.6001
71.463
71.553
71.391
71.391
71.903
71.727
71.959
72.001
72.001
72.227
72.1
71.287
71.072
71.131
71.444
70.732
70.693
70.6822
70.6808
70.6791
70.653
70.815
70.931
70.6788
70.6826
70.6863
70.6818
72.381
72.354
72.5
72.753
72.95
73.137
73.19
73.376
73.299
73.453
70.6799
70.6815
70.6819
70.6809
70.68
70.6794
70.6811
70.6805
70.6796
70.6825
70.683
70.6812
70.6816
70.6808
70.6831
70.6789
70.6763
70.6809
70.6808
70.6796
70.6774
70.6825
70.678
70.6823
70.6804
70.682
70.6823
70.6838
70.6832
70.6808
70.6802
70.6827
70.6812
70.6815
70.6847
70.6827
70.6829
70.6759
70.6804
70.6762
70.676
70.6777
70.6809
70.7433
70.6808
70.708
70.6835
70.6294
70.6787
70.665
70.6982
70.69
70.6785
70.6719
70.6805
70.684
70.6795
70.679
70.6794
70.6799
70.681
70.6809
70.6844
70.6567
70.6809
70.6795
70.6792
70.6793
70.6785
70.6789
70.6792
70.6818
70.6812
70.6806
70.682
70.6804
70.6823
70.6815
70.6822
70.6811
70.6809
70.6814
70.6816
70.6805
70.6806
70.6803
70.6809
70.6802
70.6802
70.6802
70.6803
70.6807
70.6808
70.681
70.6815
70.6819
70.6807
70.6797
70.6808
70.6802
70.6813
70.6799
70.6789
70.6805
70.6796
70.6783
70.6791
70.6797
70.6816
70.6795
70.6808
70.6807
70.68
70.6795
70.6816
70.6812
70.6812
70.681
70.6807
70.6809
70.6804
70.6806
70.6802
70.6807
70.68
70.6793
70.6795
70.679
70.678
70.6778
70.6804
70.6786
70.6808
70.6802
70.6795
70.6806
70.6803
70.68
70.6799
70.6797
70.6942
70.6791
70.6932
70.6809
70.6771
70.6803
70.6777
70.6837
70.6815
70.6798
70.6773
70.6871
70.6847
70.6737
70.6803
70.678
70.6851
70.6879
70.6792
70.6788
70.6811
70.6828
70.6804
70.682
70.6798
70.6817
70.6807
70.6792
70.6798
70.6825
70.6801
70.6816
70.6801
70.6816
70.681
70.68
70.6801
70.6793
70.6787
70.6785
70.6792
70.6784
70.6788
70.6791
70.679
70.6781
70.678
70.6793
70.6774
70.6791
70.6774
70.6797
70.6769
70.6797
70.6784
70.6807
70.6812
70.6797
70.6813
70.6809
70.6811
70.6813
70.6812
70.6806
70.6806
70.6802
70.68
70.6801
70.6805
70.6795
70.6812
70.6796
70.6801
70.6816
70.6817
70.6805
70.6809
70.6815
71.03
71.028
70.931
70.993
70.892
70.958
70.846
70.847
70.886
70.969
70.928
70.756
70.7012
71.022
71.022
70.6833
70.6774
70.6712
70.6565
70.6931
70.7119
70.701
70.6852
71.088
71.0772
70.99
71.099
71.053
71.024
71.11
71.1104
71.099
71.11
71.341
71.341
71.395
71.24
71.132
71.228
71.213
71.237
71.992
72.008
72.093
71.949
71.874
71.73
71.73
71.73
71.766
71.624
71.417
71.557
72.3273
72.233
72.401
72.3273
72.083
72.223
72.122
72.078
72.5796
72.49
72.7232
72.732
72.587
72.597
72.671
72.738
72.892
72.83
73.094
72.997
73.153
73.136
73.194
73.233
73.205
73.288
73.236
73.297
72.985
73.015
73.131
73.207
73.317
73.316
72.959
72.963
72.91
72.959
73.724
73.578
73.53
73.599
73.253
73.392
73.115
73.06
72.862
72.813
72.84
72.853
73.007
73.078
73.092
72.985
72.983
73.854
73.838
73.871
73.696
72.822
72.798
72.798
72.765
72.594
72.5941
72.662
72.643
72.699
72.7232
72.801
72.795
70.6801
70.6804
70.6811
70.6849
70.6804
70.6824
70.6806
70.6818
70.6819
70.6827
70.6775
70.6825
70.6794
70.6887
70.6746
70.6808
70.6873
70.6894
70.6839
70.6719
70.6774
70.6807
70.6822
70.6803
70.6825
70.6719
70.6769
70.6807
70.6731
70.6811
70.6791
70.6787
70.6828
70.6787
70.679
70.6796
70.6798
70.6812
70.6843
70.6812
70.6836
70.78
70.763
70.6834
70.6834
70.746
70.733
70.6843
70.6808
70.733
70.713
70.6795
70.6793
70.6775
70.6788
70.6804
70.6818
70.6778
70.6777
70.6746
70.6834
70.6779
70.6786
70.6794
70.6847
70.6805
70.6826
70.6856
70.6818
70.6801
70.6789
70.6805
70.78
70.784
70.772
70.784
70.73
70.751
70.7221
70.722
70.722
70.696
70.6793
70.6807
70.6805
70.6823
70.6773
70.6805
70.6756
70.6855
70.6784
70.6807
70.6913
70.6806
70.6787
70.6887
71.303
71.43
71.232
71.3487
71.391
71.391
71.3487
71.464
71.637
71.856
71.71
71.955
71.966
72.238
72.435
72.55
72.15
70.972
71.114
71.131
71.076
70.6808
70.6816
70.6793
70.6826
70.6795
70.6793
70.6772
70.695
70.6802
70.6788
70.6773
70.6818
74.075
74.013
73.941
73.97
72.788
72.871
73.177
73.109
73.397
73.466
73.633
73.668
73.835
73.874
73.979
73.93
70.6816
70.6808
70.6789
70.6815
70.6815
70.6799
70.6809
70.6796
70.6787
70.6803
70.6781
70.6831
70.6827
70.6851
70.683
70.6845
70.6803
70.6804
70.6753
70.6813
70.6839
70.6847
70.6823
70.6808
70.6796
70.6831
70.6832
70.6827
70.6819
70.6832
70.6827
70.6803
70.6797
70.6831
70.6831
70.684
70.6822
70.6765
70.6779
70.6771
70.6772
70.6805
70.679
70.6801
70.678
70.6878
70.6725
70.698
70.6824
70.6771
70.6852
70.6763
70.6761
70.6858
70.6827
70.6782
70.6796
70.6819
70.6816
70.6788
70.679
70.679
70.6799
70.6802
70.6787
70.6811
70.6838
70.688
70.6812
70.6803
70.6792
70.6798
70.6794
70.6801
70.6822
70.6819
70.6814
70.6827
70.6809
70.6826
70.6822
70.682
70.6816
70.6805
70.6812
70.682
70.6795
70.6804
70.6805
70.6797
70.6792
70.6798
70.6798
70.6794
70.6804
70.6801
70.6804
70.6814
70.6805
70.6815
70.6808
70.6799
70.6808
70.6788
70.6784
70.68
70.6787
70.6782
70.6789
70.6817
70.6797
70.6805
70.6798
70.6795
70.6803
70.6796
70.6808
70.6809
70.681
70.6807
70.6806
70.6805
70.6804
70.6804
70.68
70.6799
70.679
70.6809
70.6798
70.6793
70.6791
70.679
70.6795
70.6812
70.6801
70.6809
70.6803
70.6809
70.6806
70.681
70.6806
70.6797
70.6698
70.6713
70.6764
70.6715
70.6766
70.6787
70.6807
70.688
70.6904
70.6804
70.6901
70.6825
70.6823
70.6752
70.6794
70.6796
70.6792
70.6813
70.6769
70.682
70.6799
70.6815
70.68
70.6797
70.681
70.6815
70.6802
70.6816
70.6801
70.6819
70.6803
70.6817
70.6797
70.6791
70.6809
70.6801
70.6781
70.6797
70.679
70.677
70.6783