/*--------------------------------*- C++ -*----------------------------------*\
  =========                 |
  \\      /  F ield         | OpenFOAM: The Open Source CFD Toolbox
   \\    /   O peration     | Website:  https://openfoam.org
    \\  /    A nd           | Version:  8
     \\/     M anipulation  |
\*---------------------------------------------------------------------------*/
FoamFile
{
    version     2.0;
    format      ascii;
    class       volScalarField;
    location    "21000";
    object      Hclip;
}
// * * * * * * * * * * * * * * * * * * * * * * * * * * * * * * * * * * * * * //

dimensions      [0 1 0 0 0 0 0];

internalField   nonuniform List<scalar> 
526318
(
1.79442
1.76135
1.83364
1.75716
1.83954
1.7537
1.80932
1.69918
1.77124
1.64784
1.62235
1.76685
1.69085
1.74569
1.70469
1.73417
1.68856
1.89411
1.80671
1.85398
1.84883
1.80652
1.54876
1.79652
1.68466
1.55799
1.82097
1.82226
1.81482
1.83847
1.8476
1.9231
1.89574
1.77792
1.76223
1.72699
1.72771
1.80697
1.76135
1.74827
1.78413
1.73396
1.4089
1.46267
1.36815
1.41679
1.39145
1.5264
1.6774
1.60425
1.68088
1.67973
1.63493
1.60355
1.09139
1.34026
1.33287
1.1327
1.84625
1.87412
1.89357
1.84793
1.77602
1.91576
1.90424
1.85737
1.8366
1.85005
1.74888
1.75254
1.85662
1.64192
1.69366
1.5916
1.5348
1.5363
1.62318
1.62397
1.54021
1.5894
1.66091
1.65205
1.60951
1.5768
1.59373
1.67202
1.66915
1.64699
1.59552
1.65863
1.57387
1.51919
1.51999
1.4506
1.4405
1.44423
1.44291
1.44826
1.44043
1.43682
0.876863
0.81811
0.906595
0.941436
1.00343
0.785042
1.34866
1.1634
1.48555
1.4409
1.48341
1.60678
1.80934
1.71057
1.82662
1.83444
1.89681
1.86078
1.9186
1.4387
1.43444
1.44174
1.43604
1.39261
1.44407
1.34732
1.39323
1.3023
1.34862
1.3039
1.29832
1.29146
1.2682
1.25777
1.28498
1.22908
1.28336
1.23206
1.25018
1.19666
1.20053
1.22045
1.25237
1.23739
1.19203
1.19242
1.20889
1.20291
1.19061
1.19887
1.21317
1.20218
1.19193
1.20001
1.19997
1.18197
1.21745
1.21004
1.16339
1.1314
1.20184
1.15148
1.19429
1.70395
1.81966
1.74238
1.72753
1.53856
1.59906
1.53729
1.5353
1.53093
1.53357
1.55105
1.5364
1.47173
1.43177
1.40433
1.34439
1.40619
1.44795
1.44389
1.44348
1.3336
1.38728
1.26816
1.28196
1.28975
1.28404
1.2839
1.28781
1.27498
1.2799
1.27383
1.26273
1.24434
1.26665
1.26212
1.23405
1.20935
1.24054
1.21858
1.22606
1.23755
1.22401
1.23481
1.19431
1.20798
1.23728
1.23882
1.68923
1.72282
1.72717
1.69062
1.69851
1.68585
1.68875
1.56501
1.59031
1.34908
1.33355
1.32957
1.44445
1.61235
1.45689
1.49674
1.49275
1.45684
1.41973
0.933123
0.733609
1.07505
1.27501
0.531847
0.367121
0.667728
0.764829
0.734703
0.735965
1.89098
1.88987
1.93121
1.91306
1.89569
1.88179
1.79469
1.87537
1.72348
1.66448
1.6699
1.66906
1.66545
1.66556
1.65488
1.66192
1.56971
1.63091
1.4586
1.51107
1.43002
1.4552
0.248621
0.17374
0.633978
0.419497
0.915449
0.861814
0.917011
1.06798
1.44846
1.26254
1.48175
1.49654
1.61127
1.7214
1.84011
1.83482
1.895
1.84424
1.91529
1.9503
1.42117
1.41291
1.37962
1.34638
1.2469
1.28422
1.21161
1.21989
1.21118
1.20645
1.19543
1.19921
1.12711
1.14496
1.17992
1.22142
1.27074
1.24352
1.20054
1.20287
1.1358
1.13018
1.18027
1.22742
1.15753
1.19334
1.18917
1.16732
1.1548
1.1195
1.12624
1.08438
1.08579
1.09212
1.07945
1.19723
1.23464
1.20279
1.24385
1.60033
1.5556
1.45989
1.55134
1.46937
1.51486
1.52344
1.52384
1.52986
1.53452
1.44205
1.35797
1.2859
1.26917
1.34292
1.28589
1.27121
1.38363
1.27334
1.32479
1.26239
1.2627
1.27147
1.26307
1.27723
1.27394
1.27343
1.27398
1.2737
1.27288
1.2834
1.27719
1.28946
1.28701
1.28846
1.26809
1.28417
1.26395
1.24118
1.23771
1.26184
1.29406
1.28694
1.26161
1.24591
1.27177
1.30876
1.31272
1.32632
1.28274
1.31646
1.33264
1.37645
1.32609
1.33051
1.35768
1.38785
1.4924
1.58181
1.52018
1.57833
1.61108
1.68201
1.59936
1.455
1.58603
1.46868
1.49467
1.22441
1.16737
1.19678
1.18391
1.30157
1.41516
1.35344
1.43161
1.42499
1.43954
1.42163
0.701234
0.841453
0.996007
0.838657
1.0786
0.965625
0.100361
0.250047
0.193315
0.112639
0.022617
0.257764
0.492065
0.72516
0.614764
0.637783
1.93096
1.92433
1.95858
1.94161
1.92889
1.9121
1.81454
1.72618
1.6724
1.68091
1.66075
1.65206
1.63825
1.6315
1.61412
1.61449
1.56482
1.60979
1.52872
1.47685
1.41994
1.37695
0.001
0.00107143
0.00107143
0.001
0.001
0.001
0.001
0.00107143
0.00107148
0.00107143
0.091458
0.001
0.001
0.001
0.0510113
0.001
0.150859
0.251514
0.258829
0.41999
0.881549
0.674727
0.983913
0.957284
1.15155
0.998916
1.364
1.52438
1.53735
1.63615
1.83729
1.73516
1.85808
1.87447
1.87427
1.88208
1.93794
1.96535
1.33572
1.33461
1.29078
1.3154
1.25478
1.21977
1.21161
1.21008
1.2049
1.21103
1.16322
1.15817
1.10731
1.1182
1.17632
1.14271
1.12109
1.16684
1.15845
1.17588
1.08918
1.07797
1.09875
1.11321
1.10922
1.07173
1.07441
1.07341
1.07396
1.05911
1.05979
1.35643
1.3323
1.33356
1.33102
1.35316
1.46007
1.41593
1.39622
1.27951
1.31993
1.30851
1.31135
1.20832
1.14829
1.33405
1.44423
1.3305
1.33904
1.31922
1.39581
1.37811
1.45319
1.48154
1.4073
1.38116
1.4238
1.29992
1.2671
1.26883
1.26864
1.18522
1.23853
1.16466
1.11537
1.09738
1.21512
1.21268
1.26371
1.26303
1.26702
1.26597
1.26138
1.27072
1.26714
1.27776
1.27014
1.28945
1.28252
1.28995
1.28856
1.31263
1.29979
1.3233
1.32731
1.27469
1.25844
1.32537
1.30559
1.29325
1.31245
1.29424
1.28335
1.33542
1.31204
1.41586
1.42489
1.37586
1.41793
1.42538
1.39353
1.48594
1.45517
1.52308
1.54644
1.56913
1.48517
1.48781
1.48668
1.42984
1.42222
1.38197
1.48004
1.34033
1.30329
1.3621
1.39175
1.06517
1.11574
1.19719
1.32176
1.34858
1.38615
1.29255
1.2536
1.22011
1.1611
0.526221
0.607722
0.883588
0.684743
0.996844
1.06675
0.0363149
0.001
0.0251482
0.0237771
0.164038
0.001
0.552757
0.309586
0.469387
0.47001
0.001
0.001
0.001
0.001
0.001
0.00101
0.001
0.001
0.001
0.001
0.00112411
0.001
0.00109908
0.001
0.00112399
0.001124
0.001
0.001
0.001
0.001
0.001
0.001
0.001
0.001
0.00100959
0.001
0.00100965
0.001
0.001
0.001
1.91677
1.93421
1.94397
1.94085
1.91696
1.85049
1.67197
1.75481
1.63393
1.62615
1.61518
1.61556
1.61397
1.60989
1.59789
1.60568
1.54089
1.52185
1.41692
1.46143
1.31772
1.35458
0.001
0.001
0.001
0.001
0.001
0.001
0.001
0.001
0.00101
0.001
0.001
0.001
0.001
0.001
0.001
0.001
0.001
0.00100737
0.001
0.001
0.001
0.001
0.001
0.001
0.0351579
0.187937
0.343987
0.324347
0.390869
0.568318
1.02206
0.826847
1.0411
1.04004
1.33843
1.16822
1.54739
1.50063
1.57364
1.67206
1.77827
1.85286
1.86256
1.85803
1.9033
1.92345
1.92527
1.90631
0.00112654
0.001
0.001
0.001
0.001
0.001
0.001
0.001
0.001
0.001
0.001
0.001
0.001
0.001
0.001
0.00101
0.001
1.31466
1.3163
1.31571
1.28183
1.20298
1.23649
1.16287
1.15453
1.11885
1.11515
1.07218
1.06598
1.09747
1.09578
1.05724
1.09092
1.08731
1.13378
1.11588
1.11833
1.03835
1.01078
1.00939
1.05247
1.05655
1.06306
1.03938
1.03798
0.999804
0.992318
0.954031
0.958217
1.55607
1.52514
1.56341
1.5757
1.52168
1.48031
1.65028
1.66859
1.73223
1.74487
1.28999
1.33086
1.38252
1.46477
1.28668
1.23218
1.26924
1.2682
1.10664
1.16101
1.21561
1.10084
1.31407
1.30182
1.31473
1.31723
1.3308
1.31557
1.32884
1.33939
1.22122
1.21437
1.11406
1.19918
1.1908
1.15043
1.10121
1.1207
1.06205
1.08106
1.06356
1.14958
1.21248
1.1465
1.20771
1.26518
1.26443
1.2692
1.26428
1.27035
1.28918
1.28411
1.30065
1.29353
1.31325
1.30929
1.33157
1.32777
1.3307
1.32801
1.33837
1.33275
1.3723
1.34523
1.3128
1.31212
1.37815
1.34519
1.35433
1.39316
1.43504
1.43545
1.43622
1.43432
1.46622
1.5195
1.58073
1.60256
1.61061
1.58967
1.73187
1.66808
1.79467
1.83493
1.82712
1.86321
1.9212
1.78662
1.8711
1.89478
1.96885
2.01737
2.04465
2.0635
2.09369
2.039
2.0951
2.05221
2.1295
2.13083
2.18175
2.14987
2.20879
2.24227
2.22898
2.1801
2.24349
2.26936
2.23296
2.23206
2.29556
2.27163
2.30651
2.24379
2.24586
2.30825
2.27846
2.22954
2.2306
2.26327
2.2933
1.2904
1.24823
1.41553
1.4127
1.39671
1.39879
1.38227
1.15134
1.29036
0.985747
1.01365
1.11883
1.09828
0.974281
1.05822
1.04407
1.21783
1.12161
1.12084
1.02893
1.02652
1.03801
1.05678
0.585464
0.451526
0.858366
0.641117
0.855012
0.805706
0.001
0.001
0.001
0.001
0.00498763
0.001
0.190477
0.430683
0.321248
0.356436
0.001
0.001
0.001
0.001
0.00138231
0.001
0.001
0.001
0.001
0.001
0.001
0.001
0.001
0.001
0.00100829
0.001
0.001
0.001
0.0010095
0.001
0.001
0.00101951
0.001
0.00101498
0.001
0.001
0.00101
0.001
0.00107651
0.001
0.0010765
0.0010766
0.001
0.00107701
0.00107682
0.00107652
0.001
0.001
0.001
0.001
0.001
0.001
0.001
0.001
0.0010078
0.001
0.001
0.001
0.001
0.001
0.001
0.001
0.001
0.00101
0.001
0.001
1.90511
1.885
1.87365
1.87164
1.78895
1.85855
1.68578
1.62151
1.61683
1.6086
1.60944
1.60894
1.54863
1.54563
1.39759
1.35769
1.31573
1.4889
1.49048
1.43841
1.44067
1.43332
0.001
0.001
0.00112599
0.00112597
0.001
0.001
0.001
0.001
0.00112599
0.001
0.001
0.00100893
0.001
0.001
0.001
0.001
0.001
0.001
0.001
0.024327
0.413196
0.244256
0.444361
0.445148
0.686559
0.486877
0.885167
1.03958
1.16816
1.04117
1.33834
1.49584
1.53911
1.55654
1.64292
1.76996
1.82261
1.81095
1.85676
1.77226
1.82967
1.87671
1.83159
1.80755
0.00101
0.001
0.00100993
0.001
0.001
0.00119083
0.001
0.001
0.00119082
0.001
0.001
0.001
0.001
0.001
0.00101
0.001
0.001
0.001
0.00101
0.001
0.001
0.001
0.001
0.001
0.00221114
0.00100968
1.29057
1.28834
1.21119
1.22658
1.10531
1.12701
1.06655
1.06417
1.06084
1.06817
1.03384
1.04261
1.01444
1.0131
0.99086
1.02852
1.10889
1.06951
1.10822
1.10779
0.928425
0.949272
0.992768
0.969251
0.975839
0.984417
0.926663
0.922997
0.906808
0.917476
0.926446
0.925187
1.7757
1.7797
1.60527
1.52238
1.50699
1.49683
1.77375
1.68952
1.93377
2.00706
1.90322
1.83068
2.02045
2.00424
2.07022
2.11656
2.14663
2.14873
2.17465
2.14944
2.20428
2.22898
2.22619
2.22588
2.24521
2.23071
2.23056
2.27596
2.22072
2.21537
1.3392
1.26753
1.41159
1.48192
1.26703
1.21238
1.26712
1.26574
1.0961
1.15122
0.988125
1.15361
1.0322
1.31518
1.26216
1.30413
1.30084
1.31467
1.20878
1.10573
1.02925
1.01856
1.03085
1.06631
0.995733
0.979351
0.905665
0.996384
1.07584
1.06955
0.988117
1.09096
1.16039
1.10403
1.21252
1.1624
1.19878
1.25792
1.29223
1.27292
1.30351
1.30276
1.31331
1.30605
1.33876
1.34621
1.34547
1.36118
1.36531
1.36751
1.40068
1.41119
1.40403
1.39563
1.39933
1.39505
1.41114
1.42677
1.47499
1.46533
1.43527
1.46657
1.46065
1.49575
1.52871
1.59073
1.62184
1.62111
1.63258
1.70141
1.7835
1.85652
1.86962
1.99549
1.86956
1.92064
2.07026
2.09477
2.09436
2.13235
2.18048
2.23107
2.24085
2.24518
2.27231
2.3012
2.32637
2.32737
2.32749
2.32615
2.32598
2.30957
2.24492
2.30857
2.27772
2.23192
2.23176
2.26443
2.2952
2.30554
2.23359
2.29492
2.25319
1.0739
1.07338
1.13837
1.21487
1.10937
1.17052
1.30766
1.23985
1.26756
1.10821
1.00842
0.978067
0.977771
1.08082
1.06801
0.734043
0.841546
1.02673
0.9172
1.02643
1.02456
1.03355
1.02929
1.04513
1.06035
0.245458
0.413853
0.503114
0.684425
0.703096
0.706976
0.001
0.001
0.001
0.00101
0.001
0.001
0.0395799
0.001
0.163108
0.001
0.001
0.0013819
0.001
0.00101
0.001
0.001
0.001
0.001
0.001
0.001
0.00105173
0.001
0.001
0.001
0.001
0.001
0.001
0.001
0.001
0.001
0.001
0.001
0.001
0.001
0.001
0.001
0.001
0.001
0.001
0.001
0.001
0.001
0.001
0.00101
0.001
0.00100962
0.001
0.001
0.001
0.001
0.001
0.001
0.001
0.001
1.82475
1.83059
1.82613
1.81409
1.72683
1.80336
1.6183
1.66689
1.56444
1.56404
1.51304
1.50038
1.44554
1.43913
1.35298
1.24906
1.22636
1.39218
1.4385
1.43937
1.42821
1.44396
0.00112604
0.001
0.00112604
0.001
0.001
0.001
0.001
0.001
0.00100548
0.001
0.001
0.001
0.001
0.001
0.001
0.00100999
0.001
0.001
0.001
0.123149
0.302399
0.445946
0.509221
0.461234
0.668168
0.850597
1.00544
1.03899
1.23569
1.06808
1.37234
1.51882
1.47762
1.59312
1.75891
1.65917
1.73705
1.74049
1.73285
1.7564
1.81142
1.80209
1.80914
1.78798
0.001
0.001
0.001
0.001
0.001
0.001
0.001
0.001
0.001
0.001
0.001
0.001
0.001
0.001
0.001
0.001
0.001
0.001
0.001
0.00100999
0.001
0.001
0.00207405
0.001
0.00101
0.001
0.001
0.001
0.001
0.001
0.001
1.16534
1.16481
1.12904
1.10841
1.06411
1.08704
1.05381
1.0503
1.20679
1.14959
1.12778
0.977343
0.992305
0.922765
0.919861
0.992632
0.990808
0.981848
1.02185
1.08162
1.03511
1.07113
1.05489
0.950096
0.92754
0.941569
0.966602
0.885913
0.889502
0.889546
0.897235
0.914624
0.901813
0.86579
0.877061
2.3522
2.36318
2.38813
2.36551
2.40719
2.39313
2.41467
2.41008
2.46651
2.45202
2.41722
2.47016
2.43323
2.49035
2.32177
2.27361
2.29307
2.34151
2.32393
2.29317
2.29454
2.34826
2.35248
2.33109
2.30958
2.36103
2.34458
2.34799
2.37628
2.23113
2.23161
2.23246
2.23082
2.25006
2.27119
1.82254
1.76982
1.66427
1.57029
1.48264
1.5572
1.75926
1.74242
1.98103
2.00227
1.89109
1.97133
2.01112
2.05752
2.10739
2.14675
2.14637
2.14598
2.14413
2.17368
2.18726
2.21349
2.20037
2.20425
2.20763
2.2187
2.19437
2.19589
1.38843
1.3183
1.25989
1.24967
1.30712
1.48232
1.46118
1.18863
1.2463
1.12058
1.05314
2.33831
2.35788
2.37557
2.38181
2.38562
2.3958
2.40108
2.42652
2.41156
2.42962
2.42911
2.47673
2.50326
2.52349
2.52561
2.52871
2.54116
2.56585
1.03161
0.979191
0.978407
1.24031
1.11903
1.29769
1.20197
1.113
1.0139
1.02099
1.01396
1.01968
0.868609
0.94479
0.797245
0.819604
0.90049
0.818655
1.08385
1.01233
0.910605
1.10617
1.10811
1.10759
1.16459
1.11843
1.24488
1.19625
1.27854
1.24208
1.28107
1.30256
1.3277
1.34938
1.37049
1.37389
1.38139
1.37532
1.43267
1.41931
1.41328
1.41181
1.46349
1.43938
1.5076
1.47114
1.45033
1.4936
1.53892
1.52727
1.55337
1.58822
1.58772
1.53624
1.64252
1.67326
1.64346
1.63144
1.71527
1.79729
1.87045
1.93609
1.88427
1.90121
2.03011
2.08856
2.13183
2.11283
2.17781
2.20961
2.25109
2.26613
2.26045
2.28007
2.33706
2.31801
2.32914
2.33843
2.32916
2.3274
2.32762
2.32674
2.32795
2.3268
2.32701
1.06391
1.05104
1.07608
0.997518
1.02042
1.03691
0.974142
1.11688
1.01804
0.953107
0.971569
0.950657
0.852185
0.953709
0.975795
0.758073
0.745445
0.702982
0.81164
1.02521
0.91698
0.91989
0.926168
0.712831
0.610445
0.409192
0.425224
0.345575
0.167447
0.162892
0.70386
0.524693
0.686165
0.686229
0.001
0.001
0.001
0.001
0.001
0.001
0.00100984
0.001
0.160181
0.001
0.001
0.001
0.00101
0.001
0.001
0.001
0.001
0.0023928
0.001
0.001
0.001
0.001
0.001
0.001
0.00100993
0.001
0.001
0.001
0.001
0.001
0.00101202
0.001
0.001
0.001
0.001
0.00101255
0.001
0.001
0.001
0.001
0.001
0.001
0.001
0.001
0.00101
0.001
0.001
0.001
0.001
0.001
0.001
0.001
0.001
0.001
0.001
0.00218874
0.001
0.001
0.001
0.001
0.00218871
2.5142
2.48553
2.46583
2.55576
2.59948
2.59168
1.79938
1.79883
1.77745
1.76292
1.71392
1.77424
1.60658
1.52915
1.45808
1.47743
1.43777
1.42697
1.45041
1.44158
1.31516
1.23386
1.32266
1.40258
1.39794
0.001
0.001
0.001
0.001
0.001
0.001
0.001
0.001
0.001
0.001
0.00100943
0.001
0.001
1.00168
1.03939
1.06506
0.001
0.001
0.00387524
0.0100443
0.295423
0.175802
0.466539
0.496688
0.65935
0.52079
0.837271
1.20953
1.34185
1.45316
1.46575
1.80125
1.70085
1.71132
1.50587
1.58156
1.67221
1.71353
1.7194
1.7299
1.7472
1.7557
1.75726
0.001
0.0011802
0.001
0.001
0.001
0.001
0.00100904
0.001
0.001
0.001
0.001
0.001
0.001
0.001
0.001
0.001
0.001
0.00100504
0.001
0.001
0.001
0.001
0.001
0.001
0.001
0.001
0.001
0.001
0.001
0.001
0.00101
0.00100979
0.001
0.001
0.001
0.001
0.001
1.16171
1.19785
1.18813
1.12895
1.12927
1.10089
1.12305
0.989132
1.02004
0.930904
0.927433
1.13467
1.12077
0.880428
0.881945
0.884189
0.883774
0.942543
0.921184
0.959257
0.904318
1.02804
0.980291
1.02879
1.03787
0.873053
0.823151
0.848579
0.883189
0.855421
0.852251
0.796518
0.831064
0.815407
0.793061
0.775788
0.770862
2.3508
2.36468
2.38805
2.41174
2.42704
2.42113
2.45667
2.42514
2.28611
2.28392
2.26715
2.28708
2.32084
2.28301
2.33198
2.30182
2.21971
2.20613
2.2054
2.2379
2.26597
2.23926
1.82944
1.75181
1.64506
1.73542
1.58302
1.49315
1.74732
1.74944
1.98714
1.98984
2.00391
1.90199
1.9799
2.0909
2.03792
1.98086
2.02257
2.12421
2.13629
2.12794
2.13379
2.1419
2.16545
2.19317
2.18181
2.19364
2.19177
2.19454
2.19247
2.19204
2.19378
1.23299
1.23683
1.37649
1.45815
1.23531
1.31687
1.47392
1.49171
1.22621
1.16996
1.08173
1.14712
2.36868
2.32767
2.34555
2.39251
2.38908
2.39058
2.40153
2.4219
2.44419
2.45627
2.45462
2.46037
2.48196
2.52282
2.50715
2.52488
2.54478
2.58768
2.56565
2.39723
2.40662
2.42355
2.59117
2.59281
2.59462
0.979106
0.978918
0.975798
0.948974
1.04874
1.05516
0.8672
0.897223
0.933332
0.82694
0.863555
0.862784
0.794874
0.795091
0.797237
0.798343
0.828991
0.858529
0.963564
0.888251
0.890566
1.03438
1.11096
1.02681
1.18143
1.20928
1.14289
1.18172
1.24263
1.21099
1.33361
1.27719
1.34862
1.36045
1.37045
1.36084
1.41039
1.44952
1.48548
1.48708
1.49331
1.47961
1.50572
1.48748
1.53809
1.53943
1.56312
1.56378
1.5435
1.54113
1.66405
1.70803
1.60981
1.66941
1.71901
1.67955
1.78122
1.82526
1.92459
1.96264
1.93907
2.0313
2.08536
2.18543
2.17042
2.23
2.20424
2.29901
2.30579
2.2991
2.32722
2.35566
2.3551
2.41064
2.37489
2.40317
2.36482
2.36433
2.40053
2.33166
2.36805
2.33081
0.430399
0.746692
0.433982
0.711302
0.992317
0.97511
0.973239
0.95503
0.972544
0.826516
0.723728
0.718025
0.618819
0.821358
0.694027
0.718901
0.846023
0.104021
0.103545
0.483274
0.608572
0.600061
0.397234
0.2893
0.277685
0.0722882
0.0764226
0.0895384
0.162959
0.158791
0.0637735
0.247851
0.145768
0.403979
0.197904
0.122734
0.0010004
0.001
0.001
0.001
0.001
0.001
0.00225138
0.001
0.001
0.0391811
0.001
0.001
0.00101
0.001
0.001
0.00221788
0.001
0.001
0.001
0.00100982
0.00137921
0.001
0.00100983
0.001
0.001
0.001
0.00101
0.001
0.0010121
0.00101209
0.001
0.001
0.00101206
0.00101213
0.001
0.001
0.001
0.001
0.00170161
0.001
0.00170152
0.001
0.001
0.001
0.001
0.00100984
0.00101
0.00100994
0.001
0.001
0.001
0.001
0.001
0.001
0.001
0.001
0.001
0.001
0.00137917
0.001
0.00100958
0.00100997
0.001
0.001
0.001
0.001
0.00101
2.46586
2.49856
2.49978
2.48895
2.52258
2.62686
2.60441
2.61809
2.6334
2.58699
1.7124
1.69915
1.64985
1.63998
1.59363
1.62274
1.5273
1.4869
1.48326
1.44281
1.41358
1.40971
1.32509
1.33658
1.20266
1.24574
1.24542
0.001
0.001
0.001
0.00101
0.001
0.001
0.001
1.03562
1.17753
1.03882
0.001
0.001
0.001
0.001
0.906782
0.737074
0.0765319
0.0181411
0.0944671
0.212253
0.496918
0.35585
0.537034
0.538147
0.573512
1.56146
1.57377
1.61321
1.3206
1.46474
1.45631
1.49723
1.62347
1.68238
1.66423
1.56058
1.65062
1.67403
1.68719
1.58383
1.62588
0.001
0.001
0.00118023
0.00101
0.001
0.001
0.00101
0.00116132
0.001
0.001
0.001
0.001
0.001
0.001
0.001
0.001
0.001
0.001
0.001
0.00101
0.001
0.001
0.001
0.001
0.001
0.00100577
0.001
0.001
0.001
0.001
0.001
0.00101
0.00100563
0.001
0.001
0.001
0.001
0.001
0.001
0.001
0.001
0.001
0.001
0.001
0.001
1.18057
1.19434
1.20334
1.06718
1.09129
1.04936
1.05063
0.979407
0.967669
0.881266
0.895102
0.880838
0.884386
0.982195
0.976877
0.828131
0.829654
0.790826
0.772244
0.874369
0.865401
0.889925
0.943281
1.02251
0.988305
1.05363
1.00736
0.812622
0.777501
0.841009
0.866692
0.734895
0.737137
0.71157
0.730198
0.773278
0.751157
0.770563
0.780171
2.35435
2.31341
2.38012
2.34653
2.35605
2.38397
2.40899
2.44171
2.44127
2.46602
2.46059
2.40891
2.4603
2.44052
2.25002
2.2506
2.23951
2.25398
2.2666
2.27764
2.27983
2.28157
2.19489
2.19275
2.2176
2.20065
2.2304
2.23999
1.83181
1.75256
1.67043
1.74908
1.54234
1.63693
1.74739
1.75617
1.97844
1.97924
1.98192
1.908
2.0678
2.11462
2.02604
1.97818
2.12071
2.12044
2.1349
2.12012
2.15696
2.1815
2.18802
2.19109
2.19126
2.18613
2.1922
2.19397
2.19094
2.18642
1.22892
1.22482
1.39399
1.47327
1.37263
1.29014
1.52972
1.47032
1.20297
1.22433
1.19808
1.11505
2.36814
2.40341
2.38703
2.41156
2.43003
2.41823
2.45356
2.46475
2.44193
2.45494
2.44488
2.45504
2.45999
2.48383
2.50924
2.52514
2.52492
2.5765
2.55352
2.60352
2.61055
2.47785
2.49044
2.60818
2.62203
0.721795
0.879144
0.743745
0.85225
0.771746
0.741356
0.701216
0.676408
0.700529
0.731904
0.6311
0.676685
0.681712
0.574414
0.631892
0.774634
0.889398
0.806381
0.897589
0.900784
0.891429
0.960338
1.10631
1.01384
1.19655
1.19856
1.1629
1.11289
1.23399
1.276
1.33325
1.32434
1.34495
1.33442
1.45538
1.40289
1.50359
1.49754
1.52106
1.52888
1.49899
1.55799
1.60277
1.57567
1.55917
1.59024
1.63808
1.62378
1.60841
1.64717
1.73421
1.7314
1.72943
1.74487
1.87545
1.79168
1.96086
1.98649
1.98652
2.05329
2.13025
2.2053
2.2148
2.22521
2.27321
2.3209
2.35671
2.35757
2.39591
2.36898
2.42184
2.43679
2.43787
2.43635
2.43796
2.43635
2.4048
2.43748
2.40456
0.0906813
0.0817417
0.104515
0.0691365
0.37932
0.686242
0.367732
0.847398
0.714723
0.722945
0.564384
0.581968
0.592648
0.582214
0.590951
0.586939
0.583907
0.58336
0.592879
0.0964689
0.0892266
0.001
0.030237
0.0612802
0.020535
0.0620193
0.0629258
0.0359662
0.0482054
0.001
0.001
0.001
0.001
0.001
0.001
0.00207241
0.001
0.001
0.00100986
0.001
0.001
0.001
0.00189751
0.001
0.001
0.001
0.001
0.001
0.001
0.001
0.001
0.001
0.00100941
0.001
0.001
0.001
0.00100992
0.001
0.001
0.001
0.00101
0.001
0.001
0.001
0.001
0.001
0.001
0.0010008
0.001
0.001
0.001
0.00100949
0.001
0.001
0.001
0.001
0.001
0.001
0.001
0.001
0.001
0.001
0.00101
0.001
0.001
0.001
0.001
0.001
0.001
0.001
0.001
0.001
0.001
0.001
0.001
0.001
0.001
0.001
0.001
0.001
0.001
0.001
0.001
0.001
0.001
0.001
0.001
0.001
0.001
0.001
0.001
0.001
0.00106274
0.001
0.001
0.001
0.001
2.66105
2.64751
2.66329
2.66892
2.68811
2.67621
2.49676
2.51014
2.58505
2.54611
2.61517
2.65946
2.61014
2.51058
2.45441
1.57855
1.5716
1.55565
1.56717
1.56544
1.50203
1.55198
1.33579
1.39325
1.25791
1.25765
1.20322
1.20486
1.20311
0.001
0.001
0.001
0.001
1.00949
1.19958
1.03751
0.001
0.001
0.991626
0.881922
0.001
0.0479472
0.001
0.001
0.578934
0.726214
0.105519
0.106143
0.253038
0.111604
0.543477
0.393561
0.548897
1.59052
1.57658
1.57919
1.57253
1.57326
1.29077
1.39911
1.35176
1.46
1.52286
1.54377
1.47886
1.55285
1.51771
1.50814
1.50441
0.001
0.001
0.001
0.001
0.001
0.001
0.001
0.001
0.001
0.001
0.001
0.0193646
0.001
0.001
0.001
0.11057
0.108374
0.0477147
0.001
0.001
0.0557225
0.001
0.001
0.001
0.001
0.00100955
0.001
0.001
0.001
0.001
0.001
0.001
0.001
0.001
0.001
0.001
0.00106913
0.001
0.00107053
0.001
0.001
0.001
0.001
0.001
0.001
0.001
0.001
0.001
0.00366863
0.00569369
0.0956324
0.001
0.001
0.001
0.001
0.001
0.001
1.18254
1.1106
1.09856
1.02908
1.01874
0.936815
0.922655
0.912628
0.912797
0.902557
0.912555
0.843256
0.85468
0.779356
0.76432
0.913983
0.917111
0.703536
0.701429
0.702991
0.708621
0.98386
1.04986
0.967954
0.865801
0.848086
0.922783
0.855361
0.938117
0.77845
0.745536
0.807322
0.76314
0.711518
0.713369
0.704317
0.725227
0.721086
0.692651
0.687444
0.666744
2.34228
2.2962
2.34201
2.34785
2.32101
2.39574
2.33844
2.34498
2.39144
2.40397
2.47432
2.44108
2.38851
2.2403
2.2383
2.2666
2.25377
2.28107
2.27877
2.30258
2.28638
2.19195
2.20053
2.22313
2.20558
2.22052
2.23005
1.87032
1.78987
1.71285
1.75113
1.69823
1.60312
1.7877
1.74982
1.98275
1.98342
1.94269
1.98872
2.07372
2.12289
1.98446
2.03234
2.12349
2.12292
2.1462
2.12449
2.16549
2.18649
2.18337
2.18543
2.18403
2.18524
2.18926
2.18671
2.18438
2.18488
1.22301
1.28145
1.47236
1.4478
1.36858
1.45203
1.47289
1.54919
1.21742
1.21512
1.21111
1.12799
0.96356
1.00722
1.09154
2.43647
2.44005
2.46651
2.45891
2.48193
2.49349
2.49386
2.49386
2.52993
2.50925
2.52176
2.48842
2.51953
2.53163
2.55549
2.57377
2.58691
2.58637
2.63602
2.63928
2.66003
2.63575
2.55023
2.55462
2.67634
2.67357
0.50448
0.570142
0.440789
0.676324
0.5878
0.664158
0.675999
0.656416
0.594102
0.517949
0.455654
0.463142
0.488159
0.543771
0.710692
0.617347
0.592517
0.795061
0.949763
0.908606
0.763
0.999456
1.0443
1.06114
1.04077
1.14703
1.21367
1.09272
1.31845
1.25654
1.32639
1.3306
1.42258
1.35949
1.48035
1.51782
1.51407
1.51246
1.64323
1.60277
1.57096
1.62797
1.65362
1.64705
1.63991
1.63437
1.64807
1.64679
1.73124
1.76897
1.80707
1.7652
1.80646
1.83699
1.97311
1.90678
1.99935
1.98605
2.0674
2.14235
2.23048
2.22379
2.26178
2.29668
2.37341
2.36294
2.38606
2.39051
2.4189
2.42939
2.44796
2.44014
2.45268
2.44658
2.43643
2.45059
2.43536
2.43774
0.0263693
0.00474784
0.0535987
0.0318245
0.0357358
0.0605958
0.0335518
0.222965
0.0309447
0.582043
0.600998
0.120005
0.325273
0.59287
0.580879
0.58807
0.582529
0.579768
0.588904
0.522193
0.415444
0.001
0.001
0.001
0.001
0.001
0.0294565
0.001
0.001
0.001
0.001
0.00101
0.001
0.001
0.00100863
0.00187896
0.001
0.001
0.001
0.00357976
0.001
0.001
0.001
0.00100974
0.001
0.001
0.001
0.00100983
0.001
0.001
0.00100647
0.001
0.00100976
0.001
0.001
0.001
0.001
0.001
0.00356861
0.001
0.001
0.001
0.001
0.001
0.00132303
0.00132297
0.00132299
0.001
0.001
0.001
0.001
0.001
0.001
0.001
0.001
0.001
0.001
0.001
0.001
0.001
0.001
0.001
0.001
0.001
0.001
0.001
0.001
0.001
0.001
0.001
0.001
0.001
0.001
0.001
0.001
0.001
0.001
0.001
0.001
0.001
0.001
0.001
0.001
0.001
0.001
0.001
0.00101
0.001
0.00166233
0.001
0.00104795
0.001
0.00102692
0.001
0.001
0.001
2.68658
2.70841
2.71532
2.66347
2.67851
2.66931
2.66439
2.57557
2.5835
2.59341
2.61394
2.60193
2.62504
2.65819
2.51813
2.56059
2.47098
2.49545
2.49255
1.58338
1.56602
1.47013
1.4277
1.52526
1.46128
1.46825
1.34311
1.36554
1.23184
1.20393
1.20544
1.20305
1.18064
0.001
0.001
1.12187
1.23158
1.00857
0.001
0.001
0.963287
0.961365
0.00299642
0.001
0.700363
0.836298
0.0712169
0.142309
0.0812605
0.0351903
0.560946
0.567587
0.15543
0.194059
0.238156
0.336437
0.485864
1.52945
1.56937
1.55047
1.53404
1.29304
1.29272
1.31731
1.39075
1.50039
1.50116
1.4585
1.51167
1.49973
0.0277863
0.025905
0.0274502
0.0413744
0.0600797
0.0795813
0.0859646
0.0905887
0.0899277
0.121178
0.138411
0.161519
0.154951
0.170876
0.21755
0.24858
0.206421
0.293609
0.249649
0.203245
0.242097
0.249211
0.254799
0.001
0.001
0.00106963
0.001
0.001
0.00101
0.001
0.001
0.001
0.001
0.001
0.001
0.001
0.001
0.001
0.001
0.001
0.001
0.0768804
0.119915
0.181679
0.220197
0.274865
0.163051
0.001
0.001
0.36939
0.260444
0.288787
0.329885
0.001
0.001
0.001
0.001
0.001
0.001
0.001
0.001
0.001
0.001
1.0996
1.01603
1.01634
0.953664
0.956849
0.928175
0.945293
0.915745
0.955376
0.879222
0.882662
0.790642
0.805607
0.715703
0.716058
0.689379
0.687677
0.835704
0.809862
0.693901
0.687285
0.689226
0.680889
0.90881
0.952835
0.79423
0.768291
0.837159
0.952746
1.01304
0.967701
0.699122
0.653619
0.7214
0.744896
0.644985
0.628008
0.619498
0.58521
0.617004
0.590991
0.614447
0.634306
2.28469
2.33899
2.25405
2.36021
2.35809
2.35896
2.39606
2.35528
2.36923
2.43316
2.38485
2.46888
2.42616
2.50103
2.22021
2.24319
2.23893
2.26039
2.24388
2.26685
2.30726
2.25845
2.18627
2.19569
2.20213
2.2122
2.21055
2.21111
1.92403
1.84254
1.73246
1.75205
1.65366
1.74574
1.75644
1.81446
1.99071
1.98869
1.99085
1.96639
2.07936
2.1275
2.04787
1.99969
2.12647
2.12828
2.13361
2.15405
2.18516
2.17188
2.18483
2.18329
2.18322
2.18445
2.18459
2.18421
2.18448
2.18403
1.3026
1.21104
1.47812
1.48029
1.39122
1.48406
1.48375
1.58452
1.20876
1.20673
1.18803
1.17181
1.11136
1.2089
2.44968
2.46787
2.48804
2.52267
2.51811
2.5378
2.55225
2.56027
2.56828
2.55581
2.56396
2.58513
2.60639
2.61786
2.61982
2.6293
2.64877
2.67007
2.68233
2.68056
2.69461
2.56652
2.55681
2.71144
2.72774
0.307147
0.360224
0.337561
0.416117
0.543066
0.612329
0.512776
0.542061
0.455821
0.456444
0.463155
0.482968
0.582939
0.536615
0.606114
0.607206
0.609011
0.669876
0.738531
0.912842
0.837468
0.995991
1.08236
1.07351
0.988073
1.14431
1.14712
1.23393
1.29878
1.26966
1.34612
1.28645
1.48458
1.40413
1.51199
1.51896
1.52679
1.59548
1.71683
1.72919
1.66324
1.69418
1.72743
1.67193
1.77978
1.71039
1.68595
1.7201
1.85664
1.86254
1.92864
1.98043
1.86737
1.9539
2.09994
2.04824
2.11783
2.08745
2.28104
2.24666
2.31236
2.32921
2.39998
2.41058
2.47145
2.43947
2.4855
2.47002
2.48911
2.52212
2.49364
2.52598
2.5343
2.49002
2.47853
2.52406
2.52127
2.49031
0.001
0.001
0.001
0.001
0.001
0.001
0.001
0.001
0.001
0.001
0.001
0.0579712
0.31846
0.001
0.001
0.412487
0.145513
0.583743
0.4153
0.506603
0.58886
0.434088
0.326965
0.001
0.001
0.001
0.001
0.001
0.001
0.001
0.00141469
0.00100995
0.001
0.001
0.001
0.001
0.001
0.00100156
0.001
0.001
0.001
0.001
0.001
0.001
0.001
0.001
0.0010095
0.00101
0.00100891
0.001
0.001
0.001
0.001
0.00128434
0.001
0.001
0.00128428
0.001
0.001
0.001
0.00100996
0.00166228
0.001
0.00124487
0.001
0.001
0.001
0.001
0.00101
0.001
0.001
0.001
0.001
0.001
0.001
0.001
0.001
0.001
0.001
0.001
0.001
0.001
0.001
0.001
0.001
0.001
0.001
0.001
0.001
0.001
0.001
0.001
0.001
0.001
0.001
0.001
0.001
0.001
0.001
0.001
0.001
0.001
0.001
0.001
0.001
0.001
0.001
0.001
0.001
0.001
0.001
0.001
0.001
0.001
0.001
0.001
0.001
0.00104795
0.001
0.001
0.001
0.00124488
0.001
0.001
2.73774
2.71996
2.738
2.72364
2.6882
2.73034
2.7076
2.69434
2.70794
2.53923
2.56429
2.6139
2.62341
2.66598
2.6771
2.73294
2.66977
2.52056
2.54097
2.4994
2.50408
2.49761
2.54138
2.42876
1.32981
1.43567
1.33879
1.3662
1.38166
1.27789
1.28765
1.2898
1.28153
1.27934
1.25948
1.17755
1.15334
1.06839
1.07023
1.18263
1.29313
0.0307316
0.052179
0.958845
0.960876
0.0654942
0.07646
0.896294
0.763641
0.0830725
0.100228
0.634966
0.568597
0.23761
0.197636
0.156508
0.56995
0.496222
0.248989
0.290166
0.388737
1.44079
1.36207
1.33667
1.42755
1.29335
1.31583
1.44895
1.382
1.42753
1.50438
1.49838
0.0323037
0.0259284
0.0404424
0.0277368
0.0774188
0.0610179
0.0901577
0.0917888
0.0923333
0.117686
0.17131
0.144396
0.177979
0.173703
0.23842
0.197421
0.293039
0.290313
0.2963
0.27971
0.289684
0.296449
0.297246
0.287592
0.001
0.001
0.001
0.00359683
0.001
0.00100998
0.00364669
0.001
0.001
0.001
0.001
0.001
0.001
0.001
0.001
0.001
0.001
0.001
0.001
0.00101
0.001
0.401275
0.430303
0.377231
0.437672
0.454129
0.520462
0.420205
0.112974
0.570616
0.594148
0.349298
0.288478
0.001
0.001
0.001
0.001
0.001
0.001
0.001
0.001
0.001
0.001
0.001
0.001
0.001
0.001
0.001
0.001
0.955788
0.955794
0.986585
0.95405
0.95749
0.953858
0.94953
0.769718
0.772807
0.854862
0.870541
0.737211
0.732989
0.692853
0.694876
0.691811
0.692079
0.659687
0.661561
0.69712
0.69543
0.605055
0.59251
0.551419
0.567561
0.880147
0.80603
0.744834
0.959092
0.862405
0.992216
1.08947
1.01394
0.69689
0.652713
0.757189
0.732761
0.528042
0.535581
0.536544
0.568413
0.592921
0.617305
0.649713
0.634515
2.26827
2.33707
2.26743
2.29821
2.30636
2.32751
2.30741
2.34364
2.357
2.39292
2.39651
2.39402
2.43488
2.3993
2.49724
2.21113
2.21608
2.22076
2.22488
2.22583
2.22467
2.23317
2.24543
2.24435
2.18919
2.19741
2.20695
2.21047
2.21008
1.89093
1.96589
1.77488
1.76949
1.68796
1.78688
1.84685
1.78015
2.00092
2.01379
2.01782
2.00168
2.12842
2.09142
2.06072
2.09529
2.14106
2.1329
2.1646
2.17781
2.19627
2.19119