/*--------------------------------*- C++ -*----------------------------------*\
  =========                 |
  \\      /  F ield         | OpenFOAM: The Open Source CFD Toolbox
   \\    /   O peration     | Website:  https://openfoam.org
    \\  /    A nd           | Version:  8
     \\/     M anipulation  |
\*---------------------------------------------------------------------------*/
FoamFile
{
    version     2.0;
    format      ascii;
    class       surfaceScalarField;
    location    "21000";
    object      phi;
}
// * * * * * * * * * * * * * * * * * * * * * * * * * * * * * * * * * * * * * //

dimensions      [0 3 -1 0 0 0 0];

internalField   nonuniform List<scalar> 
788991
(
-0.0494247
-0.0614848
-0.0358512
-0.0269089
0.000185414
-0.0143014
-0.0185104
0.00667867
-0.0491208
0.0545348
-0.0495772
0.0378109
-9.29639e-05
-0.0547971
-0.0618886
-0.0348523
-0.000137861
-0.037602
-0.0426213
0.040556
0.00177939
0.0449438
-0.00503327
0.00682673
-0.0639642
0.0223783
-0.0176693
0.0232863
-0.00283253
0.0237565
0.0219854
0.0482018
0.0338809
0.00571006
0.0571
0.0113782
0.00393475
-0.0312791
-0.0213626
0.0416663
-0.0498545
0.035871
0.00254425
-0.0528136
0.0159615
0.0180666
-0.0194523
-0.0100427
-0.0168397
-0.0289699
-0.113005
0.0642095
-0.0387731
0.0333056
0.0591533
0.0109552
0.0489642
-0.00160569
0.036929
0.0443015
-0.0169447
-0.0535492
-0.0840837
-0.0144956
-0.0404012
0.0323225
-0.00949598
-0.0424351
0.0487452
-0.0533249
-0.077545
0.0488014
-0.00187499
0.0434109
0.00349928
-0.0140356
0.035327
0.0148321
0.0270694
0.0125962
0.045389
-0.0591007
-0.00541329
0.0104069
-0.00738078
-0.0212383
0.0341147
-0.0150383
0.00839183
-0.0225567
0.019676
0.00392458
-0.0265035
-0.0325327
-0.0137533
0.0340796
-0.0100881
0.0390835
-0.033245
-0.00738233
0.0797087
0.0173374
-0.0702409
-0.0424066
0.000347778
0.0325682
0.00924918
0.0227845
-0.023519
-0.0223439
0.0405797
-0.00220189
-0.0582532
-0.0583442
-0.0210363
0.0450413
0.019267
-0.0461509
-0.0257972
0.00759553
-0.009509
-0.00691523
0.0487969
0.0539486
-0.0411263
-0.0139618
-0.0237258
-0.0331167
-0.0383554
0.00160317
0.0197359
-0.00536193
-0.0434262
-0.0189353
0.0369012
-0.0137143
0.0433466
0.0206126
0.013295
0.0314608
0.0372787
0.0146792
0.0276069
0.0607935
0.0239118
-0.0441586
0.0458871
0.0169673
0.0351387
0.0558351
0.0178111
-0.0406816
-0.00486595
0.00670105
-0.00572804
-0.00236621
0.0323211
0.0230839
0.000826244
0.0287905
-0.0341834
0.0119679
0.00774178
-0.0147357
0.0207466
-0.0185866
-0.0089967
0.00703474
-0.0116174
0.00690584
-0.0176932
0.00806987
0.00594056
-0.00861819
-0.00484757
-0.011302
-0.00102822
0.00511808
-0.00538406
-0.00210224
-0.00819269
-0.00252776
0.00411912
0.00329722
-0.00431998
-0.00153962
-0.00760869
0.00542984
0.00995906
0.0142014
0.00745392
0.0156573
0.00519209
0.0129115
-0.0161902
0.00831416
-0.0230619
-0.00727639
0.0183282
0.000732694
0.0318922
0.00109149
0.0403833
0.0331094
0.0543185
-0.0225157
-0.0579154
0.0221253
-0.0394618
-0.000130645
0.0338
0.00657485
-0.00219167
-0.0347708
0.0149019
-0.0104523
0.0144505
0.0105322
0.0669347
-0.00704199
0.0573969
0.0481695
0.010252
-0.0460664
0.0369094
-0.00478858
-0.0608053
0.0603818
0.0183643
0.0499546
0.0401943
-0.00108349
-0.0426238
0.0407911
-0.0155235
0.0495633
0.0119779
0.00245533
-0.0350066
-0.0345617
0.0207974
-0.0325242
0.0040423
-0.0161388
0.0198721
-0.004741
-0.00955596
-0.0113236
-0.00810743
-0.0273385
0.00329086
-0.00100092
-0.00992724
-0.000883714
0.00217262
-0.00303967
-0.00325885
0.00465199
0.00333547
0.009065
0.0032466
0.00972814
-0.0109512
0.00607521
0.018554
0.0180464
0.00219902
0.00921156
-0.0154791
-0.0248672
0.00540276
0.0444715
0.0475473
0.0264308
0.00563077
-0.00353217
0.034587
0.0144354
0.0384006
0.0122865
0.00398304
-0.0653645
0.0082559
0.0516264
0.0291028
-0.0486066
-0.0343308
-0.00327435
0.0500297
-0.0296782
-0.00507687
-0.112863
0.0031196
0.00396083
0.0154008
-0.0242439
0.0404644
0.039213
-0.032315
-0.0286647
-0.0474132
-0.0355649
0.0506318
-0.0153304
-0.0574775
-0.0135516
0.00679237
-0.0542235
0.0631552
0.0153609
-0.0103774
0.0233214
0.0236261
-0.00122497
-0.0124603
-0.0376626
0.0959526
0.00870493
0.0814112
-0.00996772
0.00282223
-0.0391992
0.045859
-0.00746169
-0.0285339
0.0307987
0.0144943
-0.00178247
-0.0238454
-0.0612003
-0.0492597
-0.00629344
-0.0455029
-0.00571025
-0.0160832
-0.0350491
-0.0279144
0.0134085
-0.054992
-0.0218438
0.00478546
-0.0466548
-0.0612401
0.00509407
-0.0274685
-0.0353794
-0.00306618
-0.0241266
-0.0512917
0.0135864
-0.0363207
-0.0332338
0.00492478
-0.0252556
-0.0233539
-0.016531
0.0770581
-0.0309577
-0.00187865
0.0170328
0.0158304
0.0457809
0.0545506
0.02067
0.0387145
0.0305127
-0.0217692
0.0467207
0.027842
0.0284892
0.0458883
0.0231655
0.0187099
0.0800395
-0.000431601
-0.0398957
0.0692339
0.0410547
-0.0395375
-0.00983578
0.0128659
0.00702228
0.0105705
0.031014
-0.0217047
-0.0243912
-0.0271376
0.00142926
-0.0223493
-0.0187832
0.00720393
-0.0173187
-0.0152117
-0.00477179
-0.0163145
-0.0115046
-0.00576878
-0.00867429
-0.0058796
0.00741063
-0.00504391
-0.000528384
-0.0141703
-0.00971771
0.00533063
0.0179292
0.0181473
-0.0349364
0.0354919
-0.025036
0.0141688
0.0127552
0.00504459
0.0254906
0.00205854
-0.0244012
0.029081
-0.0162252
-0.0278223
0.0118497
-0.00209363
0.0110495
0.0156872
-0.025
0.00300436
-0.0390973
0.0138906
0.0218006
-0.00208878
-0.024864
-0.00129864
-0.0334813
-0.00830452
-0.0171249
0.00389293
0.0115742
-0.0251756
0.0114316
0.0301801
-0.0368487
0.0049073
-0.0342294
-0.051675
0.0621796
0.0663983
-0.0591528
0.0411278
-0.00385573
-0.0520298
0.055367
-0.00189015
0.0371351
0.0765894
0.002677
0.0467395
0.0603733
0.0085116
-0.0680749
0.0378138
0.00853787
0.0511255
0.0406875
-0.00682064
0.0383329
0.0041312
0.00363132
0.0307174
-0.0284719
0.0138668
-0.0227248
-0.0123457
-0.00962012
-0.0159437
-0.0192581
-0.0358363
0.00301605
-0.0130788
-0.021863
0.00101428
-0.00761827
-0.0216994
0.00274967
-0.00234225
-0.00389311
-0.00290092
0.000582958
0.00336112
-0.00450061
0.00453091
0.00566565
-0.0124639
0.00963357
0.0158719
0.0096981
-0.0124095
0.0229834
0.0173598
0.0240232
0.00482934
0.0166779
0.00440832
0.00418549
-0.0175228
0.0362742
0.0125854
-0.0177699
0.0237887
0.0161375
0.0254029
0.0142585
0.0351105
0.0206025
0.0338692
-0.0287471
0.0339965
-0.00864216
0.0344757
0.0168919
0.0148235
0.0351672
0.0057872
0.0326057
0.0345732
-0.00426586
-0.10786
-0.0364332
-0.0639333
0.00929186
-0.112968
-0.0145382
-0.0506708
-0.0678083
-0.0191431
0.0229634
0.0505845
-0.0195503
-0.0767027
-0.0370192
-0.0406488
-0.0535224
-0.00212315
0.00680968
0.0328484
0.0463815
-0.0104116
-0.0314306
-0.0401362
0.00715397
-0.0357543
0.0389987
-0.0385963
-0.0590682
0.050932
-0.0284499
-0.0667603
0.0174171
0.0121181
-0.034681
-0.0430404
0.0319067
-0.0294885
0.0508117
0.00501115
-0.0103083
0.0335594
-0.0357094
0.0043752
-0.0165395
-0.017431
-0.00679663
-0.125114
0.00958742
0.119952
-0.00822328
-0.0848745
-0.039837
0.0192037
-0.0533691
0.0504754
-0.0207649
-0.0353246
0.0299146
-0.00969305
0.0142095
-0.0175302
0.00659569
-0.0224549
-0.00718699
-0.0506136
-0.0078022
0.00121037
-0.0209896
-0.0302297
-0.0328761
-0.0314876
-0.0461007
-0.00496372
-0.0301292
-0.00836319
-0.000496395
-0.0312943
-0.0457138
-0.0055874
-0.0286901
-0.023374
-0.000187343
-0.0298758
-0.0301149
0.0136284
-0.0326131
-0.0287569
-0.0010517
4.581e-06
0
1.40327e-05
0
0
-1.72227e-06
7.6554e-06
-1.78118e-05
1.20725e-05
2.88816e-06
8.7089e-07
-0.0439958
-0.0124827
0
0
0
0.0710762
0.0246499
0.040945
0.00501196
-0.00373432
0.0602476
0.0302581
-0.013688
0.0635661
0.0265071
0.0211544
0.0543994
0.0390973
-0.0213686
0.0469765
0.0328307
0.0226302
0.0505151
0.0238094
-0.0251914
0.0378125
0.0274125
-0.0344491
0.0478072
0.0359065
0.0173881
0.0498539
0.024714
-0.0210188
0.035028
0.0338529
0.0112943
-0.0424723
-0.0131114
0.0053615
-0.0268302
-0.0189924
0.0155044
-0.0267709
-0.0179398
-0.0074615
-0.0258024
-0.0136215
0.0100682
-0.0156043
-0.00705867
-0.00886466
-0.00733416
-0.00234418
-0.0106191
-0.00968481
0.0024779
0.0177132
-0.00107855
0.00834115
0.0130775
-0.0127921
-0.0279267
-0.0115316
0.013176
-0.0213124
-0.0293069
-0.0164219
-0.00718729
0.0314331
-0.010818
-0.0135701
-0.00357189
0.0161856
-0.00421104
0.00993213
0.0164214
-0.019476
0.00287249
0.0251473
-0.0179102
0.0086405
0.0239906
-0.0137842
0.0037924
-0.0170663
-0.0419186
0.00150697
0.0402404
0.00161148
0.037623
0.0425603
0.000119864
-0.044369
-0.0011384
0.0421343
-0.0327542
0.00799523
0.0351317
-0.037251
0.000584631
0.0352522
0.00544067
-0.0378435
-0.0404756
-0.0197439
-0.00917509
-0.0658257
0.0302822
-0.0116937
-0.0508797
0.0612373
0.0540045
-0.0676045
0.0657927
0.00472377
-0.0492212
0.041598
0.00754013
0.0500338
0.0518329
0.0025031
0.0428287
0.0543698
0.00456199
-0.0433728
0.0331557
0.00407977
-0.0386695
0.0305921
-0.000551672
0.0326889
0.00175603
0.00410158
-0.0133695
0.01597
-0.00223354
-0.0124785
-0.0225029
-0.0149704
-0.00162591
-0.0303435
-0.0291353
0.000611347
-0.0231945
-0.0373311
0.000680824
-0.0114711
-0.019894
0.00109277
-0.00540429
-0.0119119
0.000375429
0.00164574
-0.00191545
-0.00138641
0.00460859
0.00792827
0.00985715
0.0100682
0.015786
-0.0136749
0.00605708
0.0219271
-0.00763235
0.0210776
0.0165052
0.0104964
0.0240488
0.00342141
0.0160086
0.0364897
0.013846
0.0195092
0.0352975
0.0122491
-0.0177512
0.0121917
0.0361825
-0.0193787
0.0328228
0.0265933
0.0100593
0.0344914
0.0149527
0.0158472
0.0384536
0.0368935
0.00833824
0.0451529
0.0441773
-0.00278902
0.0437139
0.0455317
0.0430458
-0.000945731
-0.0195457
-0.0806666
0.0111828
-0.0082625
0.162752
0.00214464
0.000434736
0.090799
-0.041086
-0.0162412
0.0613392
-0.0461916
-0.0365567
-0.069684
-0.00277645
-0.0603659
0.0196628
-0.0240875
-0.0455993
-0.0106537
-0.0258031
-0.0332524
-0.0137223
-0.0324494
-0.0227718
-0.00837251
-0.0431527
0.0379242
-0.0293266
-0.0502441
0.0290314
0.0343506
-0.0393363
-0.0541775
0.0247201
-0.0168418
0.0334739
0.0153664
0.00178132
-0.0325794
-0.0329119
0
-0.0626802
-0.042093
0.0497051
0.0478822
-0.101828
0.000408035
-0.0371953
-0.00102968
-0.071746
0.0572957
0.0427803
-0.0714013
0.0156853
0
0
0
0
0
0
0
0
0
-1.21974e-05
0
-6.39097e-06
0
-1.34016e-05
-6.70562e-08
-8.22828e-06
8.42524e-06
4.24627e-06
-2.90168e-05
0
0
9.34296e-06
0
0
0
0
0
0
0
0
0
0
0
0
0
0
0
0
0
0.0135559
-0.017798
-0.0022913
-0.00350023
0.00463072
-0.00175686
0.0112871
-0.0205363
0.00310626
-0.0581823
-0.0333221
0.00350639
-0.044929
-0.0145254
-0.0152311
-0.0320588
-0.0231544
0.00991746
-0.0350585
-0.0422294
-0.00585901
-0.0261596
-0.0122852
-0.023518
-0.0417236
-0.0349039
-0.00675249
-0.0315091
-0.0137527
-0.0276168
-0.0327152
-0.0124982
-0.0247479
0
8.58078e-06
0
0
0
0
0
0
0
3.28315e-06
0
0
0
0
0
0
0
0
0
0
0
0
0
0
0
0
0
0
0
0
0
0
0
0
0
-0.00439209
0.0183363
-0.0109767
0.0346302
0.0195725
-0.00875759
0.0418101
0.0183089
-0.0177115
0.0538543
0.0284496
0.0119464
0.0643423
0.0388194
-0.0222195
0.0579491
0.0352721
0.0269517
0.0634405
0.0420464
0.0273031
0.0581793
0.0283872
-0.0200907
0.0351659
0.0291485
-0.0079004
0.0184543
0.0346987
-0.00562611
0.0149494
0.00857073
-0.00765413
-0.0556846
-0.00569841
-0.0433646
2.06561e-05
0
0
-3.98479e-05
-2.09277e-06
0
0
2.43799e-05
0
0
0
0
0
0
0
0
0
0
0
0
0
0
-0.0304625
-0.0157723
0.0137723
-0.0268278
-0.0138454
0.0135086
-0.02078
-0.00861688
-0.0111108
-0.0118228
-0.00333279
-0.0108627
-0.0062269
0.00246203
-0.0137185
-0.0115887
0.00236577
0.0204163
-0.0141516
0.000995117
-0.0226471
-0.0241155
-0.00348609
0.0273099
-0.024835
0.000483669
0.0233159
-0.0430841
-0.00384599
-0.0330571
-0.0116234
0.00440125
-0.0138097
-0.0166225
0.00550863
0.0186106
-0.0081955
0.00485663
-0.0191401
-0.0144658
0.0014411
0.0200481
-0.0112749
0.0041193
-0.0215658
-0.00993311
0.00643001
0.0172672
0.000376402
0.0418539
0.0425337
0.000191144
0.0411264
0.00126263
-0.0410227
-0.0422989
0.0410833
-0.000687716
0.0421047
-0.00270464
0.0403524
-0.0421093
-0.00421575
0.0401655
-0.0419427
-0.00195101
0.0420547
-0.0414469
-0.000586765
-0.0381334
-0.0484857
-0.00870805
-0.0416508
-0.00198604
-0.0482239
0.036757
-0.0178729
-0.0281004
0.0344372
-0.0406336
-0.0104945
-0.0364975
-0.0301449
0.0364171
-0.0456347
0.0472489
0.004517
0.0509074
0.0661383
0.0119732
-0.0507794
0.0564281
0.0109243
-0.0475283
0.042301
0.0122747
-0.0357704
0.0319082
0.0156949
0.022549
0.0183692
0.0136586
0.0128541
0.00242316
0.00724561
0.00258263
-0.00308432
-0.0137668
0.00196533
-0.0362956
-0.0149211
-0.00697797
-0.0366478
-0.0292264
0.00827471
-0.0255052
-0.0328855
0.00200765
-0.0124839
-0.0233397
-0.0118047
-0.00267073
-0.0177298
0.00382649
0.00406228
-0.00662573
0.00450034
0.00960447
0.00953035
-0.00911316
0.00601685
0.0169444
0.010545
0.00961912
0.0167208
0.0170277
0.0185636
0.0102236
0.0196543
0.0259627
0.00578119
-0.00967422
0.0344086
0.013691
0.0214992
0.0297506
0.0121721
0.0193098
0.0147879
0.0366034
0.0170407
0.0343629
0.0244347
0.0110289
0.0370891
0.0174283
0.0151839
0.035728
0.0398763
0.00968952
0.0402684
0.0409717
0.00339683
0.0414655
0.0412315
0.00405594
0.0405839
0.0414853
-0.00182632
0.0423308
0.0445245
0.0430797
0.00534882
-0.00788669
0.0023208
0.0464282
-0.053394
0.0498378
0.043028
0.0556761
0.0410932
0.0530844
0.0115581
0.0471169
0.00859647
-0.0594257
0.055363
0.0130123
0.0498468
0.00929424
0.064602
0.0604937
0.0135281
0.0487275
0.00980255
0.065621
0.0627078
-0.0150826
-0.0548339
0.014475
0.0753669
0.0633849
0.0193338
0.0643336
0.0179782
0.0858905
0.0731723
0.0224705
0.0675108
0.0193075
-0.0896273
0.0859961
0.0260255
0.0208469
0.0626775
-0.0846049
0.091846
-0.028126
-0.0231051
-0.0679191
0.0440734
0.0228309
-0.0899595
-0.0450358
0.0127046
-0.138123
-0.0356298
-0.0103449
-0.0613191
-0.0101942
0.0137503
-0.00411749
-0.0271186
0.0351312
-0.0579426
-0.0189279
0.0294453
0.0059994
-0.00937527
-0.0167101
-0.00400652
-0.00688381
-0.0120984
-0.0170601
-0.0191666
0.0128448
-0.0199949
-0.0294021
0.0151366
-0.0245463
-0.0388115
-0.0195138
0.0252529
-0.0160144
0.0223789
0.0328153
0.0113481
0.0342114
0.00626558
0.0172
0.0109545
-0.0201338
0
0
0
0
0
-0.16177
0
-0.053505
-0.0302285
-0.0049954
0.0867572
0.0190068
0.019232
0.0038397
0
0
0
0
0
0
0
4.78718e-05
-9.78613e-05
0
0
0
0
0
0
0
0
0
0
0
0
-4.97207e-05
0
0
0
0
0
2.07103e-07
1.4215e-06
0
-3.78389e-06
0
-3.16993e-06
0
0
0
-2.92888e-06
0
0
0
5.98305e-05
-2.39442e-06
-5.48782e-05
-7.97455e-05
-0.000151875
-5.92225e-07
1.35646e-05
0
-0.000137648
3.21157e-05
0
-3.57228e-05
0
-0.000133703
0
0
0
0
0
0
0
0
0
0
0
0
0
0
0
0
0
0
0
0
0
0
0
0
-0.0135208
-0.0643414
-0.00823164
-0.00573731
-0.035591
-0.0208038
-0.0288083
-0.0267695
-0.0429875
-0.0220551
-0.011449
-0.0133482
-0.0287756
-0.0226409
0.0322013
-0.0353921
-0.0308904
0.00299059
-0.0364126
-0.00828123
-0.0238754
-0.0364497
-0.0293715
0.0202796
-0.0140996
-0.0408943
-0.0266218
-0.0181936
-0.0329145
-0.0216789
-0.0252911
-0.0113976
-0.0206256
0
0
0
-2.65085e-05
2.50238e-05
5.30377e-05
0
0
0
0
0
0
3.92062e-05
0
-1.44869e-05
0
0
0
0
0
0
0
0
0
0
0
0
0.0374336
0
0.0013275
0.0376055
0.0107024
-0.0116912
0.0274003
0.0164806
-0.0218299
0.0333282
0.0126102
0.00961823
0.0614753
0.0350698
-0.0193773
0.0630289
0.0410445
0.0235418
0.0464739
0.033193
-0.0102222
0.0575282
0.00706316
-0.00598097
0.0604267
0.0503265
-0.0216866
0.0238203
0.0264311
0.00465435
0.00362219
0.0318544
-0.00780412
0.0125675
0.0473384
0.0051823
0.0029453
0.00241101
0.0318024
0
0
0
0
0
0
0
-4.23696e-07
0
2.28336e-07
0
-3.41658e-07
-9.63858e-08
0
0
0
0
0
0
0
0
0
0
0
0
0
0
0
0
0
0
0
0
0
0
0.00492624
0
0.0124037
-0.0294136
-0.0132137
-0.0178078
-0.0238285
-0.0111013
-0.0160029
-0.0161885
-0.00716697
-0.0138788
-0.00958099
-0.00210128
0.0178522
-0.00813722
0.000240145
-0.0192289
-0.0111988
0.000635944
-0.0207503
-0.0216961
-0.000570303
-0.018557
-0.0302116
-0.00286633
0.0313446
-0.0337218
-0.00371705
-0.0243066
-0.0418207
-0.00393945
0.0298709
-0.0122112
0.00803951
0.0117319
-0.0205895
0.00245941
-0.0132927
-0.0122511
-0.000345659
-0.0177925
-0.0141488
-0.00145676
-0.0195993
-0.0098592
0.00336983
0.0223241
-0.0115971
0.00587128
-0.0173907
-0.00316648
-0.0477996
-0.0460492
-0.00239948
-0.0430928
-0.0399027
-0.00290476
-0.0450428
-0.0408665
-0.0465944
-0.00665501
-0.0402005
0.00380072
-0.0499055
0.0589817
-0.000826018
-0.0527519
-0.0553558
-0.054938
0.00611134
-0.0623907
-0.0560065
0.00570915
0.0672096
-0.061987
0.00885643
-0.0757815
-0.0702671
0.0128023
-0.0870144
-0.0721961
0.0133976
0.0876735
-0.0667984
0.0128359
0.0814778
0.0209667
0.0876186
-0.0282602
-0.0533695
0.0760077
0.0127328
-0.0585654
-0.0740774
-0.0460728
-0.00560135
-0.0442933
-0.0474385
-0.00586907
0.0415732
-0.050194
-0.00813127
-0.0447854
-0.0502805
-0.0455701
-0.000988816
-0.00593341
-0.0465555
0.0346571
-0.012547
-0.0149569
-0.0358803
0.0296063
-0.00892171
-0.0524759
0.0369021
0.062787
-0.0320512
0.0556084
-0.00139434
0.0338873
0.0476861
0.00785268
-0.0392568
0.0470588
0.0127068
0.0350835
0.0408111
0.0214055
-0.0197998
0.0300422
0.0311341
0.00602765
0.00304345
0.0325484
0.00843475
0.00429532
0.0148302
-0.0258282
-0.0213612
-0.0273898
0.0215228
-0.040606
-0.00466763
-0.0216255
-0.0363417
-0.0235858
-0.0123984
-0.0134727
-0.0236925
-0.0126869
-0.0122133
-0.0199162
0.013856
-0.00155764
-0.0200724
-0.00806065
0.00310055
-0.00377161
-0.00397755
0.00222652
0.00479024
0.0150875
0.00522214
0.0116098
-0.0134411
0.00612447
0.022311
0.0158056
0.023848
0.00719673
0.0166245
0.0221797
0.00807027
-0.0150317
0.032948
0.0146552
-0.0209796
0.0276865
0.00933183
0.0215987
0.0181759
0.0349899
0.0193959
0.0360129
0.0258336
0.0116804
0.0372423
0.0199847
-0.0141904
0.0323684
0.0358803
0.00977314
0.037516
0.0381755
-0.00579609
0.0386025
0.0436936
0.00616026
0.0383793
0.0454983
0.00648838
-0.0100121
0.0470974
0.0389568
0.0382308
0.0504763
-0.0129336
0.0391314
0.0535432
0.0145852
0.0433243
0.0546691
0.0169194
0.0443209
0.0606804
0.0174765
0.0433561
0.0612483
0.0196194
0.049638
0.0625762
0.0227843
0.0593292
0.0723251
0.0266713
0.0631187
0.0858745
-0.0310717
0.0584066
0.0925798
0.0339536
0.0486556
0.0783076
0.0899903
0.0354704
0.0464927
0.0280383
0.0769088
0.0813787
-0.0357556
-0.0407103
0.0292988
0.0741954
0.036994
0.0810924
-0.0729891
-0.0494112
-0.0339443
0.00821316
-0.0127224
-0.0616483
-0.00608448
0.0511371
-0.00805525
0.00762281
0.0462633
0.00151595
0.0158815
0.0207814
-0.0219242
-0.0326322
0.0430317
-0.0286615
-0.0465001
-0.0453188
-0.0212785
0.0256655
0.00230126
0.00698339
0.000106199
-0.0069766
0.00457628
-0.00784501
-0.0102371
0.00275931
0.00261597
-0.0199249
-0.0119231
-0.004777
-0.0214009
-0.0193947
0.00171476
0.0490557
0.0178295
-0.0271982
0.0235864
0.0836316
-0.000325055
0.00621251
0.0441514
-0.000925497
0
0
0
0
0
0
-0.082007
0
0
-0.253128
0
-0.0904784
0.0218609
-0.139241
-0.196647
0
-2.7571e-05
-4.85705e-05
0
0
0
0
-0.00022249
0
0
0
0
0
0
0
0
5.49645e-09
-4.78839e-07
0
0
0
0
0
0
0
0
0
0
-1.44167e-05
0
0
0
0
4.22231e-05
0
0
-0.000173216
0
0
0
0
0
0
0
0
0
0
0
0
0
0
0
0
0
0
0
0
0
0
0
0
4.84626e-07
0
0
0
0
-0.0370311
-0.0562125
-0.00435988
-0.0108988
-0.00767693
-0.0416632
-0.0285296
0.00720719
-0.0440536
-0.0395472
-0.033993
-0.0109722
-0.0334126
0.00760537
-0.0330854
-0.040889
-0.0210912
0.0197301
-0.0377546
-0.0136133
0.0390997
-0.0287155
-0.0346517
0.0206403
-0.0126075
-0.0333731
-0.0183303
0.0149053
-0.0440557
-0.0150403
-0.0191178
-0.0301256
-0.0138558
-3.23235e-05
0
-8.60452e-06
6.30698e-05
-1.22351e-05
-1.04891e-06
0
0
0
0
0
0
0
0
0
0
0
0
0
0
0
0
0
0
0
0
0
-0.0435396
0
0.036534
0.0184875
-0.0167468
-0.020859
0.0169903
-0.00312324
0.00672181
0.0456808
0.0248058
-0.0152191
0.0665475
-0.0224873
0.0351419
0.062672
0.0449421
0.0220069
0.0463864
0.0535564
-0.0315234
0.0369439
0.0501981
-0.00683491
0.0376671
0.0300787
-0.00609088
0.0346058
0.061711
0.0111095
0.000966679
0.0169439
0.0256695
0.0128276
-0.0106762
0.00863913
-0.0134377
0.0429391
-0.0251336
0
0
0
0
0
0
0
0
0
0
2.70358e-07
0
0
0
0
0
0
0
0
-0.00754176
0
0
0
0
0
0
0
0
0
0
-0.00938257
0
0.00282854
0
0
0
0
0
0
0
0
0
0
-0.00657578
0
-0.0290621
-0.0115098
-0.0205816
-0.0227224
-0.0112456
0.0179344
-0.0167589
-0.00781011
-0.0185881
-0.0143407
-0.00231051
0.0228959
-0.0340113
-0.0100679
-0.0309718
0.0217443
-0.0183595
-0.0046477
-0.0200478
-0.0215647
-0.0045239
0.0209756
-0.0286109
-0.00503539
-0.0185435
-0.032216
-0.00177506
0.0310125
-0.0336251
-0.0045724
-0.0304217
-0.0360719
-0.00392424
-0.0332236
-0.0137382
0.00323343
-0.0120508
-0.0205718
-0.00419212
0.0119252
-0.0231144
-0.00643962
-0.0196894
-0.0215033
-0.00204378
0.0260316
-0.0172106
0.00558563
-0.0246521
-0.0191253
0.000206737
0.0210837
0.00439095
-0.00586496
0.0630106
-0.050747
0.0476155
-0.0528477
0.0207166
0.0601935
0.0569597
0.0498676
-0.0667314
0.0719248
-0.0607002
-0.00976739
0.0516306
0.0772771
-0.0288331
0.0334279
0.0771849
-0.0403013
0.0669476
-0.034507
0.0702453
-0.0464408
0.0388185
0.0750412
-0.0397714
0.0837703
-0.0498516
0.0412901
-0.0806302
0.0871267
-0.0592092
-0.0443962
0.0435544
0.0818664
-0.0508693
0.0209302
0.0742996
-0.0454931
0.0217156
-0.0728761
-0.0333443
0.0268113
0.067197
-0.00648667
-0.0527273
-0.0468057
-0.00651458
-0.047404
-0.0395725
-0.00751421
-0.049546
0.0410837
-0.051128
-0.00985145
-0.039426
0.00132294
-0.0558902
0.0620505
-0.00380218
-0.0602551
0.0519984
-0.0622508
0.00641449
0.067248
-0.0677922
0.0029196
0.0760958
-0.0769134
0.00596473
0.0852797
-0.078375
0.00667592
0.0864129
-0.0718734
0.00537624
0.0788616
-0.0642105
0.00510141
0.0721819
0.0129294
-0.0560632
0.0728343
0.0059192
-0.0619256
0.0711978
-0.00596561
-0.0503862
-0.0427814
-0.0496095
-0.000529138
-0.0508027
0.0471264
-0.0509597
-0.00711514
-0.0403673
-0.00439587
-0.0511085
0.0358912
-0.00701247
-0.0447055
-0.0370029
0.0364478
0.0421641
0.0854133
0.0451875
0.0253354
0.0825353
-0.050066
0.0338064
0.0758827
0.0556956
0.0298629
0.0912287
0.0592744
0.0103835
0.0898022
0.0617805
-0.0030387
0.0649438
0.062994
0.0124611
0.0638089
0.0660657
0.0721172
0.0133561
0.0810402
0.0672081
-0.00614979
-0.0035696
0.0580648
0.0537417
0.00819755
-0.0376906
0.0521957
0.0414007
-0.049355
0.0500139
0.0163082
-0.0384333
0.0484159
0.0172298
0.0305452
0.0425699
0.0213773
0.0207613
0.0401051
0.0329759
0.00286094
0.0285329
0.0435993
0.00685907
-0.0130324
0.0408373
-0.0196231
0.00463206
0.0103391
-0.0340038
-0.0348602
-0.0335001
0.0304944
-0.0366381
-0.00391364
0.0247374
-0.0134714
-0.0079282
0.00980397
-0.00291965
0.0203637
-0.0246865
-0.00772806
-0.0156001
0.0131499
-0.00541733
-0.0177088
0.000969728
-0.00650366
-0.00904983
0.00771378
-0.00773353
-0.000120372
-0.0119424
0.000510148
0.00369899
-0.0151262
0.00692842
0.017591
-0.0127129
0.0233203
0.0087914
0.0148381
0.0232093
0.0051924
0.0132084
0.0307034
0.0139074
-0.0197126
0.0266111
0.010177
0.0207045
0.0161008
0.0343676
0.0190552
0.0323492
0.0241735
0.0108226
0.0331868
0.0188818
-0.0114686
0.0314811
0.0338072
-0.0104275
0.0394033
0.0403972
0.0107198
0.0396158
0.0502132
0.00896436
-0.00997027
0.049278
0.0360042
0.0391797
0.0454225
-0.014224
0.0360775
0.0521018
0.0155523
0.0370336
0.0524177
0.0173257
0.040407
0.0553512
0.019663
0.0403851
0.0595899
-0.021245
0.0385238
0.0612207
0.0233219
0.0449495
0.0610242
-0.0261194
0.0546714
0.0704659
-0.0302653
0.0585173
0.0855667
0.0347362
0.0533851
0.0944357
-0.0391695
0.0431436
0.0923924
-0.0415655
-0.0433355
0.0839686
-0.038721
-0.0465548
0.043376
-0.00106715
-0.0724707
-0.0478803
0.00161005
-0.0299566
-0.0824655
0.00427422
-0.0163451
-0.0234463
0.0274427
-0.00848008
-0.0187357
-0.0362051
0.012416
-0.0330353
0.0419631
0.0508356
-0.0217737
-0.0526916
-0.0324949
-0.00308683
0.0108352
0.000720565
0.00324339
0.025334
-0.000505774
0.0197317
-0.024042
-0.0176616
0.0160134
-0.0293341
-0.0228235
0.0052805
-0.0180186
-0.026024
-0.00985455
0.0165748
0.0559716
0.152458
0.13912
-0.0164841
0.0380228
0.0727161
-0.000590121
-0.0166809
0.0310354
-0.047747
0
0
0
0
0
0
0
0
0
0
0
0
-0.0247842
0
-0.0919924
0
0
0
0
0
0
0
0
0
0
0.00323193
0.0020572
0
0
0
0
0
0
0
0
0
0
0
0
0
0
0
0
0
0
0
-3.69483e-06
6.94745e-06
0
0
0
0
-9.78923e-05
8.54423e-05
0
0
0
0
0
0
0
0
0
0
0
0
0
0
0
0
0
0
0
0
0
0
0
0
0
0
0
7.576e-06
0
-3.43291e-05
0
0
0
-5.90706e-06
0
1.32961e-05
0.0665114
0.0422215
-0.0764158
0.00158922
0.0861378
-0.073714
0.065864
0.0099631
0.0304438
-0.00394535
-0.00486242
0.0425322
-0.028432
0.0290907
-0.0341451
-0.0352021
0.00410229
-0.0300822
0.0118862
0.039752
-0.0398021
-0.0233273
-0.0313044
-0.0420495
-0.000510035
-0.018845
-0.0422541
-0.00904076
0.043753
-0.0354651
-0.0254137
-0.0104801
-0.0350634
-0.0253463
0.00830075
-0.0175257
-0.0254481
1.18739e-06
0
0
0
0
0
0
0
0
0
0
0
0
0
0
0
0
0
0
0
0.0502994
0.0635782
-0.0191655
0.0362661
0
0
0
0.0122074
-0.0204848
0.0393441
-0.00219293
0.0577261
0.00773936
0.0117731
-0.0125958
-0.0158666
0.0285522
0.0161965
0.0151519
0.0190661
0.015825
0.0566044
0.0494383
-0.00451075
0.057906
0.0297154
-0.0062578
-0.0473931
-0.0256666
0.00909302
0.0278402
0.0440688
0.0311732
-0.00819407
0.0243521
0.0482182
0.0203412
0.0305969
0.0353839
-0.0225641
-0.0218107
0.0278167
0.0363175
-0.0683136
0.00146729
0
0
8.98473e-06
9.02996e-07
0
0
0
0
0
0
0
0
0
0
0
0
0
0
0
0
0
0
0
0
0
0
0
0
0
0
0
0
0
0
0
0
0
0
0
0
0
0
0
0
0
0
0
0
0
0
0
0
0
0
-0.0320542
-0.0370441
-0.0073404
-0.0259788
-0.0275061
-0.0113414
-0.0175581
-0.0223803
-0.00899589
-0.0170358
-0.0231672
-0.00827551
-0.0190687
-0.0254142
-0.00548602
0.0185726
-0.0071371
-0.02712
0.0188835
-0.0311507
-0.0101892
-0.0172491
-0.0345645
-0.0108017
0.0206965
-0.0296532
-0.00756455
-0.0201929
-0.0370609
-0.00707935
-0.0313187
-0.0409339
-0.00496228
-0.0358558
-0.0443723
-0.00873171
0.0322275
-0.0195259
-0.00380453
-0.0171911
-0.0212665
-0.0082789
0.0136637
-0.037341
-0.00863983
0.0312542
-0.0332338
-0.00491087
0.0372
-0.0278275
-0.00191699
-0.0325828
-0.0284966
-0.00598413
-0.0258292
-0.0139122
0.0359947
0.054927
-0.0231098
0.0418524
0.0774699
-0.0182051
0.0373312
-0.0720409
-0.0530727
0.0559797
-0.0418514
-0.0350542
0.032616
-0.0725142
-0.0382684
0.0379693
0.0808663
-0.0345006
0.0404049
-0.0774825
-0.0196123
0.0443555
-0.0607704
-0.0521365
0.0146287
-0.0722284
-0.0404939
0.0193681
0.0685897
-0.0392301
0.0267096
-0.0737208
-0.00858165
-0.0557344
-0.046727
-0.0100083
-0.0510318
0.0377019
-0.010399
-0.0541369
-0.0401516
-0.0541916
-0.0136553
0.0374683
-0.00803264
-0.0620457
0.0717803
0.0546229
-0.00744221
-0.0624835
0.0509912
0.00916437
-0.0751786
-0.0778273
-0.0162789
-0.0699869
0.0622332
-0.0824309
0.000537382
0.0827749
-0.0832609
-0.000472347
0.0826441
-0.0765168
-0.00128128
0.0760404
-0.0683531
-0.00127627
-0.0695127
-0.0657478
0.000273956
-0.0689414
0.0083434
-0.0582537
-0.0707108
0.00271118
-0.0627326
0.0701881
-0.050947
-0.0181148
0.0408161
-0.00593859
-0.0516197
0.0416531
-0.0110144
-0.0561659
0.0480059
-0.0545136
-0.0116233
0.0393666
-0.0159429
-0.0585616
-0.0394886
-0.0122188
-0.0535002
0.0344821
0.0404346
0.0404162
0.0903382
-0.0503943
0.0344899
0.0919754
-0.053151
0.0221676
0.0583184
0.0896752
0.0321172
0.0817854
0.0643927
0.0281702
0.0941534
-0.0645056
0.000644203
0.0959624
0.0683121
-0.0075007
0.064277
-0.0761943
0.00872527
0.0601743
0.079387
0.00851964
0.0869812
-0.0806045
0.0345316
0.09647
0.0197222
0.0655529
-0.0124864
0.0711665
0.0798572
0.0740607
0.00997188
-0.00449541
-0.0585303
0.0575551
0.00331626
-0.0548427
-0.0508809
0.0472483
-0.0367228
0.0454543
0.0138136
-0.0266104
0.0405401
0.0247173
0.0195382
0.0384749
0.0320843
-0.00545975
0.0374114
0.0444797
0.0124563
0.021375
0.0496902
-0.0224777
-0.0286908
0.0433759
0.0208046
-0.00304544
-0.00499494
-0.0402754
-0.0554738
-0.0353953
0.0370393
-0.00215197
0.00171503
0.00696615
0.00161735
-0.000842708
-0.00650493
-0.00500988
0.00932626
-0.0035223
-0.0131707
-0.00515471
0.00598886
-0.0175879
-0.0198895
-0.00176311
-0.0157269
-0.0208947
0.00782492
-0.00754433
-0.0135564
-0.00177658
-0.00252447
-0.00691795
0.00221942
0.00960125
0.00353743
0.00689836
0.0189857
0.0112189
-0.0170619
0.0186283
-0.000521017
-0.0135104
0.0296561
0.0144691
0.0176827
0.0254277
0.0123572
-0.0173951
0.0165433
0.0301121
0.0151201
0.0295805
0.0227509
0.0102639
0.0285008
0.0186334
0.00985392
0.0319328
0.0341234
0.0124115
0.0411004
0.0449909
0.0140153
-0.00626861
0.0509189
0.0315762
0.0440093
0.0192418
0.0338117
0.0503331
0.0180053
0.0340243
0.0505213
0.0186653
0.0344286
0.0519651
-0.0204317
0.0369329
0.0546561
0.0223907
0.0372341
0.059027
-0.0250629
0.0336393
0.0612897
0.0268633
0.040264
0.0587377
0.029853
0.0515552
0.0694703
0.0340229
0.0557614
0.087033
-0.0382735
0.0507245
0.0964299
-0.0432688
-0.0476436
0.0967089
-0.0605082
-0.0411495
-0.04532
0.0222591
-0.0444908
-0.0821229
-0.0323441
-0.0719948
-0.0798433
0.0326709
0.00984538
0.0682633
-0.102143
0.0177064
-0.0648913
-0.059499
0.00949025
-0.0415162
0.0525151
0.0335953
-0.0399036
0.0588791
0.0511469
-0.0258309
-0.0629664
0.0110311
0.0334922
0.0307576
-0.0057629
0.0282024
0.0777292
-0.0132603
0.0478747
-0.0690695
-0.0236858
0.0243453
0.0283355
0.00607469
0.0360858
0.0221309
0.00964274
-0.00266985
0.0730594
0.0548878
0.0105862
0.0448596
0.083158
0.224785
-0.00803651
0.089372
0.154089
-0.0951064
0.0328932
-0.16332
0
0
0
0
0
0
0
0
0
0
0.00382445
-0.0032743
0.016387
0
-0.0110017
0
0
0
0
0
0
0.00621246
0
-0.00226101
0
-0.00134048
0
0
0
0
4.45617e-06
0
-2.69961e-05
0
0
0
0
0
0
0
0
0
-1.67654e-05
-1.73155e-05
-2.78128e-05
0
-2.53187e-06
0
-5.17809e-05
-4.68747e-05
1.25039e-05
0
-9.09193e-05
0
0
0
0
6.80553e-06
0
-5.18468e-05
0
-7.69262e-06
-1.50819e-05
0
0
0
0
0
0
0
0
0
0
0
0
0
0
0
0
0
0
0
0
0
-3.47482e-06
0
5.35537e-06
0
0
0
-3.45827e-05
0
0
0
0
0
0
0
0
0.0632148
0.0484639
0.114807
0.0246433
0.0560373
0.0664904
0.00968858
0.0812659
0.097841
0.081351
0.0242254
-0.0526188
0.115247
-0.0132052
-0.025983
-0.0357209
0.0234371
-0.00106719
-0.0217297
-0.0385014
-0.033635
0.00845938
-0.0359277
-0.0340235
-0.0117351
0.0200784
-0.0252034
0.0161484
0.0355634
-0.0472445
-0.0242066
-0.0275248
-0.0381895
0.00401428
-0.0311167
-0.0381285
-0.0299109
0.00665015
-0.00945944
-0.0330189
0
0
0
0
0
0
0
0
0
0
0
0.0505243
0.0606102
0.0127511
0.0406574
0
0
0
0
0
0
0.030275
0.0155681
-0.0223668
-0.0138945
0.00786896
-0.0332529
0.0370385
-0.00498801
0.00465222
0.000900125
0.0193782
-0.0291916
0.0143391
0.0156367
-0.00300487
0.0116677
-0.00297997
0.00943959
0.0195932
0.00847306
-0.0285712
0.0437046
0.0545942
-0.0141362
0.0408934
0.0565357
-0.00110439
0.00804213
-0.0624819
-0.0305001
0.0523046
0.0457178
-0.0086088
-0.00597916
0.0360439