/*--------------------------------*- C++ -*----------------------------------*\
  =========                 |
  \\      /  F ield         | OpenFOAM: The Open Source CFD Toolbox
   \\    /   O peration     | Website:  https://openfoam.org
    \\  /    A nd           | Version:  8
     \\/     M anipulation  |
\*---------------------------------------------------------------------------*/
FoamFile
{
    version     2.0;
    format      ascii;
    class       volScalarField;
    location    "10560";
    object      Hclip;
}
// * * * * * * * * * * * * * * * * * * * * * * * * * * * * * * * * * * * * * //

dimensions      [0 1 0 0 0 0 0];

internalField   nonuniform List<scalar> 
526318
(
0.663613
0.627844
0.699348
0.61006
0.686731
0.633616
0.655258
0.56896
0.62896
0.509211
0.483606
0.615143
0.557754
0.595732
0.555302
0.57634
0.55558
0.754596
0.666382
0.707139
0.705207
0.65627
0.418379
0.662806
0.542413
0.414973
0.683465
0.679364
0.680451
0.690875
0.721414
0.769965
0.751539
0.637494
0.630973
0.597163
0.604688
0.693565
0.62805
0.576813
0.643964
0.607757
0.271347
0.322502
0.228742
0.281208
0.252484
0.374637
0.556948
0.452807
0.546375
0.532727
0.493851
0.45053
0.001
0.193565
0.190648
0.00112216
0.709616
0.723775
0.741631
0.699555
0.642762
0.769184
0.764012
0.720026
0.71244
0.709557
0.616368
0.610036
0.72112
0.494933
0.55361
0.443859
0.400208
0.391187
0.490425
0.483488
0.397466
0.437619
0.521216
0.522434
0.477533
0.42847
0.45858
0.527276
0.524552
0.506215
0.452604
0.529402
0.432014
0.382485
0.378086
0.305294
0.303492
0.307682
0.302901
0.303779
0.304107
0.300999
0.001
0.001
0.001
0.001
0.001
0.001
0.210857
0.0169181
0.338385
0.299474
0.33764
0.463907
0.683482
0.56909
0.678443
0.69448
0.759525
0.734691
0.776629
0.292908
0.298586
0.30322
0.302257
0.251225
0.302068
0.210983
0.248041
0.15797
0.21024
0.161599
0.157651
0.147748
0.124106
0.119102
0.147146
0.0842827
0.140203
0.090149
0.111983
0.054403
0.0599084
0.082206
0.111508
0.0953246
0.0538761
0.0527457
0.0703665
0.0571104
0.0529194
0.0608608
0.0712803
0.059268
0.0649025
0.065064
0.0634009
0.0297408
0.065847
0.0623466
0.0304828
0.001
0.0640945
0.013331
0.0696105
0.56122
0.656582
0.606873
0.582837
0.395957
0.46023
0.388276
0.393567
0.390112
0.392188
0.412856
0.39025
0.32509
0.299627
0.263082
0.205128
0.264037
0.304655
0.305945
0.306774
0.194412
0.247199
0.132667
0.139157
0.150369
0.146436
0.14359
0.144618
0.133306
0.136397
0.135084
0.119913
0.104318
0.12829
0.122879
0.0912277
0.0701905
0.098166
0.0844244
0.0726369
0.100246
0.0791706
0.0886118
0.0478544
0.07016
0.0972647
0.0924945
0.546096
0.562528
0.584728
0.577879
0.548706
0.545352
0.553677
0.425526
0.461223
0.213084
0.19001
0.187833
0.311848
0.452679
0.317221
0.360271
0.363672
0.308022
0.287132
0.001
0.001
0.001
0.137876
0.001
0.001
0.001
0.001
0.001
0.001
0.76085
0.744727
0.794284
0.786465
0.753551
0.742831
0.647454
0.741883
0.580984
0.527236
0.530651
0.525114
0.526319
0.52907
0.512058
0.51857
0.433052
0.49555
0.314742
0.370961
0.298022
0.312578
0.00100536
0.001
0.001
0.00100202
0.001
0.001
0.001
0.001
0.305194
0.125197
0.358637
0.358933
0.463514
0.5758
0.68767
0.700118
0.729664
0.706017
0.78005
0.803631
0.273208
0.278221
0.236112
0.208356
0.107719
0.142781
0.0694662
0.0810759
0.0714753
0.0642024
0.0525944
0.0605479
0.001
0.00876699
0.0434433
0.0725064
0.147865
0.112801
0.0574896
0.0615701
0.001
0.001
0.0368516
0.0822204
0.0148967
0.0518139
0.0525639
0.0208122
0.0204109
0.001
0.001
0.001
0.001
0.001
0.001
0.0632009
0.0998269
0.0595737
0.100047
0.460818
0.427137
0.320858
0.407708
0.327578
0.375366
0.389466
0.376835
0.391571
0.391255
0.305707
0.216077
0.143458
0.131367
0.198951
0.148047
0.134391
0.243844
0.134824
0.182623
0.127665
0.125876
0.131959
0.120458
0.137308
0.130539
0.129305
0.13729
0.134845
0.129877
0.139952
0.133671
0.147783
0.142871
0.142186
0.127848
0.141727
0.124692
0.0988568
0.0877737
0.124453
0.157488
0.152488
0.120827
0.104419
0.136458
0.179486
0.169772
0.171253
0.14666
0.17326
0.19567
0.227659
0.17639
0.198366
0.218669
0.252853
0.367401
0.445687
0.373347
0.401361
0.472616
0.539534
0.450073
0.309805
0.423167
0.323423
0.348333
0.0798605
0.0275535
0.0611413
0.0379875
0.162232
0.286709
0.213271
0.286137
0.286758
0.30504
0.283945
0.001
0.001
0.001
0.001
0.001
0.001
0.001
0.00100998
0.001
0.00100962
0.001
0.00100889
0.001
0.001
0.001
0.001
0.787844
0.777189
0.813008
0.804778
0.783324
0.748623
0.67668
0.589307
0.524001
0.536806
0.515319
0.515682
0.494348
0.50057
0.476495
0.475079
0.425257
0.471425
0.392033
0.33584
0.278872
0.238304
0.001
0.00113299
0.00113283
0.001
0.001
0.001
0.001
0.001
0.0011327
0.00113303
0.00100999
0.00100984
0.001
0.00100942
0.001
0.001
0.001
0.001
0.001
0.001
0.001
0.001
0.001
0.001
0.01064
0.001
0.223337
0.381294
0.394028
0.493507
0.711121
0.594634
0.716495
0.72493
0.730088
0.762476
0.793894
0.812654
0.196751
0.195373
0.149685
0.179429
0.117816
0.075721
0.0718248
0.0676098
0.0634165
0.068658
0.0213206
0.0171106
0.001
0.001
0.0326025
0.00510219
0.001
0.0240574
0.0181526
0.0410091
0.001
0.001
0.001
0.001
0.001
0.001
0.001
0.001
0.001
0.001
0.001
0.215544
0.193107
0.195526
0.191824
0.218244
0.322175
0.269324
0.253536
0.148899
0.182932
0.166755
0.170472
0.0692685
0.0106591
0.189823
0.304767
0.182093
0.196561
0.165444
0.252322
0.231105
0.305392
0.340264
0.265535
0.247486
0.279869
0.158306
0.131328
0.127233
0.129165
0.0454443
0.100523
0.0225718
0.001
0.001
0.0737754
0.0748173
0.120095
0.124583
0.121292
0.125423
0.126393
0.129226
0.126118
0.136095
0.129544
0.144214
0.141859
0.146444
0.14854
0.178523
0.161771
0.184862
0.188927
0.133214
0.126649
0.182304
0.166229
0.158531
0.170353
0.150749
0.141636
0.189065
0.166563
0.274103
0.285506
0.234006
0.282581
0.282931
0.257558
0.34603
0.313115
0.37981
0.40177
0.425337
0.337517
0.345823
0.343976
0.306426
0.283833
0.256868
0.345814
0.195807
0.173224
0.226209
0.247627
0.001
0.00111215
0.0579428
0.1842
0.211358
0.244649
0.150531
0.120995
0.0758999
0.0243616
0.001
0.001
0.001
0.001
0.001
0.00100068
0.001
0.001
0.00100979
0.001
0.001
0.001
0.001
0.001
0.001
0.001
0.001
0.001
0.001
0.001
0.001
0.00101
0.001
0.001
0.001
0.001
0.00116241
0.001
0.00108349
0.001
0.00116213
0.00116215
0.001
0.001
0.001
0.001
0.001
0.001
0.001
0.001
0.00100959
0.001
0.00100965
0.001
0.001
0.001
0.779675
0.793455
0.812152
0.803421
0.779777
0.708247
0.524958
0.610773
0.494694
0.499406
0.47967
0.472938
0.466006
0.469611
0.460582
0.46408
0.406466
0.374095
0.278544
0.319627
0.173752
0.217441
0.001
0.001
0.001
0.001
0.001
0.001
0.001
0.001
0.001
0.001
0.001
0.001
0.001
0.001
0.001
0.001
0.001
0.00100737
0.001
0.001
0.001
0.001
0.001
0.001
0.001
0.001
0.00101
0.001
0.001
0.001
0.001
0.001
0.001
0.001
0.197167
0.0259157
0.407341
0.362414
0.427709
0.540719
0.639163
0.721576
0.735776
0.718108
0.759114
0.792583
0.779545
0.777546
0.0011731
0.001
0.001
0.001
0.001
0.001
0.001
0.001
0.001
0.001
0.001
0.001
0.001
0.001
0.001
0.00101
0.001
0.178909
0.173152
0.177932
0.142545
0.0641007
0.0964895
0.0210532
0.0137983
0.001
0.001
0.001
0.001
0.001
0.001
0.001
0.001
0.001
0.001
0.001
0.001
0.001
0.001
0.001
0.001
0.001
0.001
0.001
0.001
0.001
0.001
0.001
0.001
0.409549
0.381128
0.419199
0.433221
0.383979
0.338125
0.508795
0.527187
0.590729
0.602259
0.150059
0.185295
0.247728
0.323198
0.14634
0.0894946
0.124803
0.133321
0.00101331
0.0236458
0.0711716
0.001
0.16764
0.171088
0.169407
0.166647
0.19451
0.175974
0.189655
0.198277
0.0745998
0.0775512
0.001
0.0610359
0.0509077
0.0126964
0.00100334
0.001
0.001
0.001
0.001
0.00969765
0.0719681
0.00317879
0.0726407
0.125367
0.120696
0.120877
0.122103
0.127289
0.146635
0.142198
0.159864
0.155612
0.176933
0.168701
0.190592
0.184425
0.188433
0.18246
0.196268
0.18629
0.226379
0.203107
0.164935
0.168538
0.236999
0.20728
0.212405
0.261942
0.2911
0.294783
0.290951
0.297338
0.32548
0.380364
0.43586
0.457139
0.467425
0.446621
0.587632
0.526134
0.653042
0.697406
0.685586
0.726205
0.7796
0.645703
0.736961
0.755389
0.831363
0.879997
0.906039
0.921919
0.951455
0.899796
0.953403
0.910862
0.989995
0.990544
1.03652
1.00678
1.07062
1.09673
1.0915
1.03732
1.10362
1.12671
1.09311
1.09006
1.15373
1.12971
1.16428
1.10428
1.10336
1.1697
1.13759
1.08811
1.08915
1.12128
1.15039
0.145142
0.115111
0.279438
0.281522
0.247642
0.236151
0.241766
0.00697304
0.140424
0.001
0.001
0.001
0.001
0.001
0.001
0.001
0.0735693
0.001
0.001
0.001
0.001
0.001
0.001
0.001
0.00101
0.001
0.001
0.001
0.001
0.00101
0.001
0.001
0.001
0.001
0.00160262
0.001
0.001
0.001
0.001
0.001
0.001
0.001
0.001
0.00129588
0.001
0.001
0.001
0.001
0.001
0.001
0.001
0.001
0.001
0.00100829
0.001
0.001
0.001
0.001
0.00102239
0.00114464
0.001
0.001
0.00102247
0.001
0.001
0.00101
0.001
0.001
0.00106212
0.00103721
0.001
0.00106226
0.001
0.00101
0.00101
0.001
0.001
0.001
0.001
0.001
0.001
0.001
0.001
0.0010078
0.001
0.001
0.001
0.001
0.001
0.001
0.001
0.001
0.00102189
0.001
0.001
0.770336
0.758368
0.7318
0.730754
0.649057
0.717107
0.54544
0.475012
0.467021
0.466923
0.466973
0.467965
0.404872
0.411188
0.255677
0.218932
0.171904
0.349696
0.34664
0.299453
0.298537
0.298117
0.001
0.001
0.00102327
0.00102325
0.001
0.001
0.001
0.001
0.00102327
0.001
0.001
0.00100893
0.001
0.001
0.001
0.001
0.001
0.001
0.001
0.001
0.001
0.001
0.00133861
0.00133877
0.001
0.001
0.001
0.00100196
0.026524
0.001
0.196078
0.357812
0.395285
0.421749
0.505118
0.619394
0.681754
0.661182
0.70452
0.640878
0.694042
0.728433
0.6905
0.684267
0.00118422
0.001
0.00101
0.001
0.001
0.00119578
0.001
0.001
0.00119578
0.001
0.001
0.001
0.001
0.001
0.001
0.001
0.001
0.001
0.00101
0.001
0.001
0.001
0.001
0.001
0.0016508
0.00101071
0.147093
0.150835
0.0679017
0.0881387
0.001
0.001
0.001
0.001
0.001
0.00141005
0.001
0.001
0.001
0.001
0.001
0.001
0.001
0.001
0.00127499
0.00127752
0.001
0.001
0.001
0.001
0.001
0.001
0.001
0.001
0.001
0.001
0.00122299
0.001
0.631173
0.642737
0.462261
0.37732
0.372828
0.351875
0.632112
0.547535
0.790748
0.871556
0.763658
0.69149
0.880389
0.86434
0.92862
0.977875
1.00692
1.00725
1.03537
1.00819
1.06268
1.08967
1.08477
1.08749
1.10592
1.08961
1.08853
1.13603
1.08042
1.07427
0.203326
0.119998
0.273161
0.343577
0.121003
0.0801246
0.132484
0.127523
0.001
0.0135577
0.001
0.00632588
0.001
0.169741
0.117868
0.173877
0.169826
0.175083
0.0562556
0.001
0.001
0.001
0.001
0.001
0.001
0.001
0.001
0.001
0.001
0.001
0.001
0.001
0.0163391
0.001
0.0713079
0.0160541
0.0594009
0.115843
0.149573
0.130594
0.160051
0.159977
0.174792
0.161732
0.195008
0.202386
0.203115
0.216453
0.221891
0.225826
0.264144
0.273587
0.264828
0.25704
0.265711
0.253588
0.273722
0.288991
0.332662
0.333646
0.296729
0.322046
0.318945
0.355432
0.385305
0.44602
0.477444
0.482875
0.494427
0.559507
0.645711
0.716257
0.736823
0.856595
0.731716
0.780813
0.927973
0.95395
0.955177
0.987243
1.04393
1.08409
1.10078
1.10116
1.13001
1.16167
1.18818
1.19134
1.18726
1.18434
1.19267
1.17312
1.10497
1.1672
1.13995
1.09395
1.09284
1.12604
1.15741
1.1659
1.09439
1.15237
1.11349
0.001
0.001
0.001
0.0788176
0.001
0.034396
0.172187
0.104803
0.130734
0.001
0.001
0.001
0.001
0.00317098
0.001
0.001
0.001
0.001
0.001
0.00128239
0.00128209
0.001
0.001
0.001
0.00104393
0.001
0.001
0.001
0.001
0.00135198
0.00135235
0.001
0.001
0.001
0.00160243
0.001
0.001
0.001
0.001
0.001
0.00101
0.001
0.00129569
0.001
0.00101
0.001
0.001
0.001
0.001
0.001
0.001
0.00105221
0.001
0.001
0.001
0.001
0.001
0.001
0.001
0.001
0.001
0.001
0.001
0.001
0.001
0.001
0.00105142
0.001
0.001
0.001
0.001
0.001
0.001
0.001
0.00101
0.001
0.00100962
0.001
0.001
0.001
0.001
0.001
0.001
0.001
0.001
0.680782
0.676731
0.660879
0.667007
0.593441
0.660436
0.468696
0.53147
0.426299
0.428641
0.373651
0.353501
0.298467
0.298347
0.212746
0.11196
0.0858391
0.25776
0.29706
0.298886
0.299911
0.300489
0.00102335
0.001
0.00102335
0.001
0.001
0.001
0.001
0.001
0.00100548
0.001
0.001
0.001
0.001
0.001
0.001
0.00100999
0.001
0.001
0.001
0.001
0.001
0.001
0.001
0.00101
0.001
0.001
0.001
0.001
0.0905667
0.001
0.233673
0.364471
0.342174
0.448232
0.618093
0.519944
0.595299
0.594455
0.591518
0.61495
0.674588
0.669046
0.670003
0.64895
0.001
0.001
0.001
0.001
0.001
0.001
0.001
0.001
0.001
0.001
0.001
0.001
0.001
0.001
0.001
0.001
0.001
0.001
0.001
0.00100999
0.001
0.001
0.0015744
0.001
0.00101
0.001
0.001
0.001
0.001
0.001
0.001
0.0261328
0.0259866
0.00101451
0.001
0.001
0.001
0.001
0.001
0.0706843
0.00928166
0.001
0.001
0.001
0.001
0.00100989
0.00128941
0.00128941
0.001
0.001
0.001
0.001
0.001
0.001
0.001
0.001
0.001
0.001
0.001
0.00100971
0.001
0.001
0.001
0.001
0.001
0.001
1.20907
1.21719
1.24662
1.22066
1.26347
1.25198
1.27886
1.26502
1.32333
1.31118
1.27792
1.33257
1.29079
1.34909
1.17716
1.13146
1.15156
1.19991
1.18086
1.15027
1.15511
1.20686
1.21178
1.18777
1.16796
1.21955
1.2041
1.21308
1.23681
1.09037
1.09132
1.09396
1.09127
1.11044
1.1331
0.676503
0.63685
0.51975
0.425265
0.335563
0.4201
0.618176
0.600739
0.838488
0.866327
0.75437
0.827069
0.869907
0.917867
0.965045
1.00662
1.00423
1.00502
1.00209
1.0327
1.04516
1.07407
1.05789
1.06594
1.06609
1.0765
1.05241
1.05481
0.256947
0.168839
0.12
0.114879
0.162582
0.343108
0.323094
0.0518379
0.106123
0.001
0.001
1.19723
1.21797
1.23216
1.23905
1.24495
1.25518
1.25963
1.28562
1.27146
1.28618
1.28595
1.33507
1.35902
1.3832
1.38882
1.3929
1.39922
1.42788
0.001
0.001
0.00144854
0.0911497
0.001
0.158969
0.0506077
0.001
0.00129466
0.001
0.00129472
0.00129464
0.001
0.001
0.001
0.001
0.001
0.001
0.001
0.001
0.001
0.001
0.00128654
0.001
0.0191247
0.001
0.104856
0.0526967
0.138212
0.102489
0.136274
0.161903
0.18626
0.20859
0.231118
0.227512
0.24489
0.234658
0.296635
0.277473
0.275448
0.27311
0.322767
0.301224
0.372382
0.330033
0.311813
0.355167
0.395696
0.3842
0.410944
0.443745
0.446609
0.392676
0.500032
0.534069
0.506459
0.489732
0.576997
0.658971
0.734039
0.796028
0.745873
0.759288
0.887061
0.946819
0.99238
0.96868
1.04026
1.06425
1.10645
1.12572
1.11778
1.13997
1.20127
1.17794
1.19089
1.19917
1.19878
1.19339
1.18737
1.18218
1.19158
1.19396
1.18769
0.001
0.001
0.00221714
0.001
0.001
0.001
0.001
0.001
0.001
0.001
0.001
0.001
0.001
0.001
0.00144848
0.001
0.001
0.001
0.001
0.00128177
0.001
0.001
0.001
0.001
0.001
0.001
0.001
0.001
0.00111152
0.00111149
0.00135099
0.001
0.00102335
0.001
0.001
0.001
0.001
0.001
0.001
0.001
0.00100984
0.001
0.0011114
0.001
0.001
0.001
0.00101
0.001
0.001
0.001
0.001
0.00239068
0.001
0.001
0.001
0.001
0.001
0.001
0.00100993
0.001
0.001
0.001
0.001
0.001
0.0010719
0.001
0.001
0.001
0.001
0.00107215
0.001
0.001
0.001
0.001
0.001
0.001
0.001
0.001
0.00101
0.001
0.001
0.001
0.001
0.001
0.001
0.001
0.001
0.001
0.001
0.00201758
0.001
0.001
0.001
0.001
0.00201753
1.38954
1.34721
1.31496
1.41871
1.4547
1.44817
0.657641
0.659556
0.647119
0.645955
0.567897
0.632935
0.467894
0.383557
0.311909
0.335167
0.297779
0.300476
0.302931
0.297313
0.176785
0.0924391
0.18325
0.263552
0.265158
0.001
0.001
0.001
0.001
0.001
0.001
0.001
0.001
0.001
0.001
0.00100943
0.001
0.001
0.001
0.001
0.001
0.00100998
0.001
0.001
0.001
0.001
0.001
0.001
0.001
0.001
0.001
0.001
0.0624071
0.208678
0.320187
0.321457
0.635342
0.557388
0.572083
0.359554
0.443787
0.537117
0.592712
0.590389
0.584525
0.603216
0.633883
0.625697
0.001
0.00114663
0.001
0.001
0.001
0.001
0.00100904
0.001
0.001
0.001
0.001
0.001
0.001
0.001
0.001
0.001
0.001
0.00100504
0.001
0.001
0.001
0.001
0.001
0.001
0.001
0.001
0.001
0.001
0.001
0.001
0.00101
0.001
0.001
0.001
0.001
0.001
0.001
0.022446
0.0614918
0.0485091
0.001
0.00100156
0.001
0.001
0.001
0.001
0.001
0.001
0.001
0.001
0.001
0.001
0.001
0.001
0.001
0.001
0.001
0.001
0.001
0.001
0.001
0.001
0.001
0.001
0.001
0.001
0.001
0.001
0.001
0.001
0.001
0.001
0.001
0.001
1.2081
1.22358
1.24564
1.26518
1.27538
1.27227
1.32651
1.29551
1.1469
1.14343
1.12722
1.14951
1.18108
1.14234
1.1834
1.16036
1.07774
1.06398
1.06427
1.09855
1.12789
1.0999
0.681274
0.617942
0.498921
0.594083
0.447075
0.345748
0.603758
0.609672
0.849946
0.846911
0.866586
0.766942
0.834158
0.949938
0.896971
0.843601
0.881842
0.982396
0.993114
0.986266
0.989857
1.00067
1.02178
1.05176
1.04098
1.05446
1.05054
1.05008
1.05133
1.05057
1.05208
0.0928188
0.100528
0.232959
0.326374
0.105371
0.165253
0.333497
0.350926
0.086287
0.0318964
0.001
0.00767477
1.2257
1.18449
1.20774
1.2486
1.2486
1.25038
1.25912
1.28014
1.30314
1.31249
1.31202
1.319
1.34313
1.38758
1.36802
1.38504
1.40857
1.45373
1.42401
1.2543
1.26493
1.28006
1.44934
1.45103
1.45486
0.00144829
0.00144824
0.00144833
0.001
0.001
0.001
0.001
0.001
0.001
0.001
0.001
0.001
0.001
0.00103472
0.001
0.00103468
0.001
0.001
0.001
0.001
0.00184276
0.001
0.001
0.001
0.0416012
0.0696656
0.001
0.040637
0.101695
0.0693693
0.194306
0.142915
0.208683
0.219158
0.233209
0.221558
0.271291
0.312963
0.34654
0.347694
0.352156
0.336493
0.366341
0.346289
0.394304
0.400594
0.423027
0.421259
0.397461
0.398451
0.522012
0.567413
0.465473
0.529431
0.579508
0.53995
0.642911
0.685868
0.784991
0.821479
0.797591
0.888535
0.94302
1.04411
1.02618
1.0857
1.06419
1.15802
1.16244
1.15949
1.18458
1.21459
1.2181
1.27186
1.23813
1.26877
1.22935
1.2228
1.25507
1.19624
1.2405
1.18606
0.001
0.001
0.001
0.001
0.001
0.001
0.001
0.001
0.00101
0.001
0.001
0.001
0.001
0.001
0.001
0.001
0.001
0.001
0.001
0.001
0.001
0.001
0.001
0.001
0.001
0.001
0.00105405
0.001
0.00111148
0.00111148
0.001
0.001
0.001
0.001
0.00101
0.001
0.0010004
0.001
0.001
0.001
0.001
0.001
0.00214528
0.001
0.001
0.001
0.001
0.001
0.00104194
0.001
0.001
0.00221242
0.001
0.001
0.001
0.00104191
0.00124906
0.001
0.00100983
0.001
0.001
0.001
0.00101
0.001
0.00107192
0.00107196
0.001
0.001
0.00107202
0.00107199
0.001
0.001
0.001
0.001
0.00151236
0.001
0.00151219
0.001
0.001
0.001
0.001
0.00100984
0.00101
0.00100994
0.001
0.001
0.001
0.001
0.001
0.001
0.001
0.001
0.001
0.001
0.001249
0.001
0.00100958
0.00100997
0.001
0.001
0.001
0.001
0.00101
1.35293
1.34503
1.34857
1.35654
1.38811
1.49654
1.46462
1.46443
1.49167
1.43806
0.569268
0.555694
0.490836
0.494718
0.448024
0.484594
0.393495
0.346779
0.333982
0.298526
0.275182
0.275276
0.181478
0.196914
0.0615532
0.102658
0.101193
0.001
0.001
0.001
0.00101
0.001
0.001
0.001
0.0010689
0.0378787
0.001
0.001
0.001
0.001
0.001
0.001
0.001
0.00101
0.001
0.001
0.0010219
0.001
0.001
0.001
0.001
0.001
0.437246
0.432007
0.480007
0.181837
0.316165
0.319978
0.35386
0.480357
0.545739
0.509851
0.417114
0.501523
0.524562
0.531169
0.453596
0.482992
0.001
0.001
0.00114667
0.00101
0.001
0.001
0.00101
0.00118755
0.001
0.001
0.001
0.00102979
0.001
0.001
0.001
0.00102598
0.001
0.001
0.00100839
0.00101018
0.001
0.001
0.001
0.001
0.001
0.00100577
0.001
0.001
0.001
0.001
0.00105568
0.001
0.00100563
0.001
0.001
0.001
0.001
0.001
0.001
0.001
0.001
0.001
0.001
0.001
0.001
0.0398356
0.0536947
0.064125
0.001
0.001
0.001
0.001
0.001
0.001
0.00146902
0.001
0.001
0.00146927
0.001
0.001
0.001
0.001
0.001
0.001
0.001
0.00104192
0.001
0.001
0.001
0.001
0.001
0.001
0.001
0.00117073
0.001
0.00104194
0.001
0.001
0.001
0.001
0.00101
0.001
0.001
0.00117071
1.21864
1.16789
1.25028
1.20615
1.21923
1.25526
1.2351
1.30154
1.26675
1.33979
1.29644
1.27675
1.33922
1.30927
1.11318
1.1116
1.10335
1.11505
1.12845
1.14016
1.13783
1.15008
1.05032
1.0507
1.07541
1.05922
1.09147
1.09946
0.692958
0.613242
0.526426
0.605593
0.400867
0.50142
0.60445
0.615079
0.843921
0.83503
0.839272
0.770258
0.929146
0.973344
0.88406
0.843715
0.979164
0.982
0.991835
0.982451
1.02012
1.03687
1.04858
1.04862
1.05094
1.04453
1.05182
1.04789
1.04882
1.04629
0.0974915
0.0844317
0.258286
0.32964
0.219754
0.153464
0.388888
0.332001
0.0663348
0.0889266
0.0573117
0.001
1.22373
1.27098
1.24659
1.26701
1.28614
1.27897
1.31112
1.32137
1.29713
1.31318
1.3028
1.31357
1.31936
1.34256
1.36899
1.38509
1.38951
1.43782
1.41121
1.46011
1.46396
1.33661
1.34951
1.46907
1.47703
0.001
0.001
0.001
0.001
0.001
0.001
0.001
0.001
0.00101
0.001
0.001
0.001
0.001
0.001
0.001
0.001
0.00184271
0.001
0.001
0.001
0.001
0.001
0.00100026
0.001
0.0559102
0.0600712
0.0234889
0.001
0.0930174
0.141899
0.193984
0.178263
0.204549
0.195401
0.312921
0.268701
0.366658
0.353425
0.381235
0.381967
0.36264
0.414708
0.456577
0.427891
0.416646
0.443366
0.493672
0.478596
0.461793
0.507681
0.59019
0.590859
0.582545
0.606405
0.736298
0.651549
0.821084
0.846299
0.845438
0.911999
0.988414
1.061
1.07112
1.08075
1.13
1.17869
1.21363
1.21997
1.25936
1.22779
1.28295
1.29987
1.29867
1.29709
1.29444
1.29512
1.2665
1.3036
1.25383
0.001
0.001
0.00689865
0.00102523
0.001
0.001
0.001
0.001
0.001
0.001
0.00101
0.00132925
0.001
0.00132863
0.00132921
0.0013289
0.0013292
0.001
0.00132914
0.00706859
0.001
0.001
0.001
0.00105823
0.001
0.00105758
0.00105664
0.001
0.001
0.00100217
0.001
0.001
0.001
0.001
0.00101
0.00103769
0.001
0.001
0.00100986
0.001
0.001
0.001
0.00185328
0.001
0.001
0.001
0.001
0.001
0.001
0.001
0.001
0.001
0.00100941
0.001
0.001
0.001
0.00100992
0.001
0.001
0.001
0.00101
0.001
0.001
0.001
0.001
0.001
0.001
0.0010008
0.001
0.001
0.001
0.00100949
0.001
0.001
0.001
0.001
0.001
0.001
0.001
0.001
0.001
0.001
0.00101
0.001
0.001
0.001
0.001
0.001
0.001
0.001
0.001
0.001
0.001
0.001
0.001
0.001
0.001
0.001
0.001
0.001
0.001
0.001
0.001
0.001
0.001
0.001
0.001
0.001
0.001
0.001
0.001
0.001
0.00106461
0.001
0.001
0.001
0.001
1.52118
1.50444
1.52909
1.52205
1.52733
1.52826
1.37004
1.3719
1.43653
1.40769
1.48039
1.50992
1.49186
1.38449
1.34573
0.430438
0.431241
0.429331
0.419618
0.434903
0.363155
0.407101
0.194416
0.251735
0.110755
0.117322
0.0673946
0.062618
0.0630288
0.001
0.001
0.001
0.001
0.001
0.0622095
0.001
0.001
0.001
0.001
0.001
0.001
0.001
0.001
0.001
0.001
0.001
0.00101385
0.00101379
0.001
0.00101272
0.001
0.001
0.001
0.435553
0.437209
0.434683
0.435507
0.436215
0.145655
0.259358
0.20633
0.325505
0.384963
0.409401
0.337699
0.427034
0.375023
0.376445
0.361079
0.001
0.00111667
0.001
0.001
0.001
0.001
0.001
0.0010147
0.001
0.001
0.00101365
0.001
0.001
0.001
0.00108349
0.001
0.001
0.001
0.001
0.001
0.001
0.001
0.001
0.001
0.001
0.00100955
0.001
0.001
0.001
0.001
0.001
0.001
0.001
0.001
0.001
0.001
0.00105575
0.001
0.00105547
0.001
0.001
0.001
0.001
0.001
0.00100037
0.001
0.001
0.001
0.001
0.001
0.00101
0.001
0.001
0.001
0.001
0.001
0.001
0.0369594
0.001
0.001
0.001
0.001
0.001
0.001
0.001
0.001
0.001
0.00100956
0.001
0.001
0.001
0.001
0.001
0.001
0.001
0.001
0.001
0.001
0.001
0.001
0.001
0.001
0.001
0.001
0.001
0.001
0.001
0.001
0.001
0.001
0.00183913
0.00184361
0.001
0.001
0.001
0.001
0.00100972
0.001
1.16054
1.16059
1.18688
1.1897
1.18707
1.20398
1.26339
1.25301
1.24731
1.21598
1.32854
1.28488
1.26388
1.10094
1.10224
1.12895
1.11837
1.13804
1.14032
1.16515
1.14625
1.04998
1.0551
1.08113
1.06416
1.08177
1.09082
0.732799
0.647503
0.573656
0.607754
0.561087
0.461224
0.644014
0.610437
0.847696
0.838274
0.801253
0.850156
0.93846
0.983793
0.850069
0.888995
0.98664
0.985618
1.00479
0.987485
1.0299
1.0416
1.04545
1.04222
1.04001
1.0462
1.04606
1.04687
1.04281
1.04552
0.0906872
0.146231
0.32759
0.318943
0.221381
0.317373
0.340919
0.404048
0.0760221
0.0745546
0.0680292
0.001
0.001
0.001
0.001
1.29799
1.30167
1.31947
1.31656
1.34333
1.35007
1.35316
1.352
1.39076
1.36911
1.38132
1.34643
1.38288
1.39378
1.4204
1.43593
1.44838
1.44759
1.49605
1.49628
1.51702
1.49678
1.41171
1.4173
1.53145
1.52886
0.001
0.001
0.00101
0.001
0.001
0.00123979
0.00123946
0.001
0.001
0.001
0.001
0.00201591
0.00110689
0.001
0.001
0.001
0.00100232
0.001
0.001
0.001
0.001
0.001
0.001
0.001
0.001
0.00784616
0.0762358
0.001
0.178875
0.117135
0.185779
0.191433
0.277286
0.218992
0.337851
0.372121
0.368039
0.371728
0.497131
0.463207
0.429793
0.487552
0.507916
0.501725
0.498719
0.486273
0.502283
0.50331
0.585125
0.632995
0.668425
0.620852
0.668837
0.690798
0.835289
0.765331
0.858527
0.847169
0.925662
0.999468
1.08563
1.07868
1.11602
1.15529
1.23596
1.21835
1.25021
1.24927
1.27955
1.29189
1.30909
1.30084
1.31201
1.3064
1.29631
1.30886
1.29638
1.2953
0.001
0.001
0.00101
0.001
0.001
0.001
0.001
0.001
0.001
0.00132894
0.001
0.001
0.001
0.00132803
0.001328
0.00132804
0.00132856
0.00132874
0.00132862
0.001
0.001
0.00100968
0.001
0.001
0.001
0.00100179
0.001
0.001
0.001
0.001
0.001
0.00101
0.001
0.001
0.00100863
0.00103768
0.001
0.001
0.001
0.0038188
0.001
0.001
0.001
0.00100944
0.001
0.001
0.001
0.00100983
0.001
0.001
0.00100647
0.001
0.00100976
0.001
0.001
0.001
0.001
0.001
0.00341883
0.001
0.001
0.001
0.001
0.001
0.0012085
0.0012084
0.00120842
0.001
0.001
0.001
0.001
0.001
0.001
0.001
0.001
0.001
0.001
0.001
0.001
0.001
0.001
0.001
0.001
0.001
0.001
0.001
0.001
0.001
0.001
0.001
0.001
0.001
0.001
0.001
0.001
0.001
0.001
0.001
0.001
0.001
0.001
0.001
0.001
0.001
0.001
0.001
0.00101
0.001
0.00128879
0.001
0.00115825
0.001
0.001
0.00112777
0.001
0.001
1.54115
1.57058
1.57241
1.52548
1.53731
1.51989
1.52545
1.40295
1.43043
1.45681
1.4781
1.44944
1.49924
1.53613
1.37916
1.41421
1.32954
1.3666
1.36153
0.426502
0.424214
0.330593
0.291471
0.391212
0.323395
0.328963
0.196576
0.224553
0.0906864
0.0644442
0.0610719
0.0612617
0.0426271
0.001
0.001
0.001
0.0921718
0.001
0.001
0.001
0.00106179
0.001
0.001
0.001
0.001
0.001
0.001
0.001
0.001
0.001
0.00101
0.001
0.001
0.00102479
0.001
0.001
0.001
0.392106
0.435143
0.410212
0.385048
0.152245
0.151267
0.176069
0.247054
0.360813
0.360597
0.316538
0.36019
0.36362
0.00100999
0.001
0.001
0.001
0.001
0.001
0.00133049
0.00132861
0.001
0.001
0.00101
0.00100946
0.001
0.001
0.00100978
0.001
0.00100974
0.00363985
0.001
0.001
0.001
0.001
0.001
0.001
0.001
0.00105577
0.001
0.001
0.00114708
0.001
0.001
0.001
0.001
0.001
0.001
0.001
0.001
0.001
0.001
0.001
0.001
0.001
0.001
0.001
0.001
0.001
0.001
0.001
0.001
0.001
0.001
0.00198369
0.001
0.001
0.001
0.001
0.001
0.001
0.001
0.001
0.001
0.001
0.001
0.001
0.001
0.001
0.001
0.00106275
0.001
0.001
0.001
0.00109933
0.001
0.001
0.001
0.001
0.001
0.001
0.001
0.001
0.001
0.001
0.001
0.001
0.001
0.001
0.001
0.001
0.001
0.001
0.001
0.001
0.001
0.001
0.001
0.001
0.001
0.00129351
0.00101
0.001
0.001
0.001
0.001
0.00100999
0.001
0.001
1.22452
1.18774
1.1796
1.21317
1.14536
1.21542
1.23009
1.23044
1.24066
1.29468
1.22982
1.32108
1.2917
1.3594
1.08328
1.10466
1.10303
1.12246
1.10559
1.1303
1.13804
1.11947
1.046
1.05413
1.06301
1.07345
1.07262
1.07336
0.788691
0.700853
0.592158
0.604818
0.508549
0.60363
0.619904
0.66848
0.848543
0.849739
0.85566
0.820955
0.941851
0.98958
0.905624
0.862474
0.986034
0.992905
0.996485
1.01449
1.04249
1.03449
1.0442
1.04236
1.04106
1.04535
1.04525
1.04656
1.0448
1.04262
0.174007
0.0708145
0.336816
0.342106
0.239093
0.354501
0.355097
0.43586
0.0718614
0.0666899
0.0447555
0.0283072
0.001
0.0728317
1.31049
1.32115
1.34704
1.38226
1.37858
1.40203
1.41253
1.42321
1.43212
1.42002
1.42706
1.44696
1.46733
1.48126
1.48172
1.48781
1.50566
1.53119
1.53857
1.53874
1.55202
1.42913
1.42081
1.5716
1.59181
0.001
0.001
0.001
0.001
0.001
0.001
0.001
0.001
0.001
0.00201581
0.001
0.001
0.001
0.001
0.001
0.00105533
0.00105533
0.001
0.001
0.001
0.001
0.001
0.001
0.001
0.001
0.00350325
0.00776737
0.0944125
0.162606
0.13184
0.203586
0.145315
0.338596
0.262324
0.371548
0.371258
0.389473
0.450447
0.583368
0.585366
0.528768
0.556631
0.583159
0.529388
0.642109
0.565554
0.543893
0.581749
0.711567
0.725838
0.783975
0.843445
0.720809
0.816784
0.956497
0.91107
0.977088
0.944595
1.13614
1.10244
1.17109
1.18376
1.25591
1.27272
1.32992
1.30285
1.34568
1.33083
1.34907
1.38342
1.35234
1.38697
1.39281
1.34834
1.33705
1.38214
1.38025
1.3478
0.001
0.001
0.00101
0.001
0.001
0.001
0.001
0.001
0.001
0.00107633
0.001
0.001
0.001
0.001
0.001
0.001
0.00100968
0.00132867
0.001
0.001
0.00132651
0.00101334
0.001
0.001
0.00123562
0.001
0.001
0.001
0.001
0.001
0.0015518
0.00100984
0.001
0.001
0.001
0.001
0.001
0.00100967
0.001
0.001
0.001
0.001
0.001
0.001
0.001
0.001
0.00101575
0.00101586
0.00101592
0.001
0.001
0.001
0.001
0.00115854
0.001
0.001
0.00115845
0.001
0.001
0.001
0.00100996
0.00128871
0.001
0.0011277
0.001
0.001
0.001
0.001
0.00101
0.001
0.001
0.001
0.001
0.001
0.001
0.001
0.001
0.001
0.001
0.001
0.001
0.001
0.001
0.001
0.001
0.001
0.001
0.001
0.001
0.001
0.001
0.001
0.001
0.001
0.001
0.001
0.001
0.001
0.001
0.001
0.001
0.001
0.001
0.001
0.001
0.001
0.001
0.001
0.001
0.001
0.001
0.001
0.001
0.001
0.001
0.001
0.001
0.00115825
0.001
0.001
0.001
0.00112775
0.001
0.001
1.59661
1.58005
1.59906
1.57435
1.55524
1.58967
1.57371
1.55071
1.5715
1.42877
1.45332
1.46126
1.4504
1.52559
1.56422
1.59174
1.48951
1.3606
1.39156
1.37273
1.37021
1.36696
1.39831
1.29174
0.191918
0.290874
0.193491
0.234256
0.236964
0.142941
0.142308
0.144044
0.142802
0.143285
0.118321
0.0371135
0.0112687
0.001
0.001
0.0394302
0.15425
0.001
0.001
0.0010815
0.001
0.001
0.00100999
0.001
0.00101448
0.00100155
0.001
0.001
0.00113804
0.001
0.001
0.001
0.00113803
0.001
0.00100853
0.001
0.00100507
0.300535
0.225417
0.199053
0.287883
0.150184
0.176673
0.312894
0.244294
0.286486
0.362192
0.361499
0.00110853
0.001
0.001
0.0011591
0.001
0.001
0.00132979
0.00133055
0.001
0.001
0.00100995
0.001
0.001
0.001
0.001
0.001
0.00375564
0.00384696
0.001
0.001
0.00386819
0.001
0.00198372
0.001
0.001
0.001
0.001
0.00328014
0.001
0.00114697
0.00345551
0.001
0.001
0.001
0.001
0.001
0.001
0.001
0.001
0.001
0.001
0.001
0.001
0.00101
0.001
0.001
0.001
0.001
0.001
0.00116441
0.001
0.001
0.001
0.0010767
0.001
0.001
0.001
0.001
0.001
0.001
0.001
0.001
0.001
0.001
0.001
0.001
0.001
0.001
0.001
0.001
0.001
0.001
0.001
0.001
0.001
0.001
0.00106274
0.00106273
0.001
0.001
0.001
0.001
0.001
0.001
0.001
0.001
0.00158527
0.001
0.001
0.001
0.001
0.001
0.001
0.00158527
0.001
0.001
0.001
0.001
0.001
0.001
0.001
0.001
0.001
0.001
0.00103681
0.001
0.001
0.00101
0.00101796
0.001
0.00101
0.001
0.001
0.001
0.001
0.001
0.001
0.001
1.13976
1.16658
1.14707
1.16675
1.15465
1.19138
1.15936
1.19464
1.21982
1.2546
1.25168
1.25609
1.29111
1.25955
1.36201
1.07339
1.07826
1.08299
1.0885
1.08575
1.08703
1.09688
1.11535
1.10299
1.05138
1.05834
1.06703
1.07275
1.07189
0.747786
0.827698
0.634959
0.621754
0.548875
0.644399
0.703381
0.643288
0.858775
0.874769
0.882119
0.857132
0.991873
0.953241
0.92284
0.955304
1.00558
0.991763
1.02608
1.03735
1.06309
1.04867
1.05071
1.05683
1.05318
1.05733
1.05265
1.05516
1.05707
0.164904
0.0729938
0.343235
0.347261
0.240389
0.355113
0.445598
0.357608
0.0803775
0.0833972