/*--------------------------------*- C++ -*----------------------------------*\
  =========                 |
  \\      /  F ield         | OpenFOAM: The Open Source CFD Toolbox
   \\    /   O peration     | Website:  https://openfoam.org
    \\  /    A nd           | Version:  8
     \\/     M anipulation  |
\*---------------------------------------------------------------------------*/
FoamFile
{
    version     2.0;
    format      ascii;
    class       surfaceScalarField;
    location    "10560";
    object      phi;
}
// * * * * * * * * * * * * * * * * * * * * * * * * * * * * * * * * * * * * * //

dimensions      [0 3 -1 0 0 0 0];

internalField   nonuniform List<scalar> 
788991
(
-0.0226301
0.0100953
-0.0588458
-0.00991433
0.006263
-0.0291537
0.00743583
0.0243853
-0.0245248
0.0574645
-0.036616
0.0226216
-0.000359146
-0.0387115
-0.0231683
-0.0265948
0.0269185
-0.00160841
-0.0199465
0.0232919
0.0143928
0.0252035
0.000444707
0.0124496
-0.024016
0.0326108
-0.0109863
0.037917
-0.0170037
0.0449775
0.00661368
0.0212397
0.0538764
-0.0188991
0.0572782
-0.00536935
-0.0290254
-0.0376515
-0.0383741
-0.0130334
-0.0486197
0.0126271
0.0128005
-0.0312731
0.0116459
0.0199488
0.00152136
0.0158264
0.00958471
-0.0271973
0.0036665
0.0208697
-0.0209482
0.0156689
0.0105067
0.054992
-0.0112195
0.0525274
0.034653
0.0402847
0.00182217
0.0249321
-0.00313794
0.00148035
0.041308
-0.0445738
0.00849907
-0.00508213
-0.0117024
0.0189755
0.0175988
-0.000505325
-0.00320228
0.0352452
0.0700991
0.00406716
0.00228036
-0.0142774
-0.00952049
0.0459323
0.0249116
-0.00868288
0.0356978
-0.032388
-0.0128986
-0.0387974
0.0345151
-0.0312347
-0.0388641
-0.00648949
0.0101373
0.0213139
-0.0310758
-0.0471435
0.0185018
-0.00720388
0.0133023
0.0162985
-0.0401146
-0.0492244
-0.0582845
-0.0310748
-0.0349584
-0.0500768
-0.0774663
-0.056532
-0.0699883
0.00790025
-0.0300947
0.0852077
-0.00237379
-0.0806583
0.00306465
-0.0153491
-0.0210137
0.00391298
-0.015767
-0.0187818
-0.0115513
-0.00339291
-0.029524
0.00247893
0.0113484
0.0271909
-0.0273932
0.0241868
-0.0235453
0.0113053
-0.0164916
-0.0196803
0
0
0
0
0
0
0.0164806
0
0.0153711
0.0180596
0.0131018
0.0472878
0.0198059
0.0497085
-0.00651176
-0.0425868
0.0397236
-0.0139337
0.0476596
0.0279477
-0.00257843
-0.0381654
-0.0141374
-0.0337327
0.0481976
-0.0181703
-0.0222287
0.0087638
0.00635604
-0.00105969
0.00843743
-0.0325252
0.0185864
0.0270408
-0.00352625
-0.00559821
-0.0091795
0.00384147
-0.0107884
0.00311607
0.00278174
-0.00959622
0.0103565
0.0132975
-0.0147984
-0.0224727
0.00257246
0.00480797
0.0269426
0.0219725
0.0234788
-0.0286422
0.0066946
0.000635492
0.0115631
-0.0281148
-0.00193831
0.0199088
0.0128676
-0.0261637
-0.0169464
-0.0100361
0.000281028
0.00126066
0.0122091
-0.0514071
-0.0177468
-0.0240367
-0.0150221
0.011617
0.0272757
-0.0210258
-0.0145312
-0.0400347
-0.000800398
0.00917514
0.0267909
0.0199121
0.00987181
0.0209729
-0.0297338
-0.00213327
0.01828
0.0608091
0.0199436
0.024197
0.00124626
0.0632812
0.0741803
0.0403297
0.00616626
0.0281986
0.0672445
-0.00629909
-0.0873686
0.026872
0.000644545
-0.0872307
-0.0571911
-0.0301165
0.00770408
-0.0783557
-0.0182605
0.00939746
-0.0112576
0.0255149
-0.00777635
0.0064619
-0.00369966
0.00240354
0.0126516
-0.0063394
0.0052824
0.00803371
0.00531926
0.00921973
-0.0109595
0.00846189
0.00287393
-0.00851782
0.00898167
0.0229038
0.0368015
-0.00410081
0.0361223
0.0116689
-0.020012
0.0249293
-0.00528955
-0.00138151
-0.000223334
-0.0290123
0.000174285
-0.0305728
-0.0586877
0.00437022
-0.0146461
-0.000272525
0.0228742
-0.0059239
-0.010321
-0.0176078
-0.0513066
-0.00723209
-0.0279916
-0.0152208
-0.00102937
-0.0239629
-0.10477
-0.0519339
-0.0209727
0.00840826
0.0389439
-0.0128636
0.011477
-0.0232314
-0.0422583
0.022781
0.0309825
0.022486
-0.00448601
-0.0372027
0.00576634
0.0138763
0.0421471
0.0459606
-0.0696136
-0.0298791
0.0590862
0.091973
0.000844833
0.0312015
-0.0164116
0.0184707
0.0149724
-0.0322762
0.00850176
-0.0628602
0.0205026
-0.000205367
0
0
0.0303149
0
0.0304861
0
0
0
0
0
0
0
0
-0.0403199
-0.0313959
-0.0127036
-0.0492509
-0.0381607
-0.016597
-0.00314544
-0.0423368
-0.0148705
0.0023728
-0.04155
0.0424793
0.0115924
-0.0487021
-0.0684186
0.04351
-0.038118
-0.0680307
0.0200128
-0.0208285
-0.018492
-0.0229049
-0.0165159
0.019423
-0.0232987
-0.00748713
-0.0315336
-0.0216238
-0.0139356
-0.00605382
-0.0219359
0.0029982
-0.0217882
0
0
0
0
0
0
0
0
0.00169287
0
0
0.0404905
0.120888
-0.00745767
0.0646381
0.00983389
0.0720678
0.0444989
0.00171866
-0.033016
0.0230537
0.00756549
-0.0236449
-0.00379226
-0.00224637
0.0196599
-0.0103812
0.00692983
0.0029807
-0.0143267
0.00327467
-0.0146534
-0.020203
-0.0101064
0.00463454
-0.00293083
-0.00299787
-0.0114687
0.00026402
0.035863
0.0041
-0.0147646
0.0101386
0.00176345
-0.0141878
0.00247559
-0.0136355
-0.00867412
0.00293175
0.00579451
0.0327855
-0.0286237
0.00423293
-0.0116485
0.00366633
-0.0272089
0.0592672
-0.0622336
-0.0136887
0
0.0204285
0.062301
-0.000722531
-0.00660419
-0.0535587
0.00690431
0.0128873
0.0426072
-0.0834184
0.0881779
-0.0268325
-0.178994
0
0
0
0
0
0
0
0.000903784
-0.0482443
-0.020346
-0.061022
-0.0332567
0.0441809
0.0257184
-0.00292999
0.0200048
0.0229586
0.015882
0.0255606
0.0737349
0.0397277
0.0133917
0.0832998
-0.0318386
-0.10626
0.044212
-0.0364085
-0.125996
-0.0737758
0.0670279
0.0279763
-0.0206992
0.0261055
0.0063643
-0.0138309
0.0276637
0.007908
-0.0175384
-0.0233588
0.0126956
0.000773837
0.0104346
0.0133455
0.0277679
-0.00950382
0.0119208
0.0232858
-0.00986199
0.00673243
-0.00333452
-0.0128713
-0.0212205
-0.00512128
0.000214962
-0.0250593
0.0327137
0.0221504
0.000244746
0.029223
0.00954221
0.0169857
0.0107296
0.0410887
0.00517484
0.0110732
-0.0104204
0.0101172
-0.0518055
-0.0179069
-0.0361388
0.0515418
-0.0378342
-0.0805141
0.02047
0.0327812
0.0190136
0.109749
0.0482925
0.0413896
0.0614718
-0.0480387
-0.0314335
-0.0973673
-0.0651509
-0.0655901
0.00841845
-0.0704812
0.0302731
-0.0315781
0.0326112
-0.0383362
-0.0285839
0.0206089
0.00329231
0.0236547
0.0361837
-0.0225452
-0.0286466
-0.0145588
0.0185363
0.0325636
0.020998
2.30063e-05
-0.00572772
0.00952127
-0.0411053
0.0064402
0.0449633
0.00827755
-0.0426938
0.0157881
-0.0138462
-0.0187535
0.0664852
-0.0296533
0.0155958
-0.026304
-0.0341525
0.0119523
0.000414401
-0.00307409
0.0580289
-0.0219467
-0.0206764
0.0500102
-0.000113248
-0.0484849
-0.00126254
0
0
0
-0.0249995
0
0
0.000886418
0
0
0
0
0
0
0
0
0
0
0
0
0
0
0
0
-0.0346405
-0.0123543
0.000275611
-0.012147
-0.0303945
0.0091719
-0.016699
-0.0287375
-0.0216109
-0.00560067
-0.034192
-0.0378607
0.0253887
-0.0200578
0.0516885
0.00920079
-0.00991364
-0.0124707
-0.0172358
-0.0140696
-0.00621472
-0.0126867
-0.00144407
0.0173996
-0.0124384
-0.00435568
-0.0116417
-0.0131803
-0.00199074
0.0204259
-0.00788633
0.0107312
0.0122551
1.73321e-05
0
5.93598e-05
0
0
3.58162e-05
-7.80191e-05
-2.77091e-05
-1.82108e-05
8.88382e-05
0
0
0
0
0
0
0
0
0
0
0
0
0
0
0
0
0
0
0
0
0.036836
0
0.00551508
0.067723
-0.00834648
-0.0478395
0.0403769
0.0141498
-0.0282251
0.0207358
0.0202585
0.0143937
0.00625615
0.0107548
-0.00261437
-0.00612798
0.0106761
0.0114089
-0.0234222
0.00558295
0.0156817
-0.00462956
-0.0136254
0.0171416
-0.00868103
-0.0053153
-0.00615182
-0.00247672
0.0213335
0.0208592
0.00121009
-0.0220321
-0.0291447
0.00759444
0.0207455
-0.000454073
-0.0380525
-0.00159182
0.0104846
0
0
0
-0.0167245
0.0144087
-0.0277922
0
-0.0132005
0.0230581
0.00116722
0.0121967
-0.0191812
0
0
0
0
-0.067296
-0.0325984
0
0
0
0
0
0
0
0
0
0
0.0643057
0.0468316
-0.0117411
0.00189866
0.00908317
-0.0181733
-0.049258
0.0212914
0.0448945
-0.038488
0.0304693
-0.0281937
-0.0527739
0.0190313
0.0355073
0.0020123
-0.00451073
-0.0262127
0.0188553
0.0311434
0.0408188
0.00491608
0.0896712
0.064946
0.0101367
0.0699096
0.0651761
0.0256538
0.0499843
0.114269
0.0533375
-0.0117869
0.0930346
-0.0803759
-0.159541
0.0551468
-0.0920817
-0.00608815
-0.0765786
0.0602457
-0.0210517
-0.0308873
-0.0271412
0.039661
-0.0035493
-0.0090577
0.0183041
-0.00361619
0
-0.0337667
-0.00751914
0.0513433
0.0245525
-0.0202589
0.0289339
0.0242932
0.0421046
0.0155373
0.0254845
0.0412906
-0.0191499
0.0258145
-0.000194969
-0.0103583
-0.0329764
-0.0395165
-0.0194411
-0.028849
-0.0126823
0.00448479
-0.0312369
-0.0259708
-0.0194119
-0.0374389
-0.0469392
0.0520443
-0.0212034
-0.0289589
0.0409891
-0.0164679
-0.0287435
-0.0123045
0.00909332
0.0125682
-0.041445
-0.0913759
-0.0262664
-0.0434867
-0.0519418
0.0188326
0.0850417
0.00292867
0.00636278
0.024696
-0.0202716
-0.0101426
-0.0489872
-0.0197974
0.0134254
-0.0581383
-0.0327997
-0.0215944
-0.026053
-0.0444335
-0.0594859
0.00246508
-0.0618993
-0.0278823
-0.0181779
-0.0388492
0.0308804
-0.010209
0.0203753
0.0110576
-0.0003843
-0.0215214
0.0238648
-0.0827927
0.00762883
0.0192558
0.0601606
-0.0660995
-0.0483745
-0.0249743
0.00853356
-0.0142088
-0.043834
0
0.00717567
-0.0340584
-0.0508219
-0.152161
0.0340843
-0.0817864
0.0796351
-0.110178
0.116646
-0.122024
0.00769446
-0.0814984
0.0206638
0
0
0
0
0
0
0
0
0
0
0
0
0
0
0
0
0
0
0
0
0
0
0
0
0
0
0
0
0
0
0
0
0
-5.41593e-05
0
9.70372e-06
0
-2.52094e-05
-5.83841e-10
-1.41389e-05
2.24217e-06
1.31963e-05
-5.61532e-05
0
0
1.79603e-05
0
0
0
0
0
0
0
0
0
0
0
0
0
0
0
0
0
-0.00928462
-0.0122241
-0.0103346
-0.000567022
-0.0229233
0.0286658
-0.0291068
-0.0152123
-0.0132939
0.0460157
-0.010469
0.0140686
-0.00706123
0.00494112
0.0120161
-0.00861717
0.00914158
0.025856
-0.0135471
0.00874663
-0.0164417
-0.0133595
0.011037
-0.00786052
-0.017063
0.00393957
0.00929158
-0.0230975
-0.000736032
-0.0297839
-0.0015445
-0.0269209
-0.00446366
0
2.26617e-06
0
0
0
0
0
0
0
0
0
0
0
0
0
0
0
0
0
0
0
0
0
0
0
0
0
0
0
0
0
0
0
0
0
0
0
0
0
0
0
0
0
0
0
0
0
0
0
0
0.108166
-0.00461078
0.0171596
0.0501024
0.10451
-0.00538182
0.0246751
0.0491927
0.000404026
0.0204635
0.0353471
0.00767304
0.0108497
0.0223344
-0.0285829
-0.0233483
0.021259
0.040652
-0.0380618
0.0113527
-0.0376687
2.18886e-05
0
0
-6.22561e-05
-2.23132e-06
0
0
2.58496e-05
0
0
0
0
0
0
0
0
0
0
0
0
0
0
-0.0116593
-0.00681673
0.00576038
-0.0119849
0.00952155
0.026725
-0.0192715
0.00757651
0.0140689
-0.00119767
0.0315214
-0.0035968
-0.0294133
-0.0335527
0
0
0
0
0
0
0
-0.0185465
0
0
-0.0159818
0
0
-0.00871895
0
0
0
0
0
0
0
0
0
0
0
0
0
0
0
0
0
0
0
0
0.0351735
-0.0596156
-0.020082
0.0499542
-0.0170852
0.03509
0.0329832
0.0192481
-0.0395527
0.0509014
-0.0608426
0.043989
-0.0184643
0.0474502
0.0453741
0.0262797
0.00745245
0.00416187
-0.0243956
0.0295077
0.0259581
-0.0652092
-0.0326885
-0.000603646
0.00914931
0.022776
-0.0684638
0.124252
0.0713156
-0.0303177
-0.0222966
-0.106855
0.0968112
0.0255057
-0.0455812
0.0389856
0.0337178
0.0221707
0.128088
-0.0483672
-0.0419082
0.0390657
0.0884367
-0.164262
0.117871
0.132898
-0.0908283
-0.122089
0.082317
0.0204601
0.00588367
-0.0149978
0
-0.0433121
0
0
0
0
0
0.00686356
0.0279869
0.0137785
0.0490666
-0.010741
-0.00531645
-0.0111129
-0.00768024
0.0150452
0.0577279
-0.0353589
0.0322844
0.0328684
-0.0129035
0.0170021
-0.0152839
-0.00643049
0.00632755
-0.0282295
0.00611956
-0.0221692
-0.0706275
0.0210758
0.0213243
-0.0183273
-0.00739344
0.0525297
0.0214501
-0.0162392
0.0365501
0.0759378
-0.0576067
0.0239883
0.0397157
0.0292289
0.0266894
0.0636541
-0.0601522
-0.0144602
0.0819223
-0.077347
0.00433289
-0.015229
-0.0465056
-0.029088
-0.0223867
-0.0207822
-0.0303422
0.00635398
-0.0287229
-0.0596668
-0.0776154
-0.0270352
-0.0354439
-0.0273243
0.0108497
-0.0743265
-0.0492682
0.0239747
-0.072899
-0.0345754
-0.0466992
-0.0815875
-0.0194792
-0.0389364
0.0538822
-0.0609473
0.0651425
-0.0795717
0.0265247
-0.0400777
-0.0630912
-0.0041481
-0.0844154
-0.0120881
0.0502025
-0.045467
0.0551397
-0.0173912
-0.00125591
0.0567906
-0.0484038
0.0638676
0.0117909
0.00276285
0.064157
-0.0513874
0.0622243
0.00732173
0.00554528
-0.0623802
0.02421
0.0605563
0.0437905
0.0205917
0.0665891
0.00261651
0.0662573
0.0769431
0.0491864
0.0647436
0.0196269
0.0634873
-0.0864047
0.0678476
0.067188
0.0685393
0.0107923
-0.0803088
0.0664864
-0.0548203
-0.00662436
0.0081115
0.00388634
0.0315847
0.00551599
-0.00837268
0.0120706
-0.0200949
0.0130816
0.0515953
-0.0959017
0.0270681
0.0642418
0
-0.028116
0
-0.0185264
-0.0333853
0
0.0104839
0
0
-0.157685
0
0.151425
-0.0572296
-0.0878606
0
-0.030247
0
0
0
0
0
0
0
0
0
0
0
0
0
0
0
0
0
0
0
0
0
2.88705e-05
8.19646e-05
0
0
0
0
0
0
0
0
0
0
0
0
0
-2.5055e-05
-9.69978e-05
0
0
0
0
0
0
0
0
0
0
0
0
-7.5588e-05
0
0
0
0
0
-3.37357e-06
2.01778e-05
0
-2.22757e-06
-2.60167e-06
-2.02934e-06
0
0
0
-3.40792e-06
0
0
0
2.39115e-05
-0.000164551
-1.70924e-05
3.23611e-05
6.60355e-05
0
-0.000164806
-0.000415139
0
0
0
0
0
0
0
0
0
0
0
0
0
0
0
0
0
0
0
0
0
0
0
0
-8.96905e-05
0
4.17442e-05
0
-4.80758e-05
0
0.00159246
-0.00343114
0.0192956
0.00687047
-0.00919147
-0.0414792
0.00342142
0.00298311
-0.0048088
-0.0191506
0.0239034
0.0221809
-0.00742787
0.00876912
0.0363598
-0.0135424
0.0224454
-0.0258218
-0.0161688
0.0194817
-0.0167432
-0.0230875
-0.0141081
0.000736214
0.0126991
-0.0220211
0.00911997
-0.006115
-0.0196371
-0.0153038
-0.0443912
-0.0240601
-0.0115606
0
0
0
-2.80146e-05
2.75082e-05
5.6242e-05
0
0
0
0
0
0
3.98839e-05
0
-1.52367e-05
0
0
0
0
0
0
0
0
0
0
0
0
0
0
0
0
0
0
5.14116e-05
5.05176e-05
2.18456e-05
0
-4.86564e-05
0
0
0
0
-0.0242842
0
-0.0376734
0.0605414
0.0335566
0.0260364
0.0443658
0.0775231
0.0318653
0.0266895
0.0812807
0.0343293
0.0159785
0.0553403
-0.0444055
-0.0071892
0.0449414
-0.0611412
-0.03253
0.0309019
0.0632409
-0.0202381
0.0423117
0.0211667
2.86816e-05
0
0
6.54546e-07
0
2.79983e-05
0
-9.47449e-07
0
5.36412e-07
0
-1.01957e-06
-9.86129e-08
0
0
0
0
0
0
-5.43106e-05
0
0
-5.11916e-07
0
0
0
0
0
0
0
0
0
0
0
0
0.00300615
0.0331307
-0.0105899
-0.0026494
0.0158188
-0.0149776
-0.0151168
0.0118203
-0.00160044
0.00600947
-0.0327766
0
0
0
0
0
-5.80725e-05
3.57421e-05
0
0
0
0
0
0
0
0
0
0
0
0
-0.0197371
-0.000105198
-7.84932e-05
0
0
0
0
0
0
0
0
0
0
0
0
0
0
0
-1.16506e-05
0
-1.20446e-05
0.0522077
0.0718628
-0.00722821
0.02679
0.0394161
-0.00941244
0.0306455
0.0505143
0.00781784
0.0537909
0.0540577
0.000696052
0.0664113
0.0468771
0.00428509
0.068031
0.0572585
0.00845215
0.0370042
0.0555583
-0.0249921
0.0439071
0.0668397
0.0152675
0.0301262
0.0633363
-0.0324079
-0.000745059
0.0684698
-0.0670593
-0.0135793
0.0711588
0.0830571
-0.0156251
0.0688873
0.0835033
0.065759
0.0614372
-0.0559738
0.00356142
0.0659196
0.0707736
-0.00326362
-0.0763645
0.0574036
-0.000802628
-0.0463667
0.0332807
-0.000723804
-0.00554271
0.0377432
0.0298193
-0.0728348
0.0058026
0.0421225
0.0491348
-0.000617893
-0.00689983
-0.0162674
0.00559431
0
0
0.0352437
0.0776146
0.0710672
-0.105813
-0.0312305
0.126953
-0.0243246
-0.0259788
-0.04028
-0.154724
-0.0244779
-0.0112265
0
0
0
-0.0095879
0
0
0
0
0
0
0
0
0
0
0
0
0.00545498
0
0.00864869
0
-0.00930468
0.0227578
0.0197784
-0.0230003
-0.0352778
-0.0427318
-0.0147371
-0.0221456
0.00181359
0.0143546
0.010251
0.0467052
-0.0417278
0.0352594
-0.0102522
0.0363197
0.0572892
-0.0011239
-0.016741
0.0506483
-0.000585414
0.0145503
0.0281534
-0.0347303
-0.0388047
-0.0316533
0.015224
-0.0842847
-0.0780939
0.00973809
0.0773237
-0.0512894
-0.00147983
0.0545034
-0.0580394
0.0185898
-0.0641053
0.0165683
-0.0285008
-0.039301
-0.0691523
-0.0383621
-0.0304358
-0.0644908
-0.0114667
0.0540639
-0.0401806
-0.0417401
-0.00998141
-0.0579752
-0.0965941
-0.00206941
-0.0667248
-0.049661
0.0200602
-0.081814
-0.0416319
0.0443543
-0.0450295
-0.0556226
-0.0675622
-0.0897
-0.0316492
-0.0450403
-0.059462
-0.0153168
0.0494041
-0.0566169
-0.0179035
0.0586709
-0.052389
-0.000532281
0.0632281
-0.0528747
0.0238053
0.068685
-0.0270419
0.0225444
0.0668658
-0.00192975
0.0335464
0.0592395
-0.00532791
0.03252
-0.0396148
0.00130291
0.0500273
0.0531888
-0.0150701
0.0375097
0.0279028
0.0292438
-0.0159054
0.0450483
0.0230482
0.017408
-0.0201024
0.0143312
0.0389297
0.0183309
0.0180085
0.0156074
-0.0352229
0
0
0
-0.0102675
0
-0.0442924
-0.0406644
0.044517
0.0446781
0.046187
0.0040111
0.0234462
0
-0.0450557
0
0
0
0
0
0.00525557
-0.00742067
0
0
0
0
0
0
-7.57626e-05
0.00014796
0.000133914
0
6.72765e-05
0
-0.000474978
0
0.000301672
0
0
0
0
0
0
-0.000133748
0.000389218
-0.000624223
0
0
0
-1.70755e-05
0
9.41002e-05
0
-3.37715e-05
0
0
0
0
0
0
0
0
4.72698e-06
-4.62784e-05
0
0
0
0
-0.000113774
0
0
0
0
0
0
0
0
-2.44087e-07
-1.09447e-06
0
0
0
0
0
0
0
0
0
0
0
0
0
0
0
-3.22305e-05
0
0
0
-2.43036e-06
-1.6427e-06
0
0
0
0
0
0
0
0
0
0
0
0
0
0
0
0
0
0
0
0
0
0
8.51029e-07
0
0
0
0
0.00608758
0.0122991
0.0215795
0.0209957
-0.00894669
-0.0324139
-0.0046246
0.011382
-0.0114105
-0.001499
0.0212787
-0.0189003
-0.00772322
0.0281487
-0.0234126
-0.0127945
0.0117109
0.0230319
-0.0235901
0.00251266
0.0123859
-0.0354955
0.0164024
0.0337263
0.00181589
-0.0242021
-0.0111428
-0.00250051
-0.0228902
-0.0199257
-0.0251431
-0.0241646
-0.000173702
-3.32653e-05
0
-1.06956e-05
6.53624e-05
-1.11335e-05
-9.77162e-07
0
0
0
0
0
0
0
0
0
0
0
0
0
0
0
0
0
0
0
0
0
0
0
0
-7.13368e-05
0
0
0
0
0
0
0
0
0
0
0
-0.064216
0
-0.0422804
0.0444755
-0.0248817
0.0102969
0.0229668
0.0430859
0.0326083
0.00740976
0.0512776
-0.0502579
-0.00675186
0.0510454
0.0548809
-0.0160117
0.0476505
0.0596111
-0.00217147
-0.0119615
0.0242159
-0.027803
0.0390649
-0.050592
0
0
0
0
0
0
0
0
0
0
4.86473e-07
0
0
0
0
0
0
0
0
-0.0044725
0
0
0
0
0
0
0
0
0
0
0.00752407
0
0.00176415
0
0
0
0
0
0
0
0
0
0
-0.00392528
0
0.0192133
0.0272716
-0.0149589
0
-0.00630769
-0.00267511
0
0
0
-2.23561e-05
0
0
-0.00824534
-0.0221395
-0.0335761
-0.0208923
0
0
0
0
0
0
-1.49214e-05
-2.29145e-05
2.85275e-06
0
-8.11859e-06
0
4.65124e-05
0
0
0
0
0
0
3.70245e-07
0
-1.32546e-05
0
0
0
0
0
0
0
0
0
0
0
0
0
0
0.00839939
0.0011325
0.0169282
-0.00677737
0.00705934
-0.0221092
0.0110618
0.01805
0.0119258
0.0182981
-0.0190482
-0.00626247
0.000364402
0.0138459
0.0221589
0.00567647
0.00950579
0.0388476
0.0146386
-0.0144059
0.0144387
0.000211864
0.00373884
-0.000464242
0.0252155
0.0110919
-0.00332059
0.00553391
0.0019067
0.0142063
-0.00778779
0.000943587
-0.00430142
-0.0122642
0.0062641
0.0071156
0.0136198
0.064009
0.051437
0.0243819
0.0558627
-0.0282502
0.0271312
0.0490262
0.0117938
0.0544376
0.0430971
-0.0296686
0.0503321
0.0639327
-0.0350481
0.0467258
0.075126
0.0124617
0.0456145
0.055212
-0.00865085
0.0622092
0.0418188
0.0108456
0.0608795
0.0431025
0.0268082
0.0374937
0.059381
0.023412
0.020436
0.0664251
0.0467518
-7.5105e-05
0.0695052
0.0725334
-0.0135236
0.0754749
0.092068
-0.0100863
0.0771634
0.0878868
0.00174646
0.0781558
0.0752844
0.0740617
0.000316693
0.078189
0.0802233
-0.00227786
0.084515
0.0528187
0.0550522
-0.0368065
0.0021265
0.0205172
0.0206582
-0.0216678
0.0475623
0.0129965
-0.0122011
-0.00162505
0.00908024
0.0531398
0
-0.06698
0
0.00625453
0.00254806
0.0104368
-0.00591162
0.00707358
0.00619139
0.0103956
0.00686646
0.00396465
-0.00866405
0.0122144
0.00650499
-0.00500947
0.0146115
0.0167065
0.00677496
-0.0102486
0.0056384
0.0112302
-0.021378
-0.0123038
-8.33421e-05
-0.0157721
-0.0222871
-0.0275733
0.00242605
0
1.78988e-05
2.7814e-05
0
0.00645184
0
-0.0989002
0.0109699
0.0662259
-0.114924
0.112933
-0.0150277
1.43493e-05
0
-1.10392e-05
2.51848e-05
-1.66257e-05
-9.22341e-06
0
-4.54451e-05
0
0
0
0
0
0
0
0
0
0
0
0
0
-0.0127988
6.88715e-05
0.00010034
-0.0268612
0
-0.0394177
0.00219427
0.00705858
0.0126836
0.00506081
-0.102221
0.00103679
-0.0290256
0.0119554
-0.027197
-0.00525744
0.029275
-0.0419104
0.0164219
0.0237107
0.0129105
-0.00166791
-0.0233015
0.055459
-0.00879443
-0.0482938
0.0634442
-0.060334
0.0100797
-0.0780398
-0.0717617
0.0123284
-0.0679674
-0.0411841
0.00539475
0.0552102
-0.0408944
0.0309614
-0.0716757
0.0170406
-0.0394588
-0.0567171
-0.0495584
-0.0502076
-0.0260828
-0.0545532
-0.0249894
0.0610879
-0.0900238
-0.0883072
0.0192531
-0.07781
-0.07181
0.00781305
-0.0863772
-0.0500262
0.0315122
-0.0354407
-0.0605913
-0.0833657
-0.0927607
-0.0422492
-0.0447197
-0.0691824
-0.0351436
0.0498794
-0.066488
-0.0333141
0.0520859
-0.0530001
-0.0144674
0.0589881
-0.0491347
0.0163245
-0.0671325
-0.0578889
0.0243355
0.0702887
-0.0351333
0.00367423
-0.0567206
-0.0212846
0.00102243
-0.0285478
0.00680148
0.0309296
0.0410171
-0.0114589
0.00641863
-0.00271369
-0.00169875
0.0358242
-0.0147413
0.00195909
0.00874818
0
0.00755206
0.0111626
0
0
0
0
0.00109692
0
0
-0.017353
0
0
0
0
0
0
0
0
1.59581e-05
0
9.49486e-05
-0.000172606
0.00605787
0
0
0.000130127
0
-0.000124683
0
-0.000209322
0
-7.21692e-05
0
0
0
0
0
0
0
0
4.30353e-05
6.04675e-05
-2.04559e-05
-0.000154739
0
-9.35393e-05
4.79016e-06
-8.78007e-05
1.88476e-05
0
0
0
0
0
0
0
0
0
0
0
0
-4.78175e-05
0
-0.00012749
0
0
0
0
0
0
0
0
0
0
0.00317787
0.00185096
0
0
0
0
0
0
0
0
0
0
0
0
0
0
0
0
0
0
0
-5.63823e-06
1.03345e-05
-4.18658e-06
0
0
0
-4.52791e-06
1.10797e-05
0
0
0
0
0
0
0
0
0
0
0
0
0
0
0
0
0
0
0
0
0
0
0
0
0
0
0
9.9614e-06
0
-4.25526e-05
0
0
0
-1.05357e-05
0
1.75106e-05
-0.00539626
0.0146125
0.0178963
0.0330151
-0.0309627
-0.0003243
-0.0274324
-0.0133963
0.0114735
0.00034824
-0.0140137
0.0223142
-0.0254698
0.00978539
0.010509
0.0137481
-0.0119097
0.00169978
0.0137416
0.0105467
0.000454826
0.00660746
-0.0173299
-0.00651993
0.00317942
-0.00721223
0.00329466
0.00471075
0.00749168
-0.0262049
0.00958599
0.0162842
-0.00315058
0.00536846
-0.0129604
0.00115879
-0.00985502
9.70868e-07
0
0
0
0
0
0
0
0
0
0
0
0
0
0
0
0
0
0
0
0
0
0
0
0
0
0
0
0
0
0
0
0
0
0
0
0
0
0
0
0
-0.015368
0.0683284
0.00325723
0.0188703
-0.0144251
0.0104212
-0.00188273
0.000899661
-0.0122089
-0.00208461
-0.00940393
0.00696077
0.0478787
-0.0134269
0.0273074
0.0292265
-0.00738348
0.0250035
-0.0454531
-0.00777499
0.0272292
0.0264408
-0.0128664
0.0176837
0
0
9.45471e-06
6.93298e-07
0
0
0
0
0
0
0
0
0
0
0
0
0
0
0
0
0
0
0
0
0
0
0
0
0
0
0
0
0
0
0
0
0
0
0
0
0
0
0
0
0
0
0
0
0
0
0
0
0
0
0.0191202
-0.0122605
-0.0336146
0.010921
-0.00348313
0
0
0
0
0
0
0
0
0
0
0
-0.0281711
0
0
0
0
0
0
0
0
0
0
0
0
0
0
0
0
0
0
0
0
0
0
0
0
0
0
0
0
0
0
0
0
0
0
0
0
0
0
-0.0246658
0.00527421
0.0115723
-0.00969325
-0.00192964
0.042915
0.0177579
0.0273465
-0.0303938
-0.0346078
0.00491196
-0.0327561
0.0096176
0.0400467
-0.0177709
0.00266435
0.0302133
0.015865
0.00423176
0.0247884
-0.0106948
0.0058645
0.0226901
-0.00499608
0.0149935
0.0717277
-0.0569421
0.0350951
0.0626171
0.0259337
0.0245116
0.0506297
-0.0238827
0.0449473
0.0263668
-0.0588945
0.0601758
0.0366192
0.0460256
0.0577465
0.024853
-0.00381232
0.0228899
0.0423371
0.0214471
0.067542
0.0557462
0.00416987
0.058751
0.0588455
0.00155623
0.0708439
0.0669184
0.0102277
-0.0630475
0.0613996
0.0120958
0.0514773
-0.0120727
0.0714529
0.0892968
-0.0260977
0.0755305
0.113559
-0.0215741
0.0794135
0.112759
-0.00406104
0.0834013
-0.0896282
-0.00158377
0.0858371
-0.0913509
0.0809975
0.00449813
-0.0780702
0.0861989
0.00753123
0.0866639
0.0540106
-0.0186538
-0.00265059
0.0906016
0.0214591
-0.0227736
-0.0230956
-0.0144814
0.0389404
0.00886085
0.0272266
0.0249559
0.0320243
-0.0409765
0.0625116
0
0.0416984
-0.00449639
0.0209261
0.0101187
0.0174973
0.0130585
0.0179036
-0.000242381
0.0206972
0.0177473
-0.0185382
0.00151449
0.0146591
0.00816175
-0.0133539
0.0113573
0.00798767
0.00342808
0.0056865
0.00853154
-0.00363509
-0.0126266
-0.00811297
0.00487635
-0.029426
-0.0343084
-0.00488695
-0.0333389
-0.0329165
0.0128971
0.0225421
0.00222899
0.024409
-0.0189773
-0.0301026
-0.02399
-0.0322019
0.00304419
-3.02356e-05
3.58487e-05
7.90647e-05
-7.71111e-05
0
4.10071e-05
0
-0.0467489
0
0
0
0
-0.000121726
0
0
0
0
0
-8.7752e-05
0
3.3903e-05
0
-1.45018e-05
-1.97964e-05
0
0
0
0
3.9087e-05
3.25664e-05
0
-3.18082e-05
0
0
0
0
0.0172724
0.0226784
-0.0462827
0
0.0551232
-0.0020072
0.0207421
0.0336567
0.00171831
-0.0057152
-0.10995
0.00451682
0.0156303
0.0225757
-0.015225
0.0258696
0.0380393
0.0704933
0.0361512
-0.0107215
-0.0613686
0.0303623
-0.0257694
-0.0881632
-0.0134466
0.0469582
0.0742981
-0.0428934
0.0710769
0.0832172
-0.020399
0.0174077
-0.0664936
-0.0251124
0.0409413
0.0790196
-0.0151965
-0.0557236
-0.066579
-0.0722973
-0.0456604
-0.0452392
-0.0727036
-0.00928062
-0.0724464
-0.0785914
-0.0803502
-0.032513
-0.0780173
-0.0835249
0.0119845
-0.040672
-0.0487358
-0.0825192
-0.0835528
0.0163179
-0.0845676
-0.0584313
0.0416331
-0.0763497
-0.0510307
0.0495611
-0.064487
-0.0272379
-0.0562595
-0.0508936
-0.00602557
0.0632776
-0.0578031
0.0124981
-0.0643982
-0.0612119
0.000409016
0.0551849
-0.0302096
-0.0170319
0.0208791
0.00476294
-0.00550896
0.0143467
-0.00753852
-0.00992299
0.0161451
0.0246416
0.0522572
-0.017743
0.02024
-0.0095925
0
0
0
0
0
0
0
0
0
0
0
0
0
0
0
0
0
0
0
0
0
0
-0.000162411
0
0
0
0
0
0
-1.40355e-05
0
0
0
0
0
0
0
-3.82334e-05
0
1.12949e-06
0
-3.85656e-05
3.34436e-05
-1.99411e-05
-2.17041e-05
0
5.74566e-06
0
0
0
0
0
0
0
0
0
0
0
0
0
0
0
0
0
0.00346004
-0.00284323
-7.59959e-05
0
0
0
0
0
5.23085e-05
0
9.6277e-05
-0.00260204
0
0.0210022
0
0.0133663
0
0
-9.69179e-06
-1.11601e-05
6.10124e-06
0
-3.15124e-05
0
0
0
0
0
0
0
0
0
-1.49769e-05
2.81716e-06
3.10153e-06
0
-2.0294e-05
0
-5.39601e-07
4.71193e-06
1.67212e-05
0
-2.33556e-05
0
0
0
0
1.06357e-05
0
-6.64378e-05
0
-1.73826e-05
-2.5326e-05
0
0
0
0
0
0
0
0
0
0
0
0
0
0
0
0
0
0
0
0
0
-6.1785e-06
0
7.88678e-06
0
0
0
-4.56258e-05
0
0
0
0
0
0
0
0
0.00792138
-0.0131789
0.0189686
-0.0264839
0.00146475
-0.0131562
-0.0490956
-0.00516031
-0.0109593
-0.0106
-0.0130073
0.0333422
-0.00860621
0.0150885
0.0188131
0.00636955
0.0107199
-0.00450901
0.0177757
-0.00358091
0.00773132
0.0120286
-0.000661241
0.0156917
0.0135432
0.00714658
0.00618959
0.00780685
-0.00167776
0.00245987
0.016017
-0.0125956
0.0141623
0.0195309
-0.018448
0.00528505
-0.00227025
0.00250277
-0.00508687
0.00401076
0
0
0
0
0
0
0
0
0
0
0
4.75453e-05
0.0432012
-0.0228419
7.74378e-05
0
0
0
0
0
0
0
-2.97997e-05
0
0
0
0
-4.87376e-07
0
9.5439e-07
0
4.6593e-07
0
0
0
0
0
0
-0.000110554
0.0135744
0.0213641
-0.00322253
-0.0165035
0.0254205
0.0126308
-0.0360331
-0.00866288
0.040025
-0.0165083
-0.010169
-0.00845823
-0.0178588
0.006645
-0.02773
-0.00194436
0.00392549
0.00760776
-0.00128896
0.0129341
-0.000154159
0.00965418
-0.00328466
3.84244e-08
0
0
7.63566e-07
0
-7.96173e-06
0
0
0
0
2.17437e-09
0
-1.71146e-06
0
1.71719e-06
0
0
0.000239724
7.05907e-05
0
0
0
0.000111045
0.000169607
-2.73411e-05
0
0.00013809
0
0
0
-6.66535e-05
-7.93793e-05
0
0
0
0
0
0
0
0
0
0
0
0
-2.68108e-05
9.44798e-05
0
0
0
0
0
0
0
0
0
0
0
0
0
0
0
0
0
0
0
0
-0.0234653
0.0133486
0.0238263
-0.000379299
0
-0.0478657
0
0
0
0
0
0
0
1.27521e-05
0
-1.69495e-05
0
4.56312e-05
-7.79466e-06
0
0
0
0
0
0
0
0
0
0
2.65091e-05
-1.25657e-05
0
0
0
0
0
0
0
0
0
0
1.85394e-05
1.11792e-05
2.54114e-06
0
4.10463e-05
0
0
0
0
0
0
0
0
0
-8.55277e-06
0
2.86557e-05
-0.0292212
0.00653897
-0.00608506
-0.0170542
-0.00944638
-0.0139641
-0.00291297
0.0490287
0.0153594
0.0351352
0.0699284
0.0291276
0.0529445
0.030186
0.064062
-0.0102485
-0.0200931
0.0236224
-0.0304527
-0.0451941
0.014151
0.0421885
0.0261649
0.0160521
0.0385468
0.0183085
0.0231405
0.0379538
0.00113297
-0.00724595
0.0330185
-0.0112273
0.0283143
0.0797201
-0.0477854
0.0289038
0.0707095
-0.0414294
0.0225485
0.0592594
0.0395066
0.0437491
-0.0098798
-0.0703707
0.0535851
0.00722093
0.0399891
0.0213149
0.00619452
0.027955
-0.00429469
0.0356306
0.0288294
0.0464571
0.00573245
0.0599769
0.0355986
-0.0117393
-0.0733657
0.0691344
-0.0202622
0.0870987
0.0596239
-0.0202597
-0.0799395
-0.0395787
0.06365
-0.116387
-0.0394027
0.0687282
-0.127859
-0.0228911
0.0752128
0.111021
-0.0161109
0.0839923
0.101702
0.00558116
0.0962858
-0.0913055
0.0899599
0.0273474
0.0615666
0.102249
0.0385875
-0.0658873
-0.00828952
-0.00328086
-0.00329198
0.0526633
0.0103983
-0.0575009
-0.0586046
-0.0459348
-0.115688
0.0014722
0.0172924
-4.79366e-05
0.0168602
0.0216746
-0.0342918
0
0.0648849
0.0129257
0.0314083
0.0109455
0.0316323
0.00316477
0.0206053
-0.0018253
0.0224958
0.0220106
0.00582494
0.0247954
0.0231521
0.00103035
-0.0229862
0.0151823
0.00831116
0.0203127
0.00181209
-0.00680345
-0.0105758
-0.0103936
-0.0181832
-0.011177
-0.0246114
-0.0319183
-0.0179949
-0.0253941
-0.0362449
0.00504863
-0.00833342
-0.0169857
0.011936
-0.000751887
0.0196982
0.0250701
-0.0189793
-0.0276928
0.0046878
-5.93306e-05
0
0
0
0
0
0
0
0
0
0
0
0
0
0
0
0
0
1.98059e-05
0
0
0
0
0
-1.01849e-05
0
-4.78265e-05
0
-2.59225e-05
0
0
0
0
0
0
0
0.00569546
0.018762
0.0169073
0
0.0350631
-0.0171612
0.0210273
0.0290454
-0.0606265
0.0418852
-0.00434583
-0.00206438
0.0486446
0.0227325
0.0291653
0.063005
-0.0319484
0.0349703
0.0892832
0.00469052
-0.0721744
0.0623866
0.0220893
0.10356
0.172255
0.00248745
0.0746863
-0.0873731
-0.0841799
0.115336
-0.0266581
0.0314341
0.103086
-0.0165236
0.0709556
-0.110397
0.00277805
-0.0575417
-0.0974604
-0.0691694
-0.0532827
-0.0586877
-0.0701404
-0.0244797
-0.0870446
-0.0888163
-0.105727
0.036094
-0.0894544
-0.0931074
-0.0034734
-0.0956062
-0.082952
0.024188
-0.0933167
-0.0729956
0.0428258
-0.081437
-0.0485325
0.0556313
-0.0716245
-0.0255943
0.0615908
-0.0632993
-0.013676
0.0577242
-0.0607512
-0.0134454
-0.0465273
-0.0299678
-0.0192094
0.0155762
-0.00339971
-0.0175354
-0.011488
0.00907291
-0.00652147
-0.0231485
0.0366884
0.0136394
0.00994377
0.0316124
-0.0576058
0
0.00575489
0.00393947
0
0
-7.65084e-07
7.91145e-07
0
0
0
0
0
0
0
0
0
-5.24092e-05
0
2.04214e-05
5.24223e-06
-0.0001583
0.000113715
6.14437e-05
-9.27786e-05
-0.000151494
0
-3.66256e-05
2.87491e-05
0
0.00995844
-0.000866488
0
0
0
4.82863e-05
0
-3.0997e-05
-7.40341e-05
7.53112e-05
0.000127176
0
-5.85395e-06
0
0
0
0
0
0
0
0
0
0
0
-9.50216e-07
3.07351e-07
0
0
0
0
0
0
0.005886
0
0.00522523
0
0.00465679
0
0
0
0
0
0
0
0
2.31889e-05
0
0
0
0
0
0
0
0
0
0
0
-3.58743e-05
0
0
0
0
0
0
0
0
0
0
0
0
2.01771e-05
0
0
0
0
0
0
0
0
0
0
0
0
0
-8.09877e-05
0
0
0
0
0
0
0
0
0
0
0
0
0
0
0
0
0
0
0
0
0
0
0
0
0
0
0
0
0
0
0
0
0
0
0
0
0
0
0
0
0
0
0
0
0
0
0
0
0
-1.4255e-06
3.93616e-11
0
0
0
0
0
0
-0.0201883
-0.0210922
-0.0107307
-0.0180941
0.0206256
-0.00236188
0.0112288
-0.0238484
0.0321864
-0.0233036
0.00111877
0.0123772
-0.036363
0.0352911
0.021755
-0.0126668
0.00857176
-0.0133463
0.00814399
-0.0299315
-0.00859672
0.0365222
0.0230877
0.0262773
-0.0309628
0.00396786
0.0157519
0.00703479
-0.00945934
-0.00066273
0.00812728
0.0138666
0.0083669
-0.0177238
-0.00526935
-0.0112042
-0.0302696
0.00609684
-0.0318385
-0.00711097
0.0220243
0.00014442
-0.00141819
-0.00680608
0
0
0
0
0
0
0
-0.0242228
-0.0385113
0
0
0
0
0
0
0
0
0
0
0
0
0
0
0
0
5.66707e-05
3.54359e-05
-1.84836e-05
0
5.49488e-05
-4.18103e-05
0
0
0
0
0
0.019548
0.0204308