/*--------------------------------*- C++ -*----------------------------------*\
  =========                 |
  \\      /  F ield         | OpenFOAM: The Open Source CFD Toolbox
   \\    /   O peration     | Website:  https://openfoam.org
    \\  /    A nd           | Version:  8
     \\/     M anipulation  |
\*---------------------------------------------------------------------------*/
FoamFile
{
    version     2.0;
    format      ascii;
    class       volScalarField;
    location    "1380";
    object      Hclip;
}
// * * * * * * * * * * * * * * * * * * * * * * * * * * * * * * * * * * * * * //

dimensions      [0 1 0 0 0 0 0];

internalField   nonuniform List<scalar> 
526318
(
0.924349
0.881999
0.954497
0.867064
0.93936
0.892879
0.909287
0.826233
0.886788
0.764946
0.744524
0.865654
0.810822
0.853311
0.811797
0.83791
0.811144
1.00938
0.919611
0.963706
0.959877
0.911441
0.672213
0.914134
0.797827
0.663395
0.937936
0.93438
0.937669
0.948773
0.9813
1.02649
1.00759
0.889097
0.890056
0.8598
0.863743
0.953006
0.88282
0.828817
0.889139
0.863198
0.527401
0.5767
0.480537
0.532285
0.506861
0.631175
0.811163
0.709319
0.795465
0.796052
0.75017
0.708729
0.204065
0.449016
0.44808
0.244098
0.966936
0.979076
1.00118
0.951893
0.89648
1.02654
1.01925
0.980886
0.967353
0.967503
0.871461
0.862153
0.976578
0.754514
0.809806
0.703469
0.659087
0.649202
0.749256
0.742172
0.657645
0.699354
0.778982
0.780046
0.736085
0.687446
0.716826
0.786715
0.786027
0.764104
0.712844
0.786715
0.690064
0.639989
0.636382
0.566305
0.563376
0.566679
0.565836
0.563637
0.560906
0.559528
0.001
0.001
0.0191614
0.0553951
0.120223
0.00100618
0.466561
0.27372
0.591848
0.552666
0.594805
0.711974
0.934745
0.827607
0.937992
0.952696
1.01829
0.986758
1.03281
0.55825
0.557063
0.560911
0.564602
0.519491
0.557856
0.470712
0.513258
0.423338
0.471692
0.422798
0.422875
0.413942
0.387742
0.380602
0.407666
0.350348
0.404658
0.353324
0.372956
0.319648
0.323579
0.346081
0.375524
0.36322
0.318221
0.320367
0.335763
0.325636
0.32009
0.327978
0.341326
0.328518
0.333469
0.333494
0.333211
0.299939
0.333931
0.334633
0.299269
0.256164
0.335163
0.283393
0.34139
0.822021
0.914434
0.859272
0.843828
0.649254
0.717311
0.648957
0.651479
0.647695
0.652123
0.674191
0.648752
0.585338
0.557897
0.524346
0.464641
0.524849
0.566764
0.567263
0.566971
0.454436
0.50753
0.395387
0.403686
0.413936
0.405209
0.407542
0.410952
0.400371
0.402626
0.400015
0.388834
0.371709
0.395075
0.388597
0.36064
0.341426
0.368706
0.352917
0.346131
0.365623
0.354048
0.359032
0.321244
0.340307
0.370203
0.371816
0.802856
0.817637
0.849862
0.821121
0.807881
0.804299
0.804157
0.679571
0.721736
0.471862
0.444388
0.444285
0.567868
0.703068
0.575485
0.612703
0.616307
0.562667
0.541253
0.0471987
0.001
0.189858
0.393302
0.001
0.001
0.001
0.001
0.001
0.001
1.02009
0.998477
1.04861
1.03927
1.0097
1.00055
0.910585
0.994558
0.838945
0.784913
0.784909
0.785136
0.785876
0.78605
0.773533
0.773085
0.690905
0.754176
0.572334
0.628105
0.557437
0.570364
0.001
0.001
0.001
0.001
0.0320478
0.001
0.0303093
0.185851
0.564152
0.378912
0.612268
0.614213
0.723866
0.82429
0.947542
0.950191
0.989664
0.963286
1.03058
1.06256
0.537348
0.53726
0.498027
0.469784
0.368937
0.404663
0.333248
0.341508
0.332913
0.328435
0.319025
0.322892
0.255908
0.281103
0.316902
0.353856
0.406927
0.375517
0.33859
0.335622
0.27036
0.260065
0.310732
0.365658
0.289222
0.319011
0.320779
0.291008
0.286427
0.256922
0.253334
0.215445
0.216158
0.218087
0.206177
0.336248
0.374454
0.335904
0.375982
0.717982
0.679059
0.575299
0.665393
0.586907
0.63928
0.651886
0.637357
0.651808
0.648798
0.561904
0.476999
0.405915
0.388661
0.46551
0.406963
0.392366
0.507548
0.396297
0.445006
0.38684
0.385653
0.396084
0.387736
0.401906
0.397132
0.396743
0.39983
0.399996
0.398911
0.408542
0.4039
0.41612
0.414073
0.417807
0.397833
0.413021
0.397208
0.370804
0.372224
0.397521
0.426423
0.419945
0.396412
0.378992
0.403934
0.443783
0.445478
0.460698
0.421689
0.453953
0.470567
0.509975
0.461649
0.468431
0.491638
0.525417
0.625412
0.703236
0.622538
0.658993
0.728885
0.793412
0.706323
0.568679
0.683515
0.580475
0.602065
0.338874
0.28588
0.313341
0.292954
0.418213
0.539938
0.462255
0.539377
0.532851
0.559295
0.536309
0.001
0.001
0.112481
0.001
0.195771
0.0753832
0.001
0.00134545
0.001
0.00100962
0.001
0.00100889
0.001
0.001
0.001
0.001
1.04378
1.03291
1.06929
1.05765
1.03771
1.0087
0.934771
0.850668
0.785077
0.794935
0.773839
0.774851
0.754231
0.754264
0.733788
0.734363
0.684547
0.726981
0.650181
0.593762
0.538761
0.49667
0.001
0.00115274
0.001
0.001
0.001
0.001
0.001
0.001
0.0011524
0.00115237
0.001
0.00100984
0.001
0.00100942
0.00136614
0.001
0.001
0.001
0.00109485
0.001
0.001
0.001
0.0912385
0.0732902
0.265082
0.120288
0.481542
0.635317
0.651641
0.741651
0.960064
0.854805
0.974016
0.975207
0.987392
1.0201
1.05048
1.06891
0.456622
0.455739
0.410575
0.43718
0.376773
0.340826
0.333019
0.33232
0.328554
0.333069
0.28629
0.282198
0.23452
0.25043
0.306973
0.27953
0.249476
0.299692
0.293679
0.316206
0.216588
0.207923
0.229672
0.236888
0.240408
0.196655
0.202177
0.199198
0.203481
0.186184
0.189521
0.491394
0.466044
0.467226
0.466248
0.487972
0.597593
0.554398
0.531359
0.414011
0.46006
0.441397
0.4477
0.348599
0.282976
0.445449
0.560228
0.44235
0.453052
0.4279
0.512929
0.49097
0.566117
0.59864
0.524393
0.505908
0.539359
0.41704
0.389498
0.389585
0.389222
0.304915
0.360797
0.287713
0.239772
0.218243
0.337445
0.340136
0.387296
0.387922
0.388623
0.390995
0.389005
0.396292
0.392045
0.403662
0.396858
0.41517
0.409011
0.417809
0.418737
0.444552
0.430536
0.455637
0.458461
0.407495
0.391447
0.455688
0.439127
0.426633
0.445954
0.429075
0.41471
0.470549
0.447482
0.551647
0.558979
0.511035
0.551402
0.563387
0.527925
0.62065
0.594478
0.660763
0.681792
0.705735
0.597532
0.602758
0.601539
0.564835
0.541639
0.513709
0.601723
0.456479
0.42936
0.479943
0.504172
0.175648
0.231194
0.304289
0.44079
0.457325
0.506224
0.408089
0.362041
0.334042
0.269637
0.001
0.001
0.00220711
0.001
0.111757
0.178905
0.001
0.001
0.00100979
0.001
0.001
0.001
0.001
0.001
0.001
0.001
0.001
0.001
0.001
0.001
0.001
0.00101115
0.001
0.00100023
0.001
0.001
0.00117528
0.001
0.001
0.00117531
0.00117515
0.00117517
0.001
0.001
0.001
0.001
0.001
0.001
0.001
0.001
0.00100959
0.001
0.00100886
0.00100987
0.001
0.001
1.03722
1.04892
1.06968
1.05802
1.03795
0.963872
0.78554
0.869712
0.754361
0.755039
0.733416
0.734828
0.726911
0.72607
0.720975
0.720513
0.66495
0.636213
0.538124
0.57935
0.435166
0.476042
0.001
0.001
0.001
0.001
0.001
0.001
0.001
0.001
0.001
0.001
0.001
0.001
0.001
0.001
0.001
0.001
0.001
0.00100737
0.001
0.001
0.001
0.001
0.001
0.001
0.00141744
0.001
0.001
0.001
0.001
0.001
0.146479
0.001
0.146154
0.153448
0.449056
0.287925
0.658823
0.621788
0.684317
0.789928
0.894211
0.974827
0.988343
0.974235
1.01724
1.04881
1.03511
1.03339
0.00101
0.001
0.001
0.001
0.001
0.001
0.001
0.001
0.001
0.001
0.001
0.001
0.001
0.001
0.001
0.00110683
0.001
0.436686
0.43584
0.437305
0.40191
0.323741
0.358763
0.284873
0.27672
0.243144
0.237148
0.194452
0.191723
0.232174
0.223865
0.186196
0.222306
0.215722
0.270894
0.251795
0.25005
0.169547
0.141888
0.140873
0.181673
0.184008
0.185608
0.163106
0.16378
0.125059
0.118824
0.0825531
0.0856963
0.69327
0.662854
0.700742
0.708948
0.662423
0.615844
0.783128
0.807968
0.870487
0.878745
0.421773
0.46728
0.515984
0.603936
0.42515
0.366207
0.403042
0.402039
0.241279
0.295879
0.326279
0.21581
0.431313
0.429873
0.430332
0.430776
0.450093
0.431337
0.445321
0.459928
0.340914
0.335232
0.233572
0.319355
0.312225
0.271782
0.221335
0.244937
0.185661
0.206553
0.185977
0.273212
0.33588
0.269942
0.337339
0.388937
0.390422
0.390434
0.392782
0.396117
0.415537
0.409064
0.427441
0.422996
0.44448
0.438703
0.461952
0.460699
0.463648
0.460791
0.471254
0.466531
0.505401
0.477634
0.447183
0.447305
0.512186
0.479069
0.488376
0.527753
0.571343
0.570506
0.570542
0.570025
0.604449
0.655513
0.718816
0.737046
0.748077
0.72334
0.867508
0.807474
0.933004
0.973718
0.965489
1.00341
1.05947
0.923471
1.01029
1.03377
1.10955
1.1594
1.18377
1.20651
1.23561
1.17855
1.23459
1.19215
1.27302
1.27296
1.32061
1.2893
1.35186
1.3812
1.3708
1.31952
1.38416
1.40806
1.37578
1.37135
1.43507
1.41417
1.44447
1.3855
1.38522
1.4477
1.41591
1.37018
1.37037
1.4007
1.43306
0.403987
0.36638
0.537486
0.53124
0.50427
0.49946
0.495033
0.260504
0.400009
0.103048
0.128683
0.23066
0.212442
0.0919457
0.170201
0.163899
0.330208
0.239436
0.228975
0.147196
0.130331
0.148236
0.163376
0.001
0.00108311
0.001
0.001
0.001
0.001
0.00103023
0.001
0.001
0.001
0.001
0.00117546
0.001
0.001
0.001
0.001
0.001
0.001
0.001
0.001
0.00110154
0.001
0.001
0.001
0.001
0.001
0.001
0.001
0.001
0.001
0.00100231
0.001
0.001
0.001
0.001
0.001
0.001
0.001
0.001
0.00101382
0.001
0.001
0.00137529
0.001
0.00107213
0.001
0.001
0.00123041
0.00119303
0.001
0.00123152
0.00123152
0.001
0.001
0.00103641
0.001
0.001
0.001
0.001
0.001
0.00100744
0.001
0.001
0.001
0.001
0.001
0.001
0.001
0.001
0.00147105
0.001
0.001
1.02707
1.01555
0.988438
0.986966
0.904105
0.975716
0.798314
0.735912
0.724418
0.726363
0.72646
0.725252
0.664378
0.670047
0.515579
0.477131
0.435155
0.607513
0.607794
0.556524
0.558315
0.557622
0.001
0.001
0.00135339
0.00135319
0.001
0.001
0.001
0.001
0.001
0.00107509
0.001
0.00100893
0.00102884
0.001
0.001
0.001
0.001
0.001
0.001
0.001
0.001
0.001
0.00109272
0.00109249
0.001
0.001
0.00375257
0.157904
0.284008
0.150845
0.450855
0.617277
0.649652
0.677435
0.757064
0.873403
0.938833
0.914758
0.959999
0.895138
0.946272
0.986501
0.942928
0.940361
0.0012625
0.001
0.00112525
0.001
0.001
0.00121218
0.001
0.001
0.00121228
0.001
0.001
0.001
0.001
0.001
0.001
0.001
0.001
0.001
0.001
0.001
0.001
0.001
0.001
0.001
0.00139279
0.001
0.410241
0.410901
0.330986
0.348252
0.226804
0.24896
0.188557
0.188284
0.186791
0.190736
0.161138
0.165612
0.144161
0.146135
0.119411
0.162862
0.246456
0.199966
0.242333
0.244075
0.0551714
0.0846876
0.119552
0.10229
0.103369
0.108769
0.0548932
0.0493117
0.0366931
0.0465874
0.0568706
0.057648
0.91488
0.913086
0.742561
0.660936
0.648998
0.631414
0.911873
0.82453
1.07198
1.14934
1.04357
0.96761
1.1629
1.14375
1.20969
1.25995
1.2898
1.28862
1.31717
1.28988
1.34504
1.37012
1.36758
1.36564
1.38256
1.37025
1.37036
1.41571
1.35998
1.35712
0.477458
0.40086
0.545869
0.620136
0.405717
0.348219
0.402759
0.401983
0.233038
0.288952
0.100598
0.26793
0.155984
0.430906
0.370452
0.429078
0.422306
0.431786
0.32643
0.227529
0.149556
0.135839
0.150386
0.18855
0.116727
0.100859
0.0299111
0.117468
0.201252
0.195301
0.112967
0.215444
0.284104
0.231004
0.33874
0.285132
0.32808
0.383412
0.420557
0.396351
0.430978
0.431819
0.444766
0.433735
0.469311
0.480286
0.479058
0.493528
0.498942
0.499923
0.534041
0.544453
0.535303
0.529915
0.534048
0.52862
0.546381
0.559621
0.608986
0.601998
0.573657
0.603699
0.598836
0.633805
0.662486
0.725522
0.756682
0.75741
0.769248
0.838016
0.921422
0.996017
1.00822
1.13442
1.00885
1.05971
1.21047
1.23402
1.23488
1.27112
1.32056
1.37
1.37994
1.38431
1.40975
1.43981
1.46288
1.46516
1.46464
1.46273
1.46339
1.44658
1.38437
1.44645
1.41472
1.3688
1.37037
1.40105
1.4332
1.44344
1.37033
1.43138
1.3906
0.188671
0.190416
0.2551
0.330186
0.223096
0.289135
0.422635
0.356913
0.388261
0.224375
0.128124
0.0932077
0.0959465
0.192137
0.17784
0.001
0.00108346
0.14496
0.0293451
0.134132
0.143813
0.14521
0.137884
0.155651
0.174718
0.001
0.001
0.00152102
0.001
0.00108954
0.00109189
0.001
0.001
0.001
0.00117603
0.001
0.001
0.001
0.001
0.001
0.001
0.001
0.00110086
0.001
0.001
0.001
0.001
0.001
0.001
0.00100779
0.001
0.00100327
0.001
0.001
0.001
0.00122819
0.001
0.00120053
0.001
0.001
0.001
0.001
0.001
0.001
0.00102865
0.001
0.001
0.001
0.001
0.001
0.001
0.001
0.00155094
0.001
0.00107006
0.001
0.00122429
0.001
0.001
0.001
0.001
0.001
0.001
0.001
0.001
0.937703
0.936013
0.918995
0.923768
0.853671
0.916217
0.726013
0.788002
0.686051
0.684515
0.629551
0.612854
0.557378
0.556838
0.472439
0.37036
0.346424
0.514611
0.557032
0.557026
0.558022
0.55828
0.00135398
0.001
0.00135392
0.001
0.001
0.001
0.001
0.001
0.0010351
0.001
0.001
0.001
0.001
0.001
0.001
0.00100999
0.001
0.001
0.001
0.001
0.001
0.001
0.001
0.00107809
0.001
0.001
0.12124
0.159598
0.350981
0.180848
0.488375
0.622275
0.593855
0.706104
0.872227
0.772633
0.851125
0.850524
0.845524
0.871692
0.930899
0.925638
0.92944
0.902993
0.001
0.001
0.001
0.001
0.001
0.001
0.001
0.001
0.001
0.001
0.001
0.001
0.001
0.001
0.00102248
0.001
0.001
0.001
0.001
0.00107104
0.001
0.00107127
0.001
0.001
0.00104354
0.001
0.001
0.001
0.001
0.001
0.001
0.285231
0.285917
0.250392
0.228934
0.186715
0.208212
0.177013
0.173997
0.327459
0.270269
0.248295
0.102552
0.115306
0.0472949
0.0472497
0.125298
0.120322
0.116068
0.150889
0.216245
0.164706
0.209608
0.191383
0.0794732
0.0582159
0.0739754
0.0944927
0.0160082
0.0149445
0.017124
0.029451
0.0433895
0.0334084
0.001
0.00769297
1.49289
1.50264
1.5297
1.50778
1.55169
1.53668
1.55992
1.55324
1.60876
1.59724
1.56104
1.61385
1.57815
1.63219
1.45855
1.41048
1.4307
1.47989
1.46231
1.43033
1.43476
1.48847
1.49331
1.4696
1.44752
1.50297
1.48447
1.49271
1.52002
1.36984
1.37031
1.36937
1.36866
1.38772
1.40785
0.961356
0.904637
0.802878
0.709518
0.618596
0.699443
0.895893
0.879544
1.11896
1.14334
1.02872
1.11062
1.1503
1.19888
1.24599
1.28843
1.286
1.28694
1.28445
1.31333
1.32811
1.3521
1.34197
1.34249
1.34898
1.35759
1.33653
1.33454
0.527931
0.454238
0.397087
0.38464
0.445469
0.619208
0.598301
0.323257
0.385345
0.259904
0.18906
1.47568
1.49699
1.51304
1.52092
1.52654
1.53907
1.54234
1.57074
1.55501
1.57353
1.57255
1.62128
1.64503
1.66716
1.6678
1.67179
1.68531
1.70817
0.146903
0.0933084
0.093058
0.355515
0.241363
0.412458
0.318366
0.23301
0.132844
0.136423
0.135319
0.135546
0.001
0.0605352
0.001
0.001
0.0213743
0.001
0.208035
0.141125
0.0344087
0.231627
0.232007
0.234374
0.290119
0.246601
0.373395
0.320785
0.40732
0.372549
0.406995
0.434562
0.45852
0.483483
0.505534
0.505102
0.514647
0.508262
0.565678
0.552607
0.548441
0.545655
0.598193
0.573093
0.644061
0.604412
0.58593
0.62859
0.67658
0.665095
0.68704
0.721372
0.722611
0.670447
0.77765
0.808825
0.779268
0.768214
0.850992
0.93602
1.00782
1.07487
1.02289
1.03958
1.16912
1.22765
1.27187
1.25192
1.31787
1.34866
1.39009
1.40483
1.39797
1.41906
1.47574
1.45505
1.46714
1.47535
1.4659
1.46496
1.46523
1.46373
1.46559
1.46432
1.46505
0.188992
0.163404
0.16525
0.113278
0.137181
0.153649
0.0865238
0.229161
0.129633
0.0675776
0.0859803
0.0739755
0.001
0.0692573
0.094151
0.001
0.001
0.001
0.00107149
0.153696
0.035673
0.036177
0.0370276
0.001
0.001
0.001
0.001
0.001
0.00123933
0.00105509
0.00108992
0.001
0.00109948
0.001
0.001
0.001
0.001
0.001
0.001
0.001
0.001
0.00101469
0.00132902
0.001
0.001
0.001
0.001
0.001
0.001
0.001
0.001
0.00229041
0.001
0.00101
0.001
0.001
0.001
0.001
0.00100993
0.001
0.00102453
0.001
0.001
0.001
0.00117671
0.001
0.001
0.001
0.001
0.00117335
0.001
0.001
0.001
0.001
0.001
0.001
0.001
0.001
0.00113294
0.001
0.001
0.001
0.00114168
0.001
0.001
0.001
0.001
0.001
0.001
0.001668
0.001
0.001
0.001
0.001
0.0016775
1.66123
1.62793
1.6016
1.70311
1.73558
1.73141
0.91752
0.916231
0.904247
0.901271
0.826616
0.888992
0.720256
0.644529
0.572407
0.587149
0.556339
0.556851
0.557303
0.556675
0.433897
0.353913
0.442982
0.52077
0.521713
0.001
0.001
0.001
0.001
0.00103048
0.001
0.001
0.001
0.001
0.001
0.00100943
0.001
0.001
0.117948
0.15026
0.182973
0.00100998
0.001
0.001
0.001
0.001
0.001
0.001
0.001
0.001
0.001
0.001
0.320802
0.463962
0.576426
0.574561
0.894691
0.815041
0.829655
0.611902
0.702847
0.791209
0.842808
0.843262
0.844927
0.864449
0.889608
0.884957
0.001
0.00109499
0.001
0.001
0.001
0.001
0.00100904
0.001
0.001
0.001
0.001
0.001
0.001
0.00115276
0.001
0.001
0.001
0.00106495
0.001
0.00106501
0.001
0.001
0.001
0.001
0.001
0.001
0.001
0.001
0.001
0.001
0.00120347
0.001
0.001
0.00101121
0.001
0.00101
0.001009
0.281963
0.317606
0.307687
0.249055
0.24987
0.222161
0.243711
0.110112
0.140799
0.0520122
0.0508048
0.254943
0.240877
0.00834599
0.00604776
0.0102966
0.0133883
0.0740568
0.0576319
0.0912468
0.0424448
0.154266
0.114001
0.162716
0.176139
0.001
0.001
0.001
0.0112372
0.001
0.001
0.001
0.001
0.001
0.001
0.001
0.001
1.49232
1.50657
1.53024
1.55099
1.55952
1.55979
1.59977
1.57346
1.42284
1.42177
1.40546
1.4266
1.46035
1.4218
1.46871
1.44227
1.35739
1.34655
1.34477
1.3739
1.40222
1.37808
0.965965
0.888452
0.783594
0.874794
0.72503
0.629254
0.885911
0.885089
1.12505
1.12922
1.14348
1.04024
1.11743
1.23052
1.17592
1.11843
1.16133
1.26155
1.27559
1.266
1.27288
1.28075
1.30433
1.3319
1.32193
1.33278
1.33317
1.33333
1.33452
1.33387
1.33323
0.367418
0.374212
0.514761
0.596439
0.371201
0.456083
0.611916
0.62723
0.367527
0.304086
0.216732
0.285137
1.50809
1.46599
1.48633
1.533
1.53121
1.53403
1.54397
1.56625
1.58856
1.59958
1.59938
1.60434
1.62757
1.66718
1.6499
1.6664
1.68394
1.72916
1.70736
1.54027
1.55116
1.56745
1.7352
1.73626
1.73332
0.0945258
0.0958708
0.0971358
0.0654908
0.162119
0.175904
0.001
0.0229264
0.0557106
0.001
0.001
0.001
0.001
0.00148161
0.001
0.00147725
0.001
0.001
0.0892995
0.0208701
0.0204635
0.162244
0.241826
0.151267
0.310945
0.339078
0.26907
0.31194
0.372852
0.338579
0.467271
0.408639
0.482185
0.495391
0.505264
0.495479
0.543096
0.583658
0.62175
0.62257
0.628577
0.615527
0.640681
0.622516
0.673446
0.676523
0.698637
0.69905
0.677645
0.677989
0.80024
0.843361
0.74511
0.806891
0.856242
0.817153
0.918678
0.963776
1.06167
1.10224
1.0776
1.17097
1.22418
1.32563
1.30977
1.36921
1.3449
1.43889
1.44414
1.43739
1.46608
1.49413
1.49364
1.54943
1.51318
1.54194
1.50265
1.50175
1.53942
1.46914
1.5068
1.47022
0.001
0.001
0.001
0.001
0.104489
0.0882056
0.0909552
0.064076
0.0830152
0.001
0.001
0.001
0.001
0.001
0.001
0.001
0.001
0.001
0.001
0.001
0.001
0.001
0.001
0.001
0.001
0.001
0.001
0.001
0.00132361
0.00124097
0.001
0.001
0.001
0.001
0.00105282
0.001
0.0010004
0.001
0.001
0.001
0.00124404
0.001
0.00126752
0.001
0.001
0.001
0.001
0.001
0.001
0.001
0.001
0.00207102
0.001
0.001
0.001
0.00139608
0.00108568
0.001
0.00103644
0.00103524
0.001
0.001
0.001
0.001
0.00117641
0.001176
0.001
0.001
0.00117338
0.0011743
0.001
0.001
0.001
0.001
0.00117204
0.001
0.00117229
0.001
0.001
0.001
0.001
0.00100269
0.00104932
0.00105003
0.001
0.001
0.001
0.001
0.001
0.001
0.001
0.001
0.001
0.001
0.00108568
0.001
0.00100958
0.00100998
0.001
0.001
0.001
0.001
0.00102503
1.62067
1.63282
1.63436
1.6361
1.66893
1.77693
1.75106
1.75269
1.77589
1.71918
0.823919
0.814215
0.748648
0.748597
0.708855
0.737196
0.649109
0.60456
0.590812
0.555624
0.531187
0.532166
0.44131
0.453606
0.322628
0.362631
0.363551
0.001
0.001
0.001
0.00101
0.001
0.001
0.001
0.152906
0.292439
0.146563
0.001
0.001
0.001
0.001
0.0149295
0.001
0.00101621
0.001
0.001
0.00102478
0.001
0.001
0.001
0.001
0.001
0.690541
0.69074
0.73534
0.434559
0.575163
0.573299
0.61101
0.735234
0.80328
0.765482
0.673761
0.75722
0.78121
0.785408
0.708961
0.737266
0.001
0.001
0.00109366
0.00108287
0.001
0.001
0.00108455
0.00131256
0.001
0.001
0.001
0.001
0.001
0.001
0.001
0.00291577
0.00291263
0.00291414
0.001
0.001
0.001
0.00106532
0.001
0.001
0.001
0.00117277
0.001
0.001
0.001
0.001
0.001
0.001
0.00100048
0.001
0.001
0.001
0.001
0.00100077
0.001
0.001
0.001
0.00111271
0.001
0.001
0.001
0.298834
0.313083
0.320108
0.18592
0.209837
0.169937
0.170353
0.0993504
0.0876706
0.00559516
0.0128621
0.00686564
0.00759708
0.104603
0.0974671
0.001
0.001
0.001
0.001
0.00526996
0.00151592
0.0253889
0.0831274
0.155561
0.12146
0.190274
0.140099
0.001
0.001
0.001
0.00249192
0.001
0.001
0.001
0.001
0.00101
0.001
0.001
0.00141643
1.49857
1.45164
1.52899
1.49079
1.49918
1.5434
1.53395
1.58686
1.56344
1.61416
1.57978
1.54881
1.61418
1.5798
1.38874
1.38769
1.37867
1.39238
1.40548
1.41867
1.41857
1.42776
1.33275
1.33442
1.35469
1.341
1.36965
1.37728
0.967564
0.890538
0.807671
0.889321
0.678802
0.778089
0.886634
0.894299
1.11679
1.1179
1.11849
1.04593
1.20452
1.25339
1.16477
1.116
1.25972
1.25748
1.27426
1.25769
1.29544
1.32111
1.32817
1.33113
1.33175
1.32766
1.33431
1.33378
1.33125
1.32851
0.367653
0.364704
0.531456
0.609621
0.510405
0.426896
0.662463
0.607774
0.34021
0.366848
0.333658
0.252826
1.50709
1.54541
1.5273
1.55365
1.57349
1.56257
1.59676
1.60952
1.58547
1.59917
1.58842
1.5983
1.60399
1.62638
1.64965
1.66559
1.66552
1.71604
1.69386
1.74091
1.74865
1.62133
1.63456
1.74954
1.75626
0.001
0.001
0.001
0.001
0.001
0.001
0.001
0.001
0.00106981
0.001
0.001
0.001
0.001
0.001
0.001
0.001
0.0216327
0.001
0.0313452
0.0274773
0.0215952
0.0909395
0.23968
0.140537
0.328381
0.328472
0.296132
0.244081
0.365284
0.411009
0.46961
0.45556
0.48141
0.470512
0.589179
0.536763
0.640438
0.631842
0.657352
0.662135
0.637309
0.693758
0.73721
0.709988
0.696201
0.724308
0.773623
0.758949
0.742202
0.786197
0.871956
0.870072
0.865046
0.884648
1.01347
0.930983
1.10112
1.12464
1.12734
1.19248
1.27127
1.34507
1.35555
1.36549
1.41369
1.45967
1.49703
1.4954
1.53373
1.50918
1.56199
1.57489
1.57798
1.57467
1.57834
1.57498
1.54381
1.57857
1.54577
0.001
0.001
0.00513834
0.00102651
0.001
0.001
0.001
0.001
0.001
0.001
0.001
0.00122093
0.001
0.00121938
0.00121962
0.00122031
0.00122171
0.001
0.00122314
0.00525419
0.001
0.001
0.001
0.00206223
0.001
0.00206429
0.00207064
0.001
0.001
0.00100217
0.001
0.001
0.001
0.001
0.00114926
0.001
0.001
0.001
0.00100986
0.001
0.001
0.001
0.00120003
0.001
0.001
0.001
0.001
0.001
0.001
0.001
0.001
0.001
0.00100941
0.001
0.001
0.001
0.00100992
0.001
0.001
0.001
0.00101031
0.001
0.001
0.001
0.001
0.001
0.001
0.00101
0.001
0.001
0.001
0.001
0.001
0.001
0.001
0.001
0.001
0.001
0.001
0.001
0.001
0.001
0.00146698
0.001
0.001
0.001
0.001
0.001
0.001
0.001
0.001
0.001
0.001
0.001
0.001
0.001
0.001
0.001
0.001
0.001
0.001
0.001
0.001
0.001
0.001
0.001
0.001
0.001
0.001
0.001
0.001
0.001
0.0011172
0.001
0.001
0.001
0.001
1.80356
1.79082
1.80712
1.80087
1.81136
1.80934
1.64883
1.65024
1.71799
1.68622
1.77761
1.80064
1.77629
1.66168
1.61203
0.688113
0.688256
0.689122
0.677775
0.689173
0.619936
0.665863
0.451621
0.509317
0.372282
0.37465
0.322247
0.319878
0.322237
0.001
0.001
0.001
0.00135668
0.125689
0.315576
0.150676
0.00104977
0.001
0.104626
0.0018458
0.001
0.001
0.001
0.001
0.001
0.001
0.001
0.00101798
0.001
0.00101988
0.001
0.001
0.001
0.691587
0.690028
0.691006
0.690915
0.691287
0.403475
0.515759
0.462362
0.580062
0.641164
0.667595
0.598226
0.679662
0.634257
0.630532
0.619908
0.001
0.00115701
0.001
0.001
0.001
0.001
0.001
0.0010193
0.001
0.001
0.00101206
0.001
0.001
0.001
0.001
0.001
0.001
0.001
0.001
0.00101617
0.001
0.001
0.001
0.001
0.001
0.001
0.001
0.001
0.001
0.001
0.001
0.001
0.001
0.001
0.001
0.001
0.001
0.001
0.00118956
0.00114393
0.001
0.001
0.001
0.00103844
0.00104319
0.001
0.001
0.001
0.001
0.001
0.001
0.001
0.001
0.001
0.001
0.001
0.001
0.296788
0.225786
0.215461
0.148661
0.137089
0.0575799
0.0409881
0.0322128
0.0324588
0.0234171
0.0321775
0.001
0.001
0.001
0.001
0.0321527
0.0367506
0.001
0.001
0.001
0.001
0.117791
0.185893
0.0981712
0.00101775
0.001
0.0636224
0.001
0.0743735
0.001
0.001
0.001
0.001
0.00182422
0.00182323
0.001
0.001
0.001
0.001
0.00100972
0.001
1.46167
1.44484
1.47036
1.47113
1.47041
1.49046
1.51155
1.53147
1.53156
1.53216
1.61587
1.57274
1.5377
1.37814
1.37657
1.40561
1.39109
1.41838
1.41685
1.44452
1.42662
1.3343
1.34087
1.36334
1.34717
1.36073
1.36956
1.00686
0.928298
0.84973
0.893292
0.837101
0.740347
0.928831
0.888244
1.12098
1.12027
1.08024
1.12451
1.21202
1.2615
1.1237
1.16902
1.2619
1.26172
1.28517
1.26271
1.30419
1.32582
1.32376
1.32584
1.32555
1.32622
1.33036
1.32895
1.32647
1.32529
0.36371
0.418143
0.608181
0.586976
0.506994
0.589703
0.609909
0.684903
0.357321
0.351613
0.344274
0.266609
0.097994
0.135304
0.226821
1.57841
1.58209
1.60957
1.60265
1.62708
1.63646
1.6373
1.63854
1.67208
1.65395
1.66462
1.63112
1.66191
1.67238
1.69639
1.71508
1.72705
1.72423
1.77507
1.77594
1.79911
1.77644
1.69294
1.69714
1.81218
1.81008
0.001
0.001
0.001
0.001
0.001
0.00126526
0.00126512
0.001
0.001
0.001
0.001
0.00181287
0.00135911
0.001
0.001
0.001
0.00100232
0.001
0.0788033
0.0406333
0.001
0.132249
0.173687
0.193136
0.17595
0.276303
0.348027
0.227364
0.453687
0.38891
0.462575
0.467235
0.555292
0.4951
0.617618
0.649252
0.646054
0.650571
0.776159
0.738455
0.707304
0.763545
0.788797
0.782915
0.777471
0.769819
0.784287
0.783985
0.866515
0.907924
0.945488
0.902669
0.945187
0.972781
1.11267
1.04657
1.14006
1.12631
1.20908
1.28321
1.3713
1.36572
1.4015
1.43733
1.51203
1.50322
1.52396
1.53153
1.55994
1.56704
1.58848
1.57844
1.59269
1.58629
1.57722
1.59124
1.57767
1.58016
0.001
0.001
0.00107968
0.001
0.001
0.001
0.001
0.001
0.00132211
0.0012172
0.001
0.001
0.001
0.00121874
0.00122143
0.00122075
0.00122293
0.00122515
0.00122218
0.001
0.001
0.00100886
0.001
0.00163695
0.001
0.0010045
0.001
0.001
0.001
0.001
0.001
0.00103442
0.001
0.001
0.00100863
0.00121949
0.001
0.001
0.001
0.00346413
0.001
0.001
0.001
0.00100991
0.001
0.001
0.001
0.00100983
0.001
0.001
0.0010342
0.001
0.00100976
0.001
0.001
0.001
0.001
0.001
0.00326467
0.001
0.001
0.001
0.001
0.001
0.00109912
0.00109887
0.00109894
0.001
0.001
0.001
0.001
0.001
0.001
0.00103103
0.001
0.001
0.001
0.001
0.001
0.001
0.001
0.001
0.001
0.001
0.001
0.001
0.001
0.001
0.001
0.001
0.001
0.001
0.001
0.001
0.001
0.001
0.001
0.001
0.001
0.001
0.001
0.001
0.001
0.001
0.001
0.001
0.00101378
0.001
0.001
0.001
0.00121222
0.001
0.001
0.00115332
0.001
0.001
1.82398
1.84643
1.85603
1.81096
1.81608
1.80138
1.81025
1.69911
1.71719
1.73588
1.75072
1.75112
1.78645
1.81162
1.65833
1.6884
1.6097
1.64459
1.63896
0.683782
0.68118
0.585275
0.548357
0.645964
0.577405
0.587765
0.455509
0.484282
0.348372
0.319628
0.318152
0.321811
0.299785
0.001
0.001
0.236231
0.342935
0.127299
0.001
0.001
0.0812145
0.0724321
0.001
0.001
0.001
0.001
0.001
0.001
0.001
0.001
0.00125207
0.001
0.001
0.001
0.001
0.001
0.001
0.64608
0.691374
0.666155
0.642011
0.404977
0.40913
0.431521
0.498956
0.618931
0.617036
0.572346
0.615999
0.61981
0.00100999
0.001
0.001
0.001
0.001
0.001
0.00130461
0.00130144
0.001
0.001
0.00104368
0.00100946
0.001
0.001
0.00100978
0.00100025
0.001
0.00164269
0.001
0.001
0.001
0.001
0.001
0.001
0.001
0.001
0.001
0.001
0.00168762
0.001
0.001
0.001
0.001
0.001
0.001
0.001
0.001
0.001
0.001
0.001
0.001
0.001
0.001
0.001
0.001
0.001
0.00103673
0.001
0.001
0.001
0.001
0.00149756
0.001
0.001
0.001
0.001
0.001
0.001
0.001
0.001
0.001
0.001
0.001
0.212156
0.13408
0.131113
0.0720436
0.073189
0.0459206
0.0634831
0.034468
0.0707453
0.00377269
0.00412123
0.001
0.001
0.001
0.001
0.001
0.001
0.001
0.001
0.001
0.001
0.001
0.001
0.045995
0.0905687
0.001
0.001
0.001
0.0932657
0.145212
0.103412
0.001
0.001
0.001
0.00149292
0.00103279
0.001
0.001
0.001
0.001
0.00100999
0.00101618
0.001
1.47114
1.46217
1.47141
1.48827
1.46838
1.49988
1.52151
1.50624
1.51915
1.57477
1.52336
1.60521
1.57209
1.63909
1.35871
1.38129
1.3756
1.39935
1.38059
1.40804
1.43544
1.39946
1.32866
1.33753
1.34402
1.35361
1.3518
1.35129
1.0632
0.980972
0.870478
0.893359
0.788637
0.884832
0.895148
0.955699
1.12586
1.12649
1.12907
1.10372
1.21872
1.26426
1.18303
1.13776
1.26537
1.26606
1.27185
1.29228
1.32328
1.31048
1.32426
1.32401
1.32542
1.32439
1.32482
1.32628
1.32381
1.3253
0.441319
0.348623
0.617605
0.62091
0.528904
0.622821
0.621094
0.721509
0.348271
0.347304
0.326129
0.31239
0.249771
0.345222
1.59406
1.61132
1.63258
1.66551
1.66216
1.67979
1.69585
1.7018
1.71114
1.69721
1.70513
1.72573
1.74694
1.75851
1.75803
1.76689
1.78874
1.80739
1.81987
1.81939
1.83319
1.70844
1.69799
1.8525
1.8729
0.001
0.00108513
0.001
0.001
0.001
0.001
0.001
0.001
0.001
0.00181125
0.001
0.001
0.001
0.001
0.001
0.001
0.00130947
0.001
0.001
0.0428927
0.001
0.129473
0.21517
0.206965
0.121681
0.276661
0.282204
0.372362
0.434796
0.403726
0.481489
0.424482
0.617283
0.541158
0.650587
0.649631
0.666471
0.725434
0.854198
0.861164
0.802229
0.831146
0.862416
0.809135
0.917817
0.846905
0.822454
0.85888
0.992497
1.00169
1.06707
1.11992
1.0039
1.09357
1.2393
1.18958
1.25962
1.2283
1.42358
1.38765
1.45454
1.46892
1.5398
1.55048
1.6122
1.57767
1.62645
1.60758
1.6269
1.66249
1.63303
1.66552
1.6737
1.63124
1.62095
1.66487
1.6642
1.63366
0.001
0.001
0.00102105
0.001
0.001
0.001
0.001
0.00120221
0.001
0.00101365
0.001
0.001
0.001
0.001
0.001
0.001
0.00100968
0.00122307
0.001
0.001
0.00121647
0.00101762
0.001
0.001
0.00151718
0.001
0.001
0.001
0.001
0.001
0.00112886
0.001
0.001
0.001
0.001
0.001
0.001
0.00100967
0.001
0.001
0.001
0.001
0.001
0.001
0.001
0.001
0.00114587
0.00114164
0.00114207
0.001
0.001
0.001
0.001
0.0010194
0.001
0.001
0.00101832
0.001
0.001
0.001
0.00100552
0.00109208
0.001
0.001
0.00104132
0.001
0.001
0.001
0.00103808
0.001
0.001
0.001
0.00102776
0.001
0.001
0.001
0.001
0.001
0.001
0.001
0.001
0.001
0.001
0.001
0.001
0.001
0.001
0.001
0.001
0.001
0.001
0.001
0.001
0.001
0.001
0.001
0.001
0.001
0.001
0.001
0.001
0.001
0.001
0.001
0.001
0.001
0.001
0.001
0.001
0.001
0.001
0.001
0.001
0.001
0.001
0.001
0.001
0.00121214
0.001
0.001
0.00113039
0.001
0.001
0.001
1.87968
1.864
1.88018
1.85036
1.83864
1.86745
1.85345
1.83134
1.85089
1.7093
1.73433
1.73549
1.73463
1.8049
1.85075
1.87016
1.76899
1.64532
1.67577
1.64666
1.6466
1.64029
1.68186
1.57077
0.449275
0.547055
0.449182
0.489901
0.489209
0.39697
0.395837
0.40088
0.399219
0.400584
0.372656
0.294847
0.266868
0.184183
0.184989
0.299499
0.404476
0.001
0.001
0.0732373
0.0734096
0.001
0.00108839
0.00932329
0.001
0.001
0.00100153
0.001
0.00433363
0.001
0.001
0.001
0.00433727
0.001
0.00113402
0.001
0.00132654
0.55477
0.479737
0.455495
0.542093
0.408548
0.428462
0.565837
0.497842
0.543081
0.616178
0.615391
0.0011488
0.001
0.001
0.00118257
0.001
0.001
0.0013055
0.00130511
0.001
0.001
0.00100995
0.001
0.001
0.001
0.001
0.001
0.00176709
0.00177709
0.001
0.001
0.00177223
0.001
0.00149819
0.001
0.001
0.001
0.001
0.00148597
0.001
0.00168784
0.00153157
0.001
0.001
0.001
0.001
0.001
0.001
0.001
0.001
0.001
0.001
0.001
0.001
0.00101
0.001
0.001
0.001
0.001
0.001
0.00123765
0.001
0.001
0.001
0.001
0.00148266
0.001
0.001
0.001
0.001
0.001
0.001
0.001
0.001
0.001
0.001
0.001
0.001
0.001
0.001
0.001
0.001
0.001
0.001
0.0715191
0.0712039
0.102048
0.0697185
0.0709903