/*--------------------------------*- C++ -*----------------------------------*\
  =========                 |
  \\      /  F ield         | OpenFOAM: The Open Source CFD Toolbox
   \\    /   O peration     | Website:  https://openfoam.org
    \\  /    A nd           | Version:  8
     \\/     M anipulation  |
\*---------------------------------------------------------------------------*/
FoamFile
{
    version     2.0;
    format      ascii;
    class       volScalarField;
    location    "13140";
    object      alpha;
}
// * * * * * * * * * * * * * * * * * * * * * * * * * * * * * * * * * * * * * //

dimensions      [0 0 -1 0 0 0 0];

internalField   nonuniform List<scalar> 
526318
(
0.000304214
0.000442874
0.000607793
0.000707605
0.000402815
0.000691279
0.00101642
0.00105719
0.000493498
0.00135753
0.000706922
0.000539987
0.00060054
0.00150818
0.000925481
0.000631672
0.000623131
0.000428389
0.000515463
0.000533364
0.000474526
0.000495429
0.00229553
0.000921736
0.000320577
0.000555265
0.000605521
0.0016081
0.000354497
0.000506824
0.000786654
0.000621352
0.000385734
0.000828663
0.000505867
0.000447803
0.000327453
0.000476065
0.000521841
0.000350486
0.00066424
0.000431281
0.00373776
0.00201905
0.00680366
0.00818756
0.00284582
0.00181608
0.000870661
0.000898436
0.000532593
0.000555407
0.000473137
0.000425554
0.481307
0.0099874
0.00702909
0.0593701
0.00039176
0.000386027
0.000350896
0.000355456
0.000372875
0.000306054
0.000405689
0.000492442
0.000319444
0.00024565
0.000279426
0.000385558
0.00042033
0.000699646
0.000650249
0.000810731
0.00118772
0.000533327
0.000604168
0.000807407
0.000698442
0.000548827
0.000936696
0.000461818
0.000571852
0.000395284
0.000716609
0.000584246
0.00102879
0.000365196
0.00144849
0.00128267
0.00120396
0.00264735
0.00110594
0.00235959
0.000259186
0.00100863
0.00314146
0.000703517
0.000716364
0.00127704
0
0
0
0
0
0
0.0026027
0.0301149
0.00354096
0.00558936
0.00162996
0.00149696
0.00101832
0.000633036
0.000250137
0.000777955
0.000751906
0.000310827
0.000114758
0.000709562
0.00105689
0.001464
0.000865545
0.00162667
0.00114335
0.00302004
0.00113351
0.00307765
0.00126324
0.00409331
0.00469065
0.00506682
0.00359548
0.00446602
0.00428434
0.00448316
0.00452741
0.00520971
0.00522409
0.00679539
0.00696884
0.00403209
0.00440509
0.00468916
0.00657584
0.0075043
0.00605026
0.00721151
0.00534358
0.00655634
0.00712241
0.00450886
0.00374614
0.00114328
0.00461396
0.00954647
0.00919703
0.010133
0.0112241
0.00908827
0.00443731
0.0097197
0.000725058
0.000404392
0.000416568
0.000305554
0.000349281
0.00109495
0.000383601
0.000361046
0.00093082
0.000260469
0.000963375
0.00107676
2.85312e-05
0.00100177
0.000938864
0.00508402
0.00425924
0.00508147
0.000795843
0.00147634
0.00128014
0.0040158
0.00145058
0.00615381
0.00534562
0.00358699
0.00544933
0.00289767
0.00439921
0.00308553
0.00386351
0.00524867
0.00544783
0.00587471
0.0054919
0.00319743
0.00358495
0.00773016
0.00605713
0.00546525
0.00485262
0.00126781
0.00547644
0.00456368
0.00823063
0.0056409
0.00341542
0.00526552
0.000860088
0.000270815
0.000343276
0.000337031
0.000186628
0.000423799
0.000110146
2.09564e-05
0.000523546
0.00111891
0.00794225
0.00222193
0.0015755
0.000575382
0.000879089
0.000844901
0.000140729
0.000291018
0.000586975
0
0
0
0.00698128
0
0
0
0
0
0
0.0004723
0.000353937
0.000647342
0.000350167
0.000461818
0.00029916
0.000471621
0.000402732
0.00039633
0.000784718
0.000385624
0.00109323
0.000647001
0.00106959
0.000883747
0.000810919
0.000325691
0.00037055
0.00102764
0.000782717
0.000736574
0.000994641
0
0
0
0
0
0
0
0
0.00419652
0.0113078
0.0022003
0.00194727
0.00133697
0.00100443
0.000474678
0.000733555
0.000641806
0.000189151
0.000489095
0.000524427
0.000740426
0.00113147
0.00117068
0.00171991
0.00518395
0.00126481
0.0047851
0.00258004
0.00387302
0.00347888
0.00458215
0.00818315
0.00789014
0.0183648
0.00502809
0.00384703
0.00318346
0.00579235
0.00812015
0.0090544
0.0215081
0.0156998
0.00132017
0.00489847
0.0113507
0.00890416
0.00357002
0.0120588
0.00508187
0.00941587
0.0308629
0.0196526
0
0.158732
0
0.008547
0.00419395
0.0116426
0.00500143
0.000544194
0.000869236
0.00134948
0.000829356
0.00062424
0.00112994
0.000996141
0.000444606
0.000848162
0.00029798
0.000923338
0.00382394
0.00529555
0.00481667
0.00677554
0.00774371
0.0074732
0.00132478
0.0160607
0.00344196
0.00325908
0.00536963
0.00323243
0.00354717
0.00287837
0.00429498
0.00522114
0.0042038
0.00603289
0.00588997
0.00288997
0.00451728
0.00393847
0.00281965
0.00356564
0.00500045
0.00351747
0.00242111
0.0044108
0.00415428
0.00322295
0.00360975
0.00375681
0.00504132
0.00585814
0.00322759
0.00376129
0.0033517
0.00129102
0.000410648
0.00177794
0.00179726
0.0015258
0.00131812
0.000788742
0.00169975
0.00124924
0.000306784
0.0004339
0.00104982
0.000910712
0.00047414
0.000151813
0.000541662
0.00110249
0.000465443
0.000275111
0.000563562
0.0171051
0.0255947
0.0171989
0.0144252
0.00328804
4.43877e-05
0.000672174
0.000348637
0.000393721
0.000281006
0.000593751
0
0
0
0
0
0
0
0
0
0
0
0
0
0
0
0
0.000431516
0.000371354
0.000405258
0.000318411
0.000358778
0.000482802
0.000264045
0.00055011
0.000691706
0.000223548
0.000592781
0.00101129
0.000733309
0.00048414
0.000396685
0.000300467
0.000297153
0.000402327
0.000546214
0.000601313
0.00114455
0.000648603
0
0.000157099
0.0004963
0
0
0
0
0.000431585
0.00044858
0.000587954
0
0
0
0
0
0
0
0
0
0
0
0
0
0
0.0662842
0
0.0122899
0.00259647
0.00253585
0.000959757
0.000517953
0.000794574
0.000481542
0.000513964
0.000409334
0.000403149
0.000497034
0.00016785
0.000799314
0.000911139
0.00239154
0.00132235
0.000578849
0.0039985
0.00440954
0.00310918
0.00534843
0.00375077
0.011985
0.00659821
0.0440855
0.015819
0.0049291
0.0115274
0.0248792
0.0144662
0.00943131
0.0104534
0
0
0.053581
0.0726842
0.0463333
0
0
0
0
0
0
0.00189771
0.000840288
0.00326304
0.000555251
0.00178871
0.000313586
0.00111463
0.000853794
0.00332693
0.000532168
0.00111037
0.00174293
0.00106508
0.0268208
0.00187198
0.000713378
0.00184706
0.00168809
0.00141346
0.000984781
0.00043039
0.00121593
0.00129019
0.0004692
0.00292072
0.00136563
0.00214952
0.0107332
0.0120981
0.0149458
0.0358862
0.0285639
0.00430199
0
0.129808
0.00688235
0.00100899
0.00307341
0.00406852
0.00321879
0.00451923
0.00563428
0.00537503
0.00577506
0.00587695
0.00436996
0.00421376
0.00374252
0.00486484
0.00199127
0.00286787
0.00242133
0.00244185
0.00137699
0.00609286
0.0033221
0.00268408
0.00242365
0.00297396
0.00329185
0.00204017
0.00384473
0.00318064
0.00121424
0.00201408
0.00267732
0.00383654
0.00294429
0.00127457
0.00229652
0.000482066
0.00123997
0.000140359
0.000277093
0.000291152
0.000369921
0.000604437
0.000977901
0.0007266
0.00122553
0.000221417
0.00114528
0.00430517
0.00214387
0.000542493
0.000950659
0
0.0414777
0.00752908
0.00202497
0.00252346
0.00124306
0.00182532
0.00285659
0.00483255
0.0187211
0
0
0
0
0
0
0
0
0
0
0
0
0
0
0
0
0
0
0
0
0
0
0
0
0
0
0.0072937
0
0.00356608
0
0.00341125
0.00875646
0
0
0
0
0
0
0
0
0
0
0
0
0
0
0.000474013
0.000376475
0.000514734
0.00037258
0.000233442
0.000478236
0.000418615
7.45826e-05
0.000526603
0.00040815
0.000570313
0.00045799
0.000221921
0.000101941
9.49423e-05
0.000110968
0.000525174
0.000309567
0.000446829
0.000741808
0.000342106
0.000845304
0
0
0
0
0
0
0
0
0
0
0
0
0
0
0
0
0
0
0
0
0
0
0
0
0
0
0
0
0
0
0
0
0
0
0.0049829
0.00337574
0.00160457
0.0032691
0.00193514
0.000816563
0.000854034
0.000300992
0.000146329
0.000494789
0.00054448
0.000254327
0.00037845
0.000648433
0.00304355
0
0
0
0
0
0
0
0
0
0
0
0
0
0
0
0
0.000392514
0.00229744
0.000943981
0.000340766
0.00482136
0.000323261
0.00404255
0.00868394
0.0291812
0.0072374
0
0
0.0845962
0.145926
0
0.339322
0
0.0256789
0.0244894
0.0559447
0
0
0
0
0
0
0
0
0
0
0
0
0.00058852
0.00044559
0.00113259
0.0010096
0.00109369
0.000549724
0.000549739
0.000991878
0.000642364
0.000733859
0.000984669
0.00174948
0.00275035
0.00140125
0.00346569
0.00100371
0.00100648
0.00384202
0.020099
0.0209956
0.00365904
0.144186
0.00113067
0.00300545
0.00131425
0.00170663
0.00294596
0.000904674
0.00182711
0.00220064
0.00269729
0.0056977
0.013331
0.0432888
0.0652391
0.0913004
0.342259
0.756122
0
0
0
0.0177622
0.00553032
0.0128784
0.00691271
0.00511439
0.00420644
0.00533574
0.00388936
0.00485738
0.00423061
0.00284614
0.00258458
0.00221991
0.00101096
0.00413287
0.00198571
0.00242274
0.00170592
0.00272018
0.00181816
0.0026555
0.00232712
0.00334575
0.00116741
0.00351658
0.00275842
0.0017297
0.00441763
0.00117847
0.000520953
0.00110582
0.000167894
0.00228673
0.00201909
0.000918057
0.00158911
0.000853353
0.00153614
0.000973506
0.000920815
0.00130031
0.00070334
0.000796118
0.000731331
0.000577525
0.000717702
0.000731979
0.000695662
0.000678146
0.000538715
0.000452843
0.000525596
0.000468179
0.000437385
0.000606855
0.000490526
0.000579007
0.000477357
0.000452768
0.000467188
0.000483053
0.00040676
0.000425967
0.000391354
0.000511513
0.000404664
0.000517416
0.000386385
0.000555992
0.000374782
0.000391551
0.000496485
0.000453614
0.000524848
0.000384199
0.000507688
0.000522267
0.000540441
0.000490339
0.000419512
0.00330573
0.000541954
0.00121156
0.0001566
0.000532916
0.000353605
0.000406253
0.0122835
0.00190061
0
0
0.0443364
0.087285
0
0
0
0.00985102
0.0617324
0.0181622
0
0
0
0
0
0
0
0
0
0
0
0
0
0
0
0.00639065
0
0
0
0
0
0
0
0
0.013361
0
0
0
0
0
0
0
0
0
0
0
0
0
0
0
0
0
0
0
0
0
0
0
0
0.0015672
0.00474817
0
0.00159343
0
0
0
0
0
0
0
0
0
0
0
0
0
0
0
0
0
0
0
0
0
0
0
0.000404854
0.000415941
0.000449343
0.000643896
0.000211565
0.00018899
0.000116127
0.000487544
0.000249273
0.000309442
8.93735e-05
0.000176901
9.56633e-05
8.96278e-05
0.000680953
0.001735
0.000477237
0.000386984
0.000459559
0.000494148
0.000735059
0.000852423
0
0
0.00854592
0.00847687
0
0
0
0
0.0159691
0
0
0
0
0
0
0
0
0
0
0
0
0
0.00912555
0.00763915
0
0
0
0
0.0412767
0
0.00149697
0.00185406
0.00147677
0.00219209
0.00144358
0.000715779
0.000416638
0.000875723
0.00046964
0.000870874
0.000890294
0.000603059
0.000779295
0.000595223
0.00474833
0
0
0
0
0.000111425
0
0
3.94526e-05
0
0
0
0
0
0
0
0
0
0
0
0
0
0
0
0.527935
3.26376
0.00326953
0.000919708
0.00313853
0.00534692
0.0378777
0.0148426
0
0
0
0.00942619
0
0
0
0
0
0
0.0293209
0
0.0464914
0.0653086
0
0
0
0
0
0
0
0
0
0
0.00130669
0
0.000524438
0.000459809
0.00107795
0.000990083
0.000977726
0.000594511
0.000393019
0.000535847
0.000740214
0.000505009
0.000620669
0.000852093
0.000597669
0.000636
0.000546043
0.000492191
0.000448551
0.000455475
0.000442383
0.000543748
0.000601732
0.000410116
0.00051086
0.000499241
0.000499187
0.000532385
0.000547712
0.000471205
0.000542013
0.000517123
0.00170242
0.0031442
0.00163031
0.00140639
0.00108038
0.0112589
0.00356394
0.00116126
0.138192
0.0258883
0
0.0169769
0
0.000537636
0.00372588
0.00216242
0.00280425
0.00231279
0.00628474
0.131115
0
0
0
0
0
0
0
0
0
0
0
0.157284
0.0116198
0.0246981
0.00802693
0.0143526
0.0111866
0.00479641
0.00327461
0.0037241
0.00156974
0.0013102
0.00390209
0.00247117
0.00313776
0.00243419
0.00243927
0.00129934
0.00260581
0.00170954
0.00192572
0.00196806
0.00227822
0.00205711
0.00201048
0.00222437
0.00247476
0.00206584
0.00136265
0.00199092
0.00213484
0.00132895
0.00129264
0.00164831
0.000767262
0.00112188
0.000841866
0.00124382
0.00119361
0.000788966
0.000888117
0.000697278
0.000747009
0.000464855
0.000643997
0.000597651
0.000444416
0.000446087
0.000454036
0.000480744
0.000411816
0.000431886
0.000376092
0.00046263
0.000375541
0.000455946
0.000323537
0.000435811
0.000401326
0.000311313
0.000339703
0.000438853
0.000454943
0.000357536
0.000400257
0.000472096
0.000398542
0.000390097
0.000347931
0.000348504
0.000425181
0.000373655
0.00036917
0
0
0.0301646
0.00551396
0.0187534
0.0126897
0.00118038
0.00357946
0.000748133
0.0174498
0
0
0
0.353523
0
0
0
0
0
0.020206
0.0190455
0
0
0
0
0
0
0
0
0.00267038
0.0185245
0
0
0
0.00763806
0
0
0
0
0
0
0
0.0211283
0
0
0
0
0
0
0
0
0.000108306
0
0
0
0
0
0
0
0
0
0
0
0
0
0
0.00301857
0
0
0
0
0
0
0
0
0
0
0
0
0
0
0
0
0
0
0.000403331
0.000188644
0.000365506
0.000525939
0.000190871
0.00022896
0.000462682
0.000197243
0.000147658
0.000186508
0.00032094
0.000259823
3.72096e-05
0.000383866
0.00119604
0.003574
0.00123282
0.00114542
0.000126964
0.000635458
0.000490402
0.000586516
0.000264644
0
0.0029326
0
0
0
0
0
0
0
0
0
0
0
0
0
0
0
0
0
0
0
0
0
0
0
0
0
0.0141012
0
0.00137965
0.00137413
0.000725454
0.00144487
0.000570239
0.00128359
0.00106219
0.000793157
0.00114079
0.000767084
0.000579129
0.00036995
0.0005938
0.000908762
0
0
0
0
0
0
0
0
0
0
0
0
0
0
0
0
0
0
0
0
0
0
0.487175
0
0
0
0
0
0
0
0
0.00780955
0.0111548
0.00857222
0.0127202
0
0.373988
0
0
0.00421659
0.00478589
0.0190224
0
0
0
0
0.00128814
0.00206003
0
0
0
0
0
0
0
0
0
0
0
0
0
0
0
0
0
0
0.00030755
0.000360867
0.000325161
0.000363246
0.000339685
0.000377469
0.000356367
0.000361443
0.00032582
0.000289455
0.000396811
0.00019621
0.000313592
0.000279193
0.000370082
0.00040628
0.000391546
0.000362857
0.000340067
0.000387869
0.000423178
0.000373988
0.000334429
0.000419837
0.000337568
0.000363268
0.000354351
0.000394215
0.000348008
0.00053178
0.000490366
0.000427858
0.000473185
0.000422669
0.00037233
0.000472161
0.000706273
0.000879306
0.0010575
0.0011092
0.000535384
0.000592743
0.000662432
0.000611232
0.000692208
0.000838128
0.000650203
0.000457503
0.000571091
0.000462882
0.000474821
0.000493179
0.000462172
0.000606771
0.000497319
0.00058376
0.000506145
0.000533585
0.000538187
0.000544593
0.000573608
0.000554319
0.000531522
0.00132655
0.00517029
0.00219897
0.00467907
0.00378617
0.000894836
0.000984117
0.00825643
0.0130817
0.023002
0
0.000294021
0.000298803
0.000300642
0.00030075
0.000299962
0.000279969
0.000274159
0.000315282
0.00027897
0.000339036
0.000344034
0.000331133
0.000278129
0.000282373
0.000193303
0.000192964
0.000191958
0.00020385
0
0
0.00247041
0.00776504
0.020713
0.00609142
0.00610291
0.0982492
0.00226806
0
0.00567545
0.00839407
0
0
0
0
0
0
0
0
0
0.0685803
0.0582821
0.0479498
0.0163726
0.0687558
0.00481495
0.00733242
0.00271342
0.00376616
0.00438967
0.00442947
0.00190124
0.00268033
0.000863802
0.00223675
0.00239772
0.00190845
0.00133081
0.00275821
0.00237598
0.0019431
0.00162173
0.00178899
0.00146077
0.00132643
0.00212838
0.000839434
0.00109445
0.00110712
0.000854873
0.000787131
0.000680064
0.001249
0.000724613
0.000806069
0.000803075
0.000563239
0.000684408
0.000560327
0.000631663
0.000535693
0.000642257
0.000639677
0.000486365
0.000467456
0.000413517
0.000505789
0.000399675
0.00044748
0.000437492
0.000340553
0.000349519
0.000447356
0.000337091
0.00024668
0.000343951
0.000190319
0.000203344
0.000316457
0.00033233
0.000265128
0.000302515
0.000275031
0.000288712
0
0
1.11615
0
0
0
0
0.0567559
0
0
0
0
0
0
0.00687063
0
0
0
0
0.0139044
0
0
0
0
0
0
0
0
0.00293953
0.0033646
0.0307873
0
0.000315247
0
0
0
0
0
0
0
0
0
0.0110249
0
0
0
0
0
0
0
0
0.204039
0
0
0
0
0
0
0
0
0
0
0
0
0.000560906
0
0
0
0
0.00746144
0
0
0
0
0
0
0
0
0
0
0
0
0
0
0
0
0
0
0
0.00245693
0
0
0
0
0.00277915
0.000197243
0.000306561
0.000348741
0.00020497
0.00018295
0.000229476
0.000119767
0.000288929
0.000380962
0.000133911
0.000334245
0.00021405
0.000198019
0.000379979
0.000332232
0.000441871
0.000217397
0.000209857
0.000475304
0.000786153
0.00108466
0.00278016
0.000642557
0.000344228
0.000261335
0
0
0
0
0
0
0
0
0
0
0
0
0
0
0
0
0
0
0
0
0
0
0
0
0
0
0
0.00141392
0.00243138
0.000964566
0.000310718
0.000169309
0.000403153
7.16878e-05
0.00125725
0.000778911
0.00104366
0.000475449
0.000572244
0.000832823
0.000722016
0.000466107
0.000589153
0
0.00103959
0
0
0
0
0
0
0
0
0
0
0
0
0
0
0
0
0
0
0
0
0
0
0
0
0
0
0
0
0
0
0
0
0
0
0
0.0129817
0.00182817
0.00235335
0.0230619
0.00754687
0.0648866
0.0200762
0
0
0
0
0.0118757
0.0085824
0
0
0
0
0
0
0
0
0
0
0
0
0
0
0
0
0
0
0
0
0
0
0
0
0.000400663
0.000336425
0.000356746
0.000350012
0.000402242
0.000234344
0.000316223
0.000280539
0.000390542
0.000410255
0.000403061
0.000431862
0.000432481
0.000385656
0.000384834
0.000385436
0.000566659
0.000583084
0.000525173
0.000466459
0.000379044
0.000488701
0.000641553
0.00085949
0.000993309
0.000782272
0.000653301
0.00122707
0.000661385
0.000977225
0.00066823
0.000741969
0.000629233
0.000768211
0.000575222
0.00055021
0.000562491
0.00062528
0.000757245
0.000488384
0.000515295
0.00058573
0.000578442
0.000680149
0.000567834
0.000591632
0.000593348
0.000596798
0.000463196
0.000604076
0.000558602
0.000556997
0.000510411
0.00459881
0.00226404
0.00336982
0.000139867
0.00547914
0.00436272
0.000796526
0.00024859
0.0106957
0.0148429
0
0.0118587
0.00025199
0.000235701
0.000233191
0.000242851
0.000221533
0.000226994
0.000240494
0.00024743
0.000247857
0.000279702
0.000276781
0.000327408
0.000248951
0.000204368
0.00024287
0.000197072
0.000173534
0.000214037
0.000208718
0.000217828
0.00019395
0.000209442
0.000183393
0.00022595
0.000305601
0.00356385
0.00865922
0.00497565
0
0
0
0
0
0
0
0
0
0
0
0
0
0
0
0
0
0.00378778
0
0.0734638
0
0.0159429
0.00680915
0.0795615
0.0260089
0.00684179
0.00316474
0.00135591
0.00534171
0.00132017
0.00224151
0.0026008
0.00191993
0.00277284
0.000942908
0.00144638
0.00161536
0.00125503
0.00229719
0.00147467
0.00186781
0.000811473
0.00125275
0.00114489
0.00103247
0.00131998
0.00119958
0.0010631
0.000834955
0.0015278
0.00103281
0.000788536
0.000814188
0.00067356
0.00058011
0.000712968
0.000674297
0.000712191
0.000539978
0.000573583
0.000386808
0.000530854
0.000469901
0.000402227
0.000330654
0.00040642
0.000398656
0.000285846
0.000206408
0.000324985
7.69632e-05
0.000226879
5.7107e-05
0.000228592
0.000243724
0.000119036
0.000204979
0.000173233
0.000234245
0
0
0
0
0
0
0
0
0
0
0
0
0
0
0
0
0
0
0
0
0
0
0
0
0
0.000517814
0
0
0.00797458
0.00214033
0
0
0
0
0
0
0
0
0
0
0
0
0.277013
0
0
0
0
0
0
0
0
0.276787
0
0
0
0
0.00379886
0
0
0
0
0
0
0
0.000681513
0.00131738
0
0
0.00512257
0.00442499
0
0
0
0
0.00671454
0
0.00907901
0
0
0
0
0
0
0
0
0
0
0
0
0
0
0
0
0
0.00424864
0
0
0
0
0
0
0
0
0.000272137
0.000293559
0.00017733
0.000211683
0.000228314
0.000223321
0.000294739
0.000301654
0.000133716
0.000246344
0.000196338
0.000292427
0.000241523
0.000387369
0.000445321
9.60177e-05
0.000461186
0.000626477
0.0003495
0.000481656
0.000438457
0.00026479
0.000621538
9.27937e-05
0.00189725
0.00043917
0.00133112
0
0
0
0
0
0
0
0.00106142
0.0176495
0
0
0
0
0
0
0
0
0
0
8.99107e-05
0
0
0
0
0
0.000384767
0.000259483
0.000487596
0.00317476
0.00129411
0.000220133
0.000864491
0.000195117
0.000472226
0.000450199
0.000697015
0.000471566
0.000479775
0.000370728
0.00040676
0.000557788
0
0
0.000980151
0
0
0
0
0.00136435
0
0
0
0
0
0
0
0.0106933
0
0.00449762
0.00799542
0
0
0
0
0
0
0
0
0
0
0
0.0153087
0
0
0
0
0
0
0
0
0
0
0
0
0
0.00391568
0.00851133
0.00379982
0.00557242
0
0.0483784
0
0
0
0
0.00169147
0
0
0.00173226
0
0
0
0
0
0
0
0.00317974
0
0
0
0
0
0
0
0.00284937
0
0.00451722
0
0
0
0
0
0
0
0.00375461
0.000338947
0.000351014
0.000312385
0.000331736
0.000472508
0.000469119
0.000640083
0.00030372
0.000371832
0.000179676
0.000131662
0.00012984
0.000123787
0.000153316
0.000428632
0.000419804
0.000430555
0.000404428
0.000387316
0.000394536
0.0004166
0.000435886
0.000630782
0.000623685
0.000518774
0.000571622
0.000511686
0.000383244
0.000584706
0.000654296
0.000816821
0.00078755
0.000690059
0.000270173
0.000772797
0.000973774
0.000651259
0.000743401
0.000450099
0.000553514
0.000537838
0.0006226
0.000775519
0.000734819
0.000560622
0.000580786
0.000589719
0.000664118
0.000595408
0.000598911
0.000586465
0.000524624
0.000392082
0.000543772
0.000592574
0.000559228
0.000528498
0.000393057
0.00527056
0.00654374
0.00151953
0.000245485
0.00291708
0.00378531
0.000404554
0.000904656
0.0201348
0.00448242
0.0158433
0.0371389
0.000153004
0.000161231
0.000173339
0.000188507
0.00015525
0.000175466
0.000228831
0.000180036
0.000172459
0.000206324
0.000235461
0.000239955
0.000250081
0.000221153
0.000191009
0.000192985
0.000183965
0.000246815
0.000177838
0.000219315
0.000238354
0.000153612
0.000209015
0.000181012
0.000242425
0
0
0
0
0
0
0
0
0
0
0
0
0
0
0
0
0.00378945
0
0
0
0
0
0.974056
0
0.0124117
0.00649264
0.0425574
0.205401
0.0107446
0.00347492
0.00180083
0.00333637
0.00269053
0.00321957
0.00197914
0.00263761
0.00214974
0.00193706
0.00181423
0.00198474
0.00274042
0.00153255
0.00105196
0.00161985
0.00158744
0.00117303
0.00119685
0.00121037
0.00159424
0.00114554
0.000913759
0.00113759
0.000923152
0.00117463
0.000942549
0.000705377
0.00062747
0.000809752
0.000677425
0.000754982
0.000505209
0.000596147
0.000430306
0.000521884
0.000374553
0.000410124
0.000286412
0.000369536
0.000274769
0.000185377
6.39403e-05
0.000193363
5.49975e-05
0.000190735
1.66914e-05
0.000180661
0.000201682
2.84346e-05
0.00017893
0
0
0.145907
0.00019363
0
0
0
0
0
0
0
0.0180498
0.0160039
0.0305608
0.0282718
0.0340836
0.0289756
0
0.0336248
0.321492
0
0
0
0.00499327
0
0.00375246
0.000696419
0
0
0
0
0
0
0
0
0.00013341
0
0
0
0
0
0
0.825471
0
0
0
0
0
0
0
0
0
0
0
0
0
0
0
0
0
0
0
0
0
0
0
0
0
0
0
0
0
0
0
0
0
0
0
0
0
0
0
0
0
0
0
0
0
0
0
0
0
0
0
0
0
0
0
0
0
0
0
0
0
0
0
0
0
0
0
0
0
0.00012031
0
0
0
0
0.000117481
0.000186737
0.000191776
0.00015801
0.000287556
0.000224927
0.000326462
7.44618e-05
0.000353299
0.000339121
0.000147682
0.000140402
0.000375945
3.64999e-05
0.000283517
0.000212543
0.00035443
3.85028e-05
0.000447188
0.000349612
0.000932712
0.000383544
0.000686591
0.000666847
0.0018568
0.00146637
0.00376463
0.00263053
0.00212896
0
0
0
0
0.0136083
0.00977921
0
0
0
0
0
0
0
0
0
0
0
0.0133055
0.00853781
0
0.00831003
0
0
0
0.000223481
0.000250407
0.000254296
0.000105862
0.000686273
0.00495385
0.000796738
0.00187862
0.000955783
0.000912863
0.000157451
0.000116715
0.000699361
0.000340422
0.000575589
0.000114571
0
0.00346495
0
0
0
0
0
0.000130277
0
0
0.00115461
0
0
0
0.000723899
0
0
0
0
0
0
0
0
0
0
0
0
0
0
0
0
0
0
0
0
0
0.00202162
0
0.0125513
0
0
0
0
0
0
0
0
0
0
0
0
0
0
0
0
0
0
0.00492283
0.0720072
0.0584815
0
0
0
0
0
0
0
0
0
0
0
0
0
0
0
0
0
0
0
0
0
0
0
0
0
0
0
0
0
0
0.00321015
0.00338763
0
0
0
0
0
0
0.000258687
0.000285409
0.00046877
8.9312e-05
0.000619933
0.000228908
0.000451543
0.000349519
0.000146242
0.000424309
0.00019205
9.96134e-05
0.000145874
0.000362674
0.000470064
0.000386843
0.000401951
0.000428946
0.000394025
0.000346281
0.000390374
0.000603336
0.000584637
0.000478606
0.000615762
0.000477354
0.000462338
0.000653403
0.00061995
0.000562562
0.000462832
0.000407901
0.000301806
0.000841029
0.000726436
0.000552569
0.000625571
0.000627659
0.000512551
0.000642959
0.000598454
0.000626847
0.00058601
0.000594313
0.00056487
0.000491686
0.000652046
0.000530295
0.00045237
0.000422234
0.000645329
0.000598224
0.000421331
0.000539814
0.000507239
0.000497418
0.000253249
0.00238156
0.00407995
0.00104766
0.000851413
0.00240937
0.000614003
0.00136427
0.000708533
0.00508195
0.0143351
0.0171677
0.036323
0
0
0.475587
9.49487e-05
0.000186221
0.000178122
0.000115885
0.000152639
0.000134258
0.000133344
0.000160753
0.000113004
0.000146095
0.000174436
0.000172026
0.000152072
0.000180291
0.000180057
0.000118868
0.000180484
0.000242092
0.000172515
0.000210767
0.000174759
0.000162489
0.000118448
0.000105149
0.000155684
0.00014519
0
0
0
0
0
0.00648788
0.0106594
0
0
0
0
0.00393147
0.00564147
0
0
0
0
0
0
0
0
0
0
0
0
0.0346681
0.0102582
0.361558
0.00248635
0.00731784
0.000562604
0.000997716
0.00314878
0.00159545
0.00111384
0.00154877
0.00201167
0.00176046
0.00124175
0.00209454
0.0020434
0.00164291
0.00125625
0.00111821
0.00135766
0.00154973
0.0015074
0.00153565
0.000986185
0.00102778
0.00120693
0.000909649
0.00117087
0.000827466
0.00101423
0.000751165
0.000763043
0.000969972
0.000662445
0.000713125
0.000473661
0.00057191
0.00042168
0.000457466
0.000349879
0.000320842
0.000262476
0.000206973
8.09284e-05
0.000178098
8.41899e-05
0.000177895
6.0183e-05
0.000171057
0.000202838
3.23099e-05
0.00016611
2.39825e-05
0
0
0
0
0
0
0
0
0
0.000447695
0
0
0
0.0135718
0.0217257
0.0368959
0.037106
0.0340167
0.0635775
0
0
0
0
0
0
0
0
0
0
0
0
0
0
0
0
4.49434e-05
0
0
0
0.141124
0
0
0
0
0
0
0
0
0
0
0
0
0
0
0
0
0
0
0.559047
0
0
0
0
0
0.00246305
0.00205424
0.00454668
0
0
0
0
0
0
0
0
0
0
0
0
0
0
0
0
0
0
0
0
0
0
0
0
0
0
0
0
0
0
0
0
0
0
0
0
0
0
0
0
0
0.006796
0
0.00278073
0
0.0109665
0
0
0
0.000163748
0.000176028
0.000156522
0.000212975
8.72539e-05
8.75537e-05
4.98199e-05
0.000400456
0.000206127
6.27856e-05
0.000478701
0.000443672
0.000145581
0.000147911
0.00038119
0.000196358
2.02e-05
7.48453e-05
0.000192801
0.000366005
0.000667045
0.000112821
0.00084221
0.000126644
0.000923586
0.000221985
0.000971952
0.00135398
0.00291157
0.0051381
0.00706238
0.0174395
0.00493857
0
0
0.161887
0.00296117
0
0
0
0
0
0
0
0
0
0
0
0
0
0
0
0
0
0
0
0
0.000616771
0.000353954
0.000413354
0.000777947
0.00237527
0.00091545
0.00142215
0.00142426
0.000891814
0.000805105
0.000439973
0.000464435
0.000738986
0
0
0
0
0
0
0.00681134
0.0064948
0
0
0
0
0
0
0
0
0
0.0016647
0
0
0
0
0
0
0
0.00343186
0
0
0.0320449
0
0
0
0
0
0
0
0
0
0
0
0
0
0
0
0
0
0
0
0
0
0
0.00239238
0
0
0
0
0
0
0
0
0
0
0
0.237345
0
0
0
0
0
0
0
0
0
0
0
0
0
0
0
0
0
0
0
0
0
0
0
0
0
0
0
0
0
0
0
0
0
0.00405671
0
0
0
0
0
0
0
0
0.000855649
0.000396635
0.00036406
0.000175864
0.00110138
0.000551972
0.00031304
7.20819e-05
0.000209695
4.71479e-05
0.000111634
7.41415e-05
2.42643e-05
9.65917e-06
0.000489533
0.000364112
0.000375931
0.000329644
0.000419203
0.000432541
0.000595984
0.000440579
0.000456212
0.000512597
0.000501695
0.000331539
0.000432896
0.000456632
0.000778228
0.000704512
0.000622053
0.000358133
0.00110112
0.000401629
0.000664209
0.000676697
0.000527343
0.000589989
0.00062865
0.000674821
0.000505127
0.000453708
0.00029864
0.000387273
0.000482727
0.000331515
0.000420097
0.000515154
0.000211789
0.0004973
0.000445697
0.000577567
0.000386575
0.000597098
0.000412995
0.000356834
0.000349919
0.000188311
0.00441979
0.0062748
0.000881099
0.00137642
0.00140644
0.00143228
0.00136642
0.000737168
0.0112806
0.0102557
0.00602814
0.0299058
0.0570925
0.0109202
3.49769e-05
0.000235021
0.000160182
0.000140359
0.000157832
6.43004e-05
0.00010145
4.79849e-05
9.38264e-05
0.000121201
9.07553e-05
0.000149248
0.000126149
0.000177382
0.00016525
0.000169444
0.000174386
0.00016387
0.000171807
0.00013874
0.000147836
0.000113182
3.56569e-05
0.000150006
0.000138163
0
0
0
0
0
0
0
0
0
0.00431508
0
0
0
0
0
0.000117191
0.000142594
0
0
0
0
0
0
0
0
0.025054
0.0120325
0.00850991
0.00237823
0.00541607
0.00221039
0.000832023
0.000980465
0.00140197
0.00194727
0.000965914
0.00194441
0.00124265
0.00148482
0.000723748
0.00163591
0.00145744
0.00092531
0.00158103
0.00108285
0.00113963
0.00143026
0.001534
0.000840007
0.00107915
0.000861996
0.000919905
0.00113306
0.00104136
0.000708248
0.00093583
0.000763394
0.000808679
0.00056482
0.000579566
0.000470272
0.000466517
0.000366794
0.000330641
0.000230702
0.000207642
0.00011245
0.000132749
0.000143227
0.000109955
0.000193573
8.83469e-05
7.87378e-05
0.000172989
0.000171568
7.04406e-05
8.20763e-05
0.000169455
0
0
0
0
0
0
0
0
0
0.000304927
0
0
0
0
0
0
0
0.100972
0
0
0.0996544
0
0
0
0.00538607
0
0
0
0
0
0.0014887
0
0
0
0
0
0
0
0
0
0
0
0
0
0
0
0.00501311
0.00839183
0.00851677
0
0
0
0
0.00348371
0
0
0.00411068
0
0
0
0
0.00654525
0
0.00115314
0
0
0
0
0
0
0
0
0
0
0
0
0
0
0
0
0
0
0
0
0
0
0
0
0
0
0
0
0
0
0
0
0
0
0
0
0
0
0
0
0
0
0
0
0
0
0
0
0
0
0
0
0
0.0030842
0
0
0
0.0125643
0
0
0.000146993
0.000148406
0.000184101
6.93053e-05
7.53696e-05
0.000150107
0.000123179
0.000132526
5.28595e-05
0.000337662
6.93399e-05
0.000229757
0.000283939
0.000230481
0.000109917
0.0001965
0.000141621
0.000195488
0.000124351
0.000174914
6.06794e-05
0.000162983
5.83267e-05
6.50935e-05
0.000677292
0.00130652
0.00116885
0.000195565
0.0014303
0.00349981
0.00238475
0.00248932
0.00187151
0.00252349
0.00457965
0.0253267
0.0172219
0
2.30564
0.0574847
0.00566685
0
0
0.016107
0
0
0
0
0
0
0
0.00460893
0
0
0
0
0.000464476
0
0
0
0
0.000928063
0.00114676
0.00148885
0.00070152
0.000767132
0.00415544
0.00130666
0.00162012
0.00175007
0.00104551
0.00115738
0.000343582
0
0
0.000292026
0
0
0.00479809
0.0031492
0
0
0
0
0
0
0
0
0.0198929
0.0205731
0
0
0.0141917
0
0.00227083
0
0
0
0
0.0937684
0
0.00642107
0.172328
0
0
0
0
0
0
0
0
0
0
0
0
0
0
0
0
0
0
0.0177269
0
0
0
0
0
0
0
0
0
0
0
0
0
0
0
0
0
0
0
0
0
0
0
0
0
0
0.000566255
0.000256792
0
0
0
0
0
0
0
0
0.00173227
0
0
0
0
0
0
0.00118444
0
0
0
0
0
0
0
0
0
0
0.383395
0
0
0
0
0
0
0
0
0
0
0
0
0
0.000179215
0.00046126
0.000532067
0.000283611
0.000231269
0.000187395
0.000214186
0.000128977
6.60894e-05
0.000138999
3.40531e-05
4.48329e-05
9.10717e-05
2.00418e-05
0.000165715
0.000387757
0.000409847
0.00030264
0.00035952
0.000339283
0.000379783
0.000411838
0.000472569
0.000403044
0.000403944
0.000421858
0.000287635
0.00028961
0.00036279
0.000669032
0.000700887
0.000538056
0.000555195
0.00106005
0.000868237
0.000862692
0.000584637
0.000405368
0.000342184
0.000419544
0.000559752
0.000238492
0.000219625
0.000104409
4.93889e-05
0.000253698
0.000204152
0.000290578
0.000206471
0.000251926
0.000738674
0.000483254
0.000591881
0.000108476
0.000404766
0.000187476
3.88521e-05
0.000154545
0.00391857
0.010271
0.00278164
0.00154994
0.00134809
0.0011307
0.00141262
0.00234462
0.0141928
0.00894829
0.0135335
0.011397
0.003252
0.00268768
5.74518e-05
0.000169951
0.000100548
6.21413e-05
5.31645e-06
7.95657e-05
9.16485e-05
3.58123e-05
0.000132893
0.000141865
0.000176046
0.000152585
0.000197758
0.000183008
0.000127772
0.000194711
0.000135168
0.000128336
0.000175836
0.000115475
0.000129128
0.000100356
0.000137041
0.000134785
0.0268311
0.00434474
0.0241412
0
0
0
0
0
0
0
0
0
0
0
0
0
0
0
0
0
0
0
0.202221
0
0.0551266
0.0104366
0.0158403
0.00722104
0.00225913
0.00195849
0.00268861
0.00422716
0.00290998
0.00184822
0.00227939
0.00251855
0.00212391
0.00144249
0.0017523
0.00176297
0.00128699
0.00171131
0.00124733
0.00152404
0.000982998
0.00105222
0.00122673
0.00104971
0.00111944
0.00126232
0.000908622
0.000903986
0.00107343
0.00111295
0.000885932
0.000877264
0.000782057
0.000630277
0.000502835
0.000584712
0.000498223
0.000357016
0.000326082
0.000186614
0.000162382
0.000111422
0.000123368
0.000126305
0.000111086
0.000130636
0.000141791
0.000149521
0.000115529
0.000156815
0.000129425
9.88614e-05
0.000125368
0.000105065
0.00577244
0.006609
0
0
0
0
0
0
0
0
0
0.00390846
0
0.0403009
0
0.0181576
0.0303359
0
0
0
0
0
0
0
0
0
0
0
0
0.00235313
0
0
0
0
0
0
0
0
0.00623694
0.00506665
0
0
0.00370044
0
0
0
0.00492189
0
0
0
0
0
0
0
0.0110029
0
0
0
0
0
0
0
0
0
0