/*--------------------------------*- C++ -*----------------------------------*\
  =========                 |
  \\      /  F ield         | OpenFOAM: The Open Source CFD Toolbox
   \\    /   O peration     | Website:  https://openfoam.org
    \\  /    A nd           | Version:  8
     \\/     M anipulation  |
\*---------------------------------------------------------------------------*/
FoamFile
{
    version     2.0;
    format      ascii;
    class       volScalarField;
    location    "13140";
    object      H;
}
// * * * * * * * * * * * * * * * * * * * * * * * * * * * * * * * * * * * * * //

dimensions      [0 1 0 0 0 0 0];

internalField   nonuniform List<scalar> 
526318
(
0.72083
0.68324
0.756096
0.665117
0.738115
0.69397
0.708453
0.623894
0.691
0.560208
0.548138
0.667371
0.613713
0.651944
0.613075
0.639113
0.613311
0.810381
0.717254
0.765731
0.759532
0.714543
0.475378
0.712835
0.602091
0.469784
0.740694
0.732663
0.742244
0.747675
0.778412
0.826683
0.808042
0.692759
0.68534
0.657284
0.661681
0.754883
0.683681
0.628037
0.694726
0.663843
0.327319
0.375736
0.287478
0.341578
0.310268
0.426606
0.613351
0.509013
0.60091
0.596481
0.553096
0.511574
0.00876397
0.255662
0.250742
0.0448126
0.765564
0.78027
0.799834
0.752031
0.695503
0.824907
0.821659
0.778237
0.767407
0.765911
0.670444
0.662248
0.775412
0.553161
0.607442
0.505509
0.454792
0.448579
0.543957
0.544571
0.459077
0.494573
0.576158
0.577448
0.532514
0.487217
0.51592
0.58353
0.583018
0.560964
0.509127
0.583377
0.486284
0.436826
0.432421
0.361833
0.359934
0.362759
0.360303
0.359307
0.355745
0.354986
7.97638e-05
2.15653e-06
0.000297623
1.13804e-05
0.00085088
0.000148343
0.270024
0.0777749
0.394682
0.346909
0.392922
0.514963
0.734787
0.631939
0.741445
0.753951
0.813084
0.787938
0.834437
0.353296
0.352556
0.355886
0.35875
0.312737
0.3527
0.264002
0.306241
0.216185
0.266229
0.216739
0.21464
0.205526
0.181058
0.171676
0.201527
0.141337
0.196243
0.145987
0.165939
0.113044
0.117956
0.135237
0.165177
0.150278
0.108336
0.109411
0.122018
0.110148
0.106154
0.116222
0.127228
0.115742
0.115097
0.121056
0.117756
0.0866589
0.120426
0.117875
0.085517
0.0428211
0.115805
0.0707534
0.130365
0.620097
0.713782
0.6595
0.641707
0.448248
0.515471
0.45005
0.446485
0.449953
0.447039
0.469813
0.447284
0.382912
0.354045
0.32145
0.259535
0.318847
0.362841
0.361614
0.362632
0.248941
0.300191
0.186823
0.196495
0.205841
0.197041
0.198482
0.200564
0.189889
0.19132
0.190851
0.179633
0.163462
0.186485
0.175664
0.150159
0.130493
0.155327
0.137235
0.133675
0.145045
0.136767
0.141472
0.104839
0.122746
0.155086
0.152797
0.603218
0.616075
0.648922
0.619991
0.61194
0.598952
0.606623
0.483203
0.520103
0.267949
0.245805
0.244926
0.371143
0.50567
0.378189
0.417688
0.419966
0.363403
0.346537
0.00054831
1.12817e-16
3.8824e-16
0.190692
0.00027704
9.76159e-09
0.000995694
0.000255125
0.000396609
0.000963311
0.816532
0.800885
0.844369
0.843686
0.807151
0.800138
0.708726
0.793175
0.636644
0.586003
0.583327
0.582702
0.583755
0.583046
0.569733
0.570981
0.487595
0.550978
0.368423
0.424221
0.355377
0.366065
0.00100536
4.55059e-11
0.000154997
0.00100202
0.000103589
0.000987509
5.36206e-12
0.000741948
0.364644
0.180365
0.413095
0.412972
0.526664
0.626897
0.751852
0.750912
0.787198
0.76633
0.829505
0.864426
0.333006
0.332517
0.291951
0.265771
0.161753
0.197581
0.125243
0.137046
0.124907
0.118098
0.109576
0.116911
0.0420708
0.0624719
0.0965739
0.136886
0.195022
0.161168
0.124658
0.121174
0.0513733
0.0449781
0.0925958
0.149668
0.0713648
0.111384
0.110094
0.0777922
0.0744214
0.0416835
0.0376051
0.00103734
0.000440154
0.00468948
0.000603174
0.11557
0.153426
0.12626
0.159826
0.515475
0.476057
0.377756
0.464772
0.385879
0.437003
0.447803
0.438089
0.447424
0.447023
0.359304
0.272584
0.20475
0.184837
0.2626
0.200295
0.186413
0.300744
0.189925
0.238031
0.179085
0.178555
0.187402
0.178134
0.191553
0.188852
0.186207
0.190361
0.190179
0.188374
0.19422
0.192617
0.201776
0.199588
0.20386
0.181129
0.196661
0.178399
0.154249
0.154413
0.179399
0.209623
0.203051
0.183946
0.161292
0.184452
0.229601
0.226499
0.233806
0.200344
0.235315
0.248418
0.284014
0.239698
0.246753
0.274016
0.304623
0.424936
0.505027
0.420256
0.456646
0.532657
0.598551
0.501944
0.370989
0.480818
0.38087
0.400782
0.14123
0.0873468
0.114092
0.101353
0.217841
0.333937
0.271419
0.335065
0.343092
0.360297
0.337687
2.95166e-09
0.000699573
0.000304137
5.22131e-06
0.00044883
0.000406748
0.000599399
0.00100998
0.000476803
0.00100962
0.000664765
0.00100889
0.000730728
0.000955715
0.000582482
0.000952703
0.841444
0.834785
0.866962
0.8613
0.835451
0.807458
0.732399
0.648518
0.581096
0.595138
0.573312
0.570368
0.551187
0.55323
0.52999
0.531902
0.481742
0.52306
0.445393
0.392951
0.333244
0.294399
0.000936208
0.00107387
0.00107386
0.000663073
0.000612597
0.000731205
0.000593151
0.00107386
0.00107389
0.00107388
0.00100999
0.00100984
0.000550093
0.00100942
0.000924102
0.000172183
0.000288255
0.000487392
0.000977135
0.00096135
7.31626e-08
0.000978536
0.000793614
1.85613e-05
0.0709086
4.15872e-29
0.272212
0.437569
0.454047
0.543837
0.759838
0.659433
0.777879
0.774221
0.787194
0.820141
0.847581
0.871153
0.2529
0.250829
0.206158
0.230935
0.17015
0.134053
0.127883
0.127394
0.121032
0.126048
0.0742952
0.0685179
0.0182476
0.0321972
0.0861346
0.0612729
0.0334049
0.0798487
0.0795261
0.0875899
0.000935883
0.000854983
0.0145368
0.0257516
0.0280879
0.000661594
0.000698985
0.000874956
0.000887905
0.000387281
0.000872478
0.270347
0.250668
0.252896
0.245582
0.270197
0.37399
0.335928
0.313425
0.198803
0.237082
0.22235
0.226592
0.130232
0.0597302
0.244301
0.361641
0.243203
0.250293
0.229206
0.31306
0.29239
0.364897
0.396863
0.32043
0.301631
0.33534
0.214206
0.183994
0.180363
0.188268
0.101843
0.151943
0.0798286
0.000482332
0.0129398
0.131023
0.130574
0.177575
0.179132
0.177891
0.180299
0.180068
0.184941
0.180933
0.192396
0.187239
0.203306
0.195693
0.20226
0.204857
0.227245
0.213345
0.238894
0.241561
0.188959
0.175025
0.238502
0.223877
0.209653
0.225872
0.209903
0.194163
0.247487
0.225196
0.338369
0.344373
0.298793
0.339
0.343956
0.307287
0.399091
0.370092
0.442217
0.462172
0.478836
0.396189
0.399987
0.402798
0.362981
0.342348
0.310039
0.403815
0.253751
0.228283
0.277724
0.300716
0.00062422
0.0334817
0.108829
0.22898
0.268007
0.296438
0.205789
0.174545
0.131209
0.0790079
0.000965631
0.000310861
1.42674e-06
1.84795e-07
0.000778321
0.000973891
0.000993891
0.000234006
0.00100979
0.000545241
0.00024476
0.000470015
0.000926911
0.000208943
0.000889372
0.000986846
0.000766556
0.000551352
0.000138864
0.000388285
0.00097475
0.00101
0.000136054
0.000999779
0.0009098
0.000354496
0.00118089
0.000892916
0.00107455
0.000979368
0.0011807
0.00118063
0.000907013
0.000999494
0.0009727
0.000201819
9.59135e-05
0.000989075
0.000892979
0.0009482
0.00100959
0.000881287
0.00100965
0.000996543
2.65749e-05
0.000931251
0.83695
0.8474
0.867984
0.85851
0.835967
0.762272
0.583996
0.668834
0.550996
0.554806
0.532088
0.530888
0.523955
0.523355
0.519314
0.518142
0.461473
0.434514
0.335841
0.375345
0.229158
0.272271
0.000984616
0.000624444
0.000948563
0.000967574
0.000969466
0.000982262
0.000975999
0.000870723
0.00101
0.000779924
0.000677989
0.000965569
0.000971308
0.000759356
0.000380116
0.000991326
0.000690401
0.00100737
0.000803925
0.000839513
0.000369052
0.000975289
0.000889611
0.000439439
0.000917861
0.00068906
0.00101
0.000641909
7.51763e-06
6.82991e-05
0.000555011
0.000719123
0.00033516
0.000898267
0.258478
0.0825259
0.45841
0.422402
0.492508
0.588261
0.698784
0.772398
0.789122
0.774787
0.813791
0.851122
0.83607
0.829841
0.00116182
0.000880291
0.000886173
0.000256542
0.000692716
0.000922867
0.00081396
0.000937303
0.000890554
0.000725685
0.000975785
0.00092383
0.000794854
2.99799e-07
0.000880516
0.00101
0.000170373
0.232078
0.230734
0.229244
0.198199
0.117471
0.15468
0.0781004
0.0727277
0.0360449
0.029068
0.000728001
0.000731118
0.0122196
0.00815361
0.000969631
0.00497231
0.00100135
0.0516024
0.0324866
0.0326471
0.000700726
0.000921773
0.000703425
0.000791781
0.000769107
0.000813428
0.000964289
0.000555971
0.000325844
0.000996791
0.000920408
0.000390313
0.46486
0.43412
0.475647
0.493065
0.44095
0.394799
0.562466
0.584966
0.649196
0.662178
0.200888
0.246777
0.299994
0.380534
0.199341
0.155042
0.186703
0.186553
0.0234618
0.0732181
0.125099
0.0154102
0.229224
0.227281
0.228631
0.22889
0.251958
0.226145
0.239726
0.257722
0.137499
0.128623
0.0296183
0.117665
0.114402
0.0645758
0.0255956
0.03083
8.97904e-89
0.000685262
0.000869768
0.0633926
0.127197
0.0592445
0.128912
0.18204
0.178723
0.179543
0.179699
0.182387
0.201427
0.197238
0.21198
0.209794
0.229879
0.222844
0.244206
0.242124
0.247112
0.244456
0.255252
0.248777
0.292244
0.265277
0.224012
0.231776
0.297822
0.268529
0.26928
0.313368
0.351501
0.345219
0.345746
0.351278
0.388326
0.435034
0.4963
0.519802
0.521452
0.506039
0.649547
0.584419
0.713585
0.751327
0.742598
0.781469
0.837319
0.703552
0.786635
0.809249
0.886974
0.936645
0.958127
0.984173
1.01449
0.954877
1.01192
0.969933
1.0503
1.05031
1.101
1.06877
1.12701
1.1597
1.14624
1.09694
1.15865
1.18305
1.15056
1.14584
1.21154
1.19114
1.2208
1.16182
1.15888
1.22656
1.19212
1.14607
1.1437
1.17743
1.21063
0.202712
0.16948
0.338398
0.333193
0.30124
0.299364
0.299209
0.0676747
0.19226
0.000826752
0.000259834
0.0289694
0.016306
9.48104e-05
0.000854991
0.000293051
0.131862
0.034406
0.0351246
0.000423095
0.000455065
0.000413917
0.000841039
0.000348275
0.00101
5.27544e-07
5.8384e-05
9.70941e-06
5.35186e-05
0.00101
0.000966006
0.000995857
0.000568346
1.3062e-05
0.00166347
0.000842141
0.000928041
0.000844807
0.000691483
0.00036639
0.00069126
0.000943677
0.000831092
0.00133451
0.000409054
0.00012748
0.000146108
0.000949
0.000431299
6.93167e-06
1.61879e-05
0.000990101
0.00093513
0.00100829
0.00077614
0.000911134
0.000410555
0.00100928
0.00100997
0.000810376
0.000944183
0.00075839
0.000978582
0.000974989
0.000926586
0.00101
0.00057983
0.00094881
0.00102637
0.00105797
0.000960395
0.00102627
0.0009292
0.00101
0.00101
0.000467339
0.000585417
0.000993933
0.000773625
0.000877713
0.00099375
0.000922247
0.000776475
0.0010078
0.000994205
0.000136415
0.000956593
0.000950381
0.000921886
0.000915695
0.000919934
0.000616037
0.00101
0.000623175
0.000968314
0.826098
0.813422
0.786373
0.785633
0.702847
0.77602
0.599673
0.532932
0.524189
0.523965
0.524309
0.524153
0.461852
0.467924
0.314996
0.273784
0.229434
0.405146
0.406377
0.356001
0.355331
0.35395
0.000860164
0.000414359
0.00108477
0.00108424
0.000962471
0.000414864
0.00093308
0.000410365
0.00108352
0.000938379
0.000161511
0.00100893
0.000972717
0.000941946
0.000297472
0.000985833
0.000726155
0.00091818
0.00021426
0.00071546
0.000427052
0.000951565
0.00137925
0.00137938
3.81621e-05
5.85335e-06
0.000169957
0.000987693
0.082743
3.40098e-21
0.24994
0.418434
0.45271
0.472258
0.562962
0.67028
0.737289
0.716631
0.762961
0.693344
0.742293
0.789665
0.741033
0.740229
0.00107093
0.000998625
0.00100999
0.000849207
0.000914686
0.00119419
0.000759221
0.000801018
0.00119419
0.000964874
0.000981161
0.000996251
1.53139e-05
1.14836e-05
0.000988532
0.000373012
5.43074e-14
0.00072123
0.00101
0.000253336
0.000277025
0.000765241
0.00096459
0.000879022
0.00205026
0.00101095
0.206657
0.205187
0.126449
0.145235
0.0199656
0.0427014
0.000771382
0.000826477
0.000546109
0.00125263
0.000275067
0.000751573
0.00068537
0.000630537
0.000189391
0.000247092
0.0244053
0.00094458
0.0245636
0.0242745
0.000583243
0.0002975
0.000460162
0.0008342
0.00030944
0.000950196
0.000717662
0.000602104
0.000980152
0.000764758
0.00121387
0.000699807
0.69692
0.694406
0.517942
0.43282
0.426472
0.410566
0.688802
0.599843
0.851107
0.926265
0.820468
0.746287
0.940094
0.921421
0.988056
1.0373
1.06654
1.06723
1.09356
1.06516
1.11919
1.14749
1.14078
1.14252
1.15818
1.14288
1.14336
1.19273
1.13429
1.12999
0.254338
0.180266
0.334232
0.392712
0.188933
0.127645
0.184686
0.182401
0.0139568
0.0670651
7.13051e-05
0.0658949
0.000693973
0.227854
0.166129
0.231574
0.2239
0.223008
0.11934
0.0222598
0.000820263
2.6483e-06
1.34518e-06
0.000990613
3.95253e-323
3.72515e-29
1.81001e-06
0.000998818
0.000956748
0.000782705
3.63154e-05
0.00594677
0.0738913
0.0203447
0.128036
0.0723885
0.114397
0.172188
0.204554
0.184359
0.215386
0.214651
0.231545
0.219794
0.255912
0.263749
0.265506
0.27707
0.280238
0.28375
0.313508
0.323132
0.319815
0.315362
0.316586
0.306466
0.328973
0.34575
0.388578
0.391679
0.354427
0.382526
0.376119
0.405701
0.446441
0.505169
0.533959
0.539699
0.550517
0.613167
0.700691
0.770536
0.785462
0.908434
0.783035
0.839209
0.990279
1.01147
1.01218
1.05203
1.09544
1.14902
1.15393
1.15919
1.18769
1.21334
1.24294
1.24065
1.24276
1.24329
1.24402
1.22419
1.1602
1.22655
1.19301
1.14535
1.14769
1.17939
1.21377
1.22304
1.14785
1.20895
1.16923
0.000314455
0.000820101
0.0549041
0.133492
0.0246109
0.0886823
0.221638
0.161397
0.185048
0.0223021
0.000825849
1.86756e-06
0.000711137
0.00385302
1.76532e-09
0.000212911
9.12924e-07
0.000444055
0.000963336
0.00120975
0.00120343
0.000284872
0.000456023
0.000269009
0.00100999
0.000871197
0.000795729
0.000978231
0.000432952
0.00145843
0.00145942
0.00086849
0.000172666
0.000447775
0.00166332
0.000981197
0.000708912
0.000478021
0.000315336
0.000471875
0.00101
0.00085179
0.00133398
0.000928609
0.00101
0.000560149
0.000660221
0.000998234
0.000701989
0.000938544
0.000874495
0.00105206
0.000945165
0.000791252
0.000751098
0.000990039
7.57449e-05
0.00099613
0.000976554
0.000151024
0.000650036
0.000544652
0.000936558
0.000835023
0.000996502
0.000990444
0.00103662
0.000978339
0.000943996
0.000974885
0.00092222
0.000207016
0.000979907
0.000919067
0.00101
0.000732523
0.00100962
0.000641972
0.000367709
0.000916152
0.000960434
0.000963324
0.000892128
0.000596064
0.000479733
0.738602
0.733916
0.71727
0.724075
0.65247
0.717753
0.525841
0.587199
0.484875
0.484385
0.428905
0.410709
0.356064
0.352522
0.272141
0.165196
0.141224
0.31185
0.353732
0.352498
0.357287
0.355949
0.00108356
0.000989279
0.00108353
0.000582779
0.000973634
0.000973647
0.00094649
0.000972052
0.00100548
0.000830393
0.000135327
0.000443538
0.00093376
0.000997208
0.00060297
0.00100999
0.00098232
3.53596e-05
0.000985985
0.000873381
0.000276721
0.000456774
0.000655599
0.00101
0.000321117
3.32274e-05
0.00016739
0.000935205
0.147068
1.42298e-38
0.287033
0.418282
0.395401
0.50023
0.671673
0.573397
0.6514
0.650513
0.642732
0.67598
0.730851
0.725511
0.732095
0.701087
0.000769413
0.000922585
0.000565424
0.000958878
0.000712787
0.000933944
0.000627141
0.000452485
0.00081931
0.000879841
0.000957505
0.000856862
0.000968979
1.37121e-12
0.000922039
0.000873917
0.00096514
0.000987798
0.000743529
0.00100999
0.000468733
2.19762e-06
0.00192284
0.000901385
0.00101
0.000860782
0.000668131
0.000489708
0.000136748
6.28842e-11
0.00098545
0.0823143
0.0831805
0.0447272
0.0264154
0.000217224
0.00215265
0.000956993
0.000386023
0.127049
0.0637613
0.0441959
0.000187059
0.0009323
0.000408908
0.00100989
0.00125838
0.00125837
0.00024437
0.000582392
0.000374168
0.000807948
0.000735803
0.000798038
0.000830286
0.000590771
0.000349619
0.000322668
0.000587295
0.00100971
1.30661e-05
0.00052455
0.000737284
0.000689738
0.000594218
0.000809643
1.26439
1.27628
1.30178
1.28024
1.3225
1.305
1.32878
1.32326
1.37988
1.36657
1.33124
1.38657
1.35277
1.40614
1.23552
1.18723
1.20688
1.25591
1.23696
1.20669
1.20746
1.26207
1.26768
1.24312
1.22311
1.27441
1.2571
1.26541
1.28966
1.14291
1.14395
1.14671
1.14306
1.16401
1.18739
0.742219
0.681144
0.577563
0.480133
0.393391
0.477273
0.672194
0.654741
0.897228
0.91935
0.80484
0.887902
0.9286
0.977011
1.02485
1.06681
1.0638
1.0638
1.06051
1.09064
1.10308
1.1281
1.11844
1.1174
1.12086
1.12816
1.11241
1.10818
0.308227
0.232571
0.184294
0.176259
0.218271
0.394845
0.381176
0.0980889
0.155247
0.039098
0.000497549
1.25521
1.27502
1.28973
1.29481
1.30042
1.31144
1.31408
1.34105
1.32624
1.34284
1.34354
1.3925
1.41546
1.44172
1.43952
1.44475
1.46157
1.48628
0.000818997
0.000673492
0.00145764
0.148953
0.0435409
0.215024
0.105264
0.0306266
0.0013224
6.6096e-07
0.00132244
0.00132239
0.000150505
0.000194211
0.000879062
0.000634227
1.56935e-49
6.10001e-120
0.000965244
0.000754184
0.000395231
0.020031
0.0221813
0.0219275
0.0768913
0.0393565
0.157167
0.105265
0.190837
0.155612
0.195552
0.222684
0.245554
0.267152
0.283757
0.286175
0.301012
0.284324
0.345961
0.33513
0.331639
0.329177
0.380318
0.353564
0.426519
0.387839
0.369019
0.402464
0.451146
0.444262
0.465941
0.502123
0.500879
0.444955
0.554895
0.590345
0.560519
0.539872
0.633122
0.707265
0.788681
0.850339
0.798342
0.819354
0.948811
1.00625
1.0482
1.03229
1.09144
1.12665
1.16415
1.17836
1.17398
1.19116
1.24879
1.23497
1.24222
1.25513
1.24509
1.24034
1.24323
1.2443
1.24416
1.24625
1.24598
0.00100662
4.80899e-06
0.00265753
0.000773247
0.000308718
6.75e-05
0.000375373
0.0327708
0.000942481
0.000905386
0.000614078
0.000992538
8.04524e-05
0.000345185
0.00145759
0.000969629
0.000894993
0.000216695
4.28478e-05
0.0012038
0.000317195
0.00038011
0.000795832
0.000714013
0.000735431
0.000980699
0.00100999
0.000920199
0.00112128
0.00112126
0.00145729
0.000757991
0.001012
0.000986991
0.000776109
0.00096702
0.000896738
0.000998449
0.00026155
0.000888291
0.00100984
0.000894905
0.00112119
0.0002511
0.000398457
0.000668916
0.00101
0.000330569
0.000740386
1.39261e-15
2.58465e-10
0.00241467
0.000379096
0.000850418
0.000694792
0.000545923
0.000997667
0.0003892
0.00100993
0.000972649
0.000977525
0.000963111
0.000999516
0.000735572
0.00102812
0.000926362
0.00070754
0.000995397
0.000749036
0.00102718
0.00089779
0.000955844
0.000631827
0.000258775
0.000744351
0.000964465
0.000941166
0.000838222
0.00101
0.000334973
0.000769708
0.000685233
0.000978177
0.000925692
0.000935309
0.000893315
0.00091709
0.000695524
0.000567275
0.00206755
0.000186218
0.000674617
0.000835469
0.000936998
0.0020675
1.42824
1.40251
1.38015
1.47851
1.5152
1.50678
0.716714
0.716772
0.704488
0.699703
0.627503
0.687809
0.521227
0.444191
0.372047
0.385922
0.355599
0.354944
0.356089
0.352789
0.233812
0.150184
0.240936
0.319472
0.320504
0.00093523
0.000794963
0.000875173
0.000890082
0.000922295
0.0009764
0.000965395
0.000493094
0.000931051
0.000554111
0.00100943
0.000959595
0.000969088
0.000968182
0.000161569
0.000602014
0.00100998
0.000498781
0.000128694
0.000927014
4.59314e-06
0.000276344
0.000921556
0.000785239
0.00052174
0.000783296
0.000978157
0.120197
0.263471
0.373221
0.37532
0.695503
0.614041
0.629064
0.412043
0.500717
0.590853
0.644768
0.646154
0.642506
0.661875
0.693069
0.684793
0.000706908
0.00115534
0.000625023
0.000982796
0.000704864
0.000720222
0.00100904
0.000845157
0.000719345
0.000865554
0.000823186
0.000932446
0.000763197
0.000831138
0.000896425
0.000575866
0.000627663
0.00100504
0.000978863
0.000935387
0.000938185
0.000682923
0.000770427
0.000937995
0.000997599
0.000978674
0.000347723
0.000953032
0.000978459
0.000973622
0.00101
0.000984843
0.000871643
0.000978065
0.000827832
0.000859182
0.000811322
0.0789277
0.114686
0.103481
0.0458581
0.0456008
0.0170349
0.0388114
0.00018149
0.000782548
0.000335528
0.000919076
0.0515621
0.0403924
0.000406768
0.000986977
0.000612942
0.000962556
0.000490688
0.000432878
0.000753925
0.000136085
7.42918e-05
0.00065721
0.000224512
0.000627585
5.79952e-05
0.000680105
0.000702988
0.000411511
0.000653842
0.000551523
0.000693939
9.93495e-05
0.000358069
0.000994303
5.91991e-05
0.000979051
1.26405
1.28101
1.30172
1.3285
1.33602
1.33451
1.36371
1.33662
1.19974
1.19936
1.18412
1.20183
1.23369
1.19811
1.24654
1.21519
1.12911
1.11858
1.11671
1.15146
1.18291
1.15388
0.748649
0.664577
0.561586
0.648001
0.502301
0.409579
0.664346
0.659937
0.901935
0.906253
0.92113
0.816411
0.898015
1.00869
0.955645
0.896504
0.938785
1.04128
1.05381
1.04317
1.04949
1.05771
1.08064
1.10832
1.0993
1.10733
1.10858
1.10351
1.10665
1.11187
1.10584
0.149659
0.158659
0.28442
0.378846
0.157186
0.225794
0.391614
0.407244
0.13244
0.089564
0.000183406
0.0700235
1.28619
1.24536
1.26349
1.30737
1.30539
1.30644
1.31538
1.33756
1.35769
1.36969
1.36964
1.37326
1.39834
1.44046
1.42285
1.44451
1.46068
1.50333
1.48036
1.31308
1.32307
1.3375
1.5085
1.50442
1.50888
0.00145747
0.00145743
0.0014575
0.000545726
0.000623944
0.000941805
5.87169e-08
0.000928091
0.000380607
0.000659527
0.000757232
0.000881632
0.000578176
0.00101
0.000702905
0.00100987
0.000969713
4.00182e-06
0.000753117
2.23544e-09
0.00186906
0.000114007
0.0233611
0.000969309
0.0943354
0.120551
0.062645
0.0952437
0.159939
0.125761
0.254828
0.196367
0.258115
0.277809
0.291936
0.27272
0.323649
0.362815
0.399939
0.40334
0.400869
0.392894
0.421363
0.400354
0.449766
0.451089
0.471707
0.476253
0.454096
0.455999
0.578864
0.622961
0.521397
0.583922
0.633826
0.59495
0.696224
0.740449
0.841551
0.87847
0.854558
0.948422
1.0037
1.1005
1.08932
1.14593
1.11691
1.21126
1.21782
1.20898
1.24126
1.27226
1.26569
1.32822
1.28666
1.31837
1.27804
1.27844
1.31657
1.24801
1.28477
1.24838
0.000278737
2.178e-06
0.000809039
0.000599838
0.000769361
0.000964183
0.00057408
5.06128e-07
0.00101
0.000199154
0.000123107
0.000512431
0.000272472
0.000632165
0.000568423
0.000336431
0.000353255
0.000135788
0.000508679
2.90659e-05
0.000124015
4.98173e-05
5.50518e-07
0.000217569
0.000787816
0.00103072
0.000967933
8.6305e-05
0.00112125
0.00112126
0.000976887
0.000995782
0.000992745
3.82214e-05
0.00101
0.000912008
0.0010004
0.000112849
0.00044385
0.000919656
5.62934e-11
0.000297927
0.00218235
2.26804e-10
0.000984734
5.86836e-05
0.0009581
0.000364482
0.00101
0.000172236
0.000987114
0.00219978
0.000979926
0.000134455
0.00096781
0.00100982
0.00128599
0.000388392
0.00100983
0.000979813
0.000465046
0.000983408
0.00101
0.000808151
0.00102781
0.00102776
0.000896998
0.000922258
0.00102728
0.00102753
0.000955402
0.000902699
0.000711032
0.000919589
0.00157131
7.81241e-05
0.00157117
0.000800476
0.00098702
0.000966821
0.00099923
0.00100984
0.00101
0.00100994
0.000799141
0.000805878
0.000827454
1.20946e-05
9.12481e-06
0
0.00090453
0.000799517
0.000430028
0.000850873
0.00128593
0.000898711
0.00100958
0.00100997
0.00082413
0.000998553
0.000946811
0.000914726
0.00101
1.38488
1.41128
1.42069
1.41334
1.44869
1.54641
1.52178
1.52836
1.55271
1.48807
0.622949
0.613206
0.546744
0.547176
0.508521
0.536216
0.44839
0.402965
0.388503
0.355301
0.329444
0.33122
0.237998
0.252308
0.117164
0.160968
0.163965
0.000529692
0.000965684
0.000913493
0.00101
0.000949844
0.000924031
0.000585991
0.00102937
0.0938175
1.32116e-07
0.000919443
0.000220381
0.000959565
0.000979614
1.45162e-06
0.000368616
0.00101
0.000973661
0.000794568
0.00102166
0.000849804
0.000994862
0.000944045
0.000847483
0.00025022
0.491111
0.488726
0.537077
0.236741
0.375457
0.37509
0.41085
0.534043
0.603651
0.566369
0.474584
0.55504
0.585159
0.58809
0.507801
0.537294
0.000957717
0.000982337
0.00115538
0.00101
0.000655495
0.000823908
0.00101
0.00117606
0.000956864
0.00099427
0.000160682
0.000986054
0.000875008
0.000936631
0.000510229
0.00102525
0.000970353
0.00102538
0.00102528
0.00101
0.000771965
0.000895476
0.000833864
0.000976221
0.00092185
0.00100577
0
0
0
0.000750842
0.0010766
0.000966189
0.00100563
0.000944429
0.000473953
0.000911195
0.000978965
0.000968087
0.00097325
0.000338297
0.000895901
0.000914242
0.000926795
0.000933549
0.00102531
0.102027
0.112109
0.117239
0.000570709
0.00774483
0.000317502
0.000852511
0.000900954
0.0007503
0.00147958
0.00067035
0.000825166
0.00147966
0.000463894
0.000489869
0.000406739
0.000485044
0.000242686
0.000584634
0.000440714
0.00103168
0.000270985
0.000575667
0.000666396
0.000877991
0.000917844
3.17533e-07
0.000151419
0.00118928
0.000491222
0.00103164
0.000312228
0.000747328
0.000804334
0.000346646
0.00101
0.000942721
0.000564401
0.00118926
1.27143
1.22283
1.29476
1.26348
1.27407
1.31105
1.32528
1.36496
1.35148
1.37857
1.35767
1.31325
1.38043
1.34531
1.16686
1.16698
1.15989
1.16934
1.1853
1.19251
1.19059
1.19714
1.10438
1.10735
1.13284
1.11434
1.14611
1.15594
0.743962
0.670804
0.588039
0.663092
0.459004
0.550839
0.66444
0.663799
0.893655
0.895048
0.897008
0.826723
0.983194
1.02954
0.939209
0.892689
1.03529
1.03485
1.0521
1.03476
1.0703
1.09759
1.10625
1.10334
1.10569
1.10466
1.10851
1.10501
1.10854
1.10187
0.154718
0.141222
0.308929
0.392775
0.287375
0.21175
0.444578
0.388822
0.115016
0.137191
0.114579
0.035511
1.28527
1.32163
1.30517
1.32836
1.34566
1.335
1.36996
1.38005
1.35923
1.37025
1.35959
1.36932
1.37437
1.40172
1.42449
1.4435
1.44309
1.49052
1.46977
1.51938
1.52418
1.39389
1.40721
1.5157
1.52952
0.000415286
8.89543e-05
0.000696944
0.000551543
0.000525579
9.3846e-05
0.000260243
0.000186919
0.00101
1.00585e-05
0.000927799
0.000258474
0.000705117
0.000657476
5.07035e-06
0.000780461
0.00186901
0.000430079
0.000872027
0.000687083
0.000478408
1.74953e-16
0.0175459
3.98834e-255
0.115165
0.109543
0.0770794
0.0310947
0.153233
0.193055
0.247166
0.236986
0.264267
0.252509
0.366802
0.31756
0.420228
0.409752
0.437475
0.44215
0.412635
0.473168
0.518868
0.49173
0.475469
0.502813
0.552447
0.5403
0.517857
0.563329
0.646144
0.649091
0.637279
0.661239
0.794054
0.703255
0.873891
0.902631
0.902182
0.970933
1.04501
1.12366
1.12735
1.14091
1.18642
1.23354
1.27102
1.26791
1.30622
1.28598
1.33954
1.34863
1.35465
1.34981
1.35519
1.35112
1.3222
1.35355
1.32242
0.000853005
0.000138151
0.00720826
0.00102505
0.000696846
7.73581e-05
0.000686777
0.000538285
0.000926732
0.000700239
0.00101
0.00132784
0.00132818
0.00133025
0.00132937
0.00133332
0.00133647
0.000997869
0.00133632
0.00678906
0.000999291
0.000638589
0.000184916
0.00103088
0.000442089
0.00103073
0.00103073
0.000429986
9.06967e-05
0.00100217
0.000993637
0.000687571
0.000856518
0.000794887
0.00101
0.00103632
0.000781757
0.000959982
0.00100986
0.000887496
0.000962023
0.000985431
0.0018615
0.00098525
0.000146754
1.36216e-05
0.000607696
0.00096357
0.000988249
0.000479144
0.000826696
0.000961729
0.00100941
0.00031059
2.8937e-05
0.000987756
0.00100992
0.000817418
0.000560979
0.000712872
0.00101
0.000799183
0.000968573
0.000279366
0.000905419
0.000941315
0.000939596
0.0010008
0.000939674
0.000880492
0.000886752
0.00100949
0.00097168
0.000773375
0.000984106
0.000952799
0.000565025
0.00098992
0.000934564
0.000964099
0.000974876
0.000974485
0.00101
0.00099424
0.000905098
0.000464111
0
0
0
0
0
0
0
0
0
0
0
0
0
0
0
0
0
0
0
0.00099334
0.000891312
0.000937661
0.000812305
0.000916999
0.000434354
0.000930589
0.00106399
0.000325168
0.000811332
0.000509983
0.000885277
1.56635
1.5728
1.58357
1.57639
1.58414
1.57722
1.42216
1.422
1.48761
1.45366
1.56107
1.57708
1.55098
1.44798
1.37276
0.489712
0.488125
0.486359
0.474607
0.489486
0.418789
0.465851
0.252222
0.30627
0.170537
0.170998
0.118832
0.116479
0.12067
4.53839e-05
0.000780571
0.000495047
0.000982711
0.00106345
0.120954
0.000393308
0.000948865
0.000967043
0.000958066
0.000758798
0.000977274
0.000802826
0.000970402
0.000977458
0.000717645
0.000335301
0.00102339
0.00102351
0.00031927
0.00102343
0.000932938
0.0004632
0.000564851
0.495147
0.490022
0.489798
0.490598
0.491764
0.201425
0.317582
0.26408
0.380425
0.441279
0.465886
0.397887
0.481731
0.433583
0.431111
0.41755
0.000954778
0.00110411
0.000841171
0.000970576
0.000973219
0.000935143
0.000743912
0.00101462
0.000148053
0.000898346
0.00101258
0.000658196
6.92933e-05
0.000748217
0.0010203
0.000508825
0.000763669
0.00083873
0.000969208
0.000945531
0.00094707
0.00099338
0.000740767
0.000908685
0.000621516
0.00100955
0.000627569
0.000973579
0.000348921
2.15212e-05
0
0
0
0
0
0.00086572
0.00107658
0.000978274
0.00107634
0.000988902
0.000872265
0.00078846
0.000950347
0.00098805
0.00100037
0.00093197
0.000953825
0.000956596
0.000997349
0.000778615
0.00101
0
0
0
0
0
0
0.0940099
0.0264471
0.0136585
0.000715323
0.000888424
0.000680509
0.00078824
0.000960083
0.000791447
0.000311719
0.00100956
0.000846456
0.000375808
0.000550644
0.00033854
0.000760208
0.000752664
0.000795758
0.000905726
0.000971356
0.000990171
6.51335e-05
0.000925876
1.18626e-05
0.000486704
0.000796409
0.000634249
0.000404769
0.000958393
0.00027789
0.000606851
1.31742e-05
0.000467482
0.00182491
0.00183038
0.000643943
0.000959699
0.000281529
0.000798649
0.00100972
0.000818552
1.25367
1.21491
1.25181
1.24911
1.23676
1.27089
1.24292
1.28616
1.30993
1.33681
1.39826
1.35348
1.30178
1.15775
1.15669
1.18185
1.17258
1.19233
1.19497
1.21346
1.19874
1.1053
1.11311
1.13848
1.12015
1.13461
1.14635
0.781244
0.708618
0.628694
0.668333
0.616145
0.519391
0.698306
0.664074
0.900475
0.898811
0.859902
0.905033
0.987904
1.03676
0.902407
0.946895
1.03623
1.03785
1.06307
1.03769
1.07994
1.1046
1.09381
1.10306
1.1019
1.09898
1.10438
1.10517
1.10183
1.10197
0.13955
0.207883
0.388803
0.361141
0.287411
0.363893
0.393021
0.461523
0.13801
0.127379
0.126848
0.0423719
5.3971e-05
3.0458e-05
0.00925596
1.35416
1.35621
1.38442
1.37453
1.39927
1.41169
1.40818
1.40846
1.44547
1.42737
1.43796
1.4021
1.43909
1.44754
1.47055
1.49191
1.50349
1.50206
1.54903
1.55188
1.57989
1.55193
1.46754
1.473
1.58861
1.58138
0.00016622
0.000334169
0.00101
7.3358e-06
0.000729054
0.00124366
0.00124347
0.000982914
0.000305007
0.000124339
0.000109121
0.00205671
0.00105323
0.00075561
0.000822227
0.000857219
0.00100232
0.000626775
0.000320397
0.000824137
8.63116e-05
0.000995528
0.000301624
0.000756384
0.000833476
0.0563228
0.140764
0.011422
0.228342
0.165366
0.248185
0.245496
0.329407
0.274623
0.40707
0.429929
0.430242
0.428156
0.554974
0.519089
0.484085
0.544393
0.566358
0.561714
0.556719
0.543949
0.560895
0.562555
0.637321
0.684548
0.724456
0.675266
0.722559
0.745
0.887916
0.819118
0.913638
0.902237
0.983433
1.0598
1.14427
1.13993
1.17459
1.21065
1.28486
1.27744
1.29652
1.30668
1.33677
1.34058
1.3664
1.35316
1.37127
1.36311
1.35369
1.36845
1.35269
1.35631
0.000985108
0.000863994
0.00101
0.00067133
0.000948592
0.000657298
0.000566723
0.000789161
0.000642839
0.00132856
0.000398531
0.00093244
0.000295436
0.00132933
0.00132942
0.00133061
0.00133153
0.00133658
0.00133203
0.000449502
0.000371652
0.00100968
0.000655711
0.000938422
0.000788581
0.00100179
0.00068851
0.000997704
0.000180038
0.000954666
0.000624923
0.00101
0.000209386
0.000613088
0.00100863
0.00103631
0.000666173
0.000881619
0.000976808
0.00372831
2.94464e-05
0.000210438