/*--------------------------------*- C++ -*----------------------------------*\
  =========                 |
  \\      /  F ield         | OpenFOAM: The Open Source CFD Toolbox
   \\    /   O peration     | Website:  https://openfoam.org
    \\  /    A nd           | Version:  8
     \\/     M anipulation  |
\*---------------------------------------------------------------------------*/
FoamFile
{
    version     2.0;
    format      ascii;
    class       volScalarField;
    location    "13140";
    object      Hclip;
}
// * * * * * * * * * * * * * * * * * * * * * * * * * * * * * * * * * * * * * //

dimensions      [0 1 0 0 0 0 0];

internalField   nonuniform List<scalar> 
526318
(
0.72083
0.68324
0.756096
0.665117
0.738115
0.69397
0.708453
0.623894
0.691
0.560208
0.548138
0.667371
0.613713
0.651944
0.613075
0.639113
0.613311
0.810381
0.717254
0.765731
0.759532
0.714543
0.475378
0.712835
0.602091
0.469784
0.740694
0.732663
0.742244
0.747675
0.778412
0.826683
0.808042
0.692759
0.68534
0.657284
0.661681
0.754883
0.683681
0.628037
0.694726
0.663843
0.327319
0.375736
0.287478
0.341578
0.310268
0.426606
0.613351
0.509013
0.60091
0.596481
0.553096
0.511574
0.00876397
0.255662
0.250742
0.0448126
0.765564
0.78027
0.799834
0.752031
0.695503
0.824907
0.821659
0.778237
0.767407
0.765911
0.670444
0.662248
0.775412
0.553161
0.607442
0.505509
0.454792
0.448579
0.543957
0.544571
0.459077
0.494573
0.576158
0.577448
0.532514
0.487217
0.51592
0.58353
0.583018
0.560964
0.509127
0.583377
0.486284
0.436826
0.432421
0.361833
0.359934
0.362759
0.360303
0.359307
0.355745
0.354986
0.001
0.001
0.001
0.001
0.001
0.001
0.270024
0.0777749
0.394682
0.346909
0.392922
0.514963
0.734787
0.631939
0.741445
0.753951
0.813084
0.787938
0.834437
0.353296
0.352556
0.355886
0.35875
0.312737
0.3527
0.264002
0.306241
0.216185
0.266229
0.216739
0.21464
0.205526
0.181058
0.171676
0.201527
0.141337
0.196243
0.145987
0.165939
0.113044
0.117956
0.135237
0.165177
0.150278
0.108336
0.109411
0.122018
0.110148
0.106154
0.116222
0.127228
0.115742
0.115097
0.121056
0.117756
0.0866589
0.120426
0.117875
0.085517
0.0428211
0.115805
0.0707534
0.130365
0.620097
0.713782
0.6595
0.641707
0.448248
0.515471
0.45005
0.446485
0.449953
0.447039
0.469813
0.447284
0.382912
0.354045
0.32145
0.259535
0.318847
0.362841
0.361614
0.362632
0.248941
0.300191
0.186823
0.196495
0.205841
0.197041
0.198482
0.200564
0.189889
0.19132
0.190851
0.179633
0.163462
0.186485
0.175664
0.150159
0.130493
0.155327
0.137235
0.133675
0.145045
0.136767
0.141472
0.104839
0.122746
0.155086
0.152797
0.603218
0.616075
0.648922
0.619991
0.61194
0.598952
0.606623
0.483203
0.520103
0.267949
0.245805
0.244926
0.371143
0.50567
0.378189
0.417688
0.419966
0.363403
0.346537
0.001
0.001
0.001
0.190692
0.001
0.001
0.001
0.001
0.001
0.001
0.816532
0.800885
0.844369
0.843686
0.807151
0.800138
0.708726
0.793175
0.636644
0.586003
0.583327
0.582702
0.583755
0.583046
0.569733
0.570981
0.487595
0.550978
0.368423
0.424221
0.355377
0.366065
0.00100536
0.001
0.001
0.00100202
0.001
0.001
0.001
0.001
0.364644
0.180365
0.413095
0.412972
0.526664
0.626897
0.751852
0.750912
0.787198
0.76633
0.829505
0.864426
0.333006
0.332517
0.291951
0.265771
0.161753
0.197581
0.125243
0.137046
0.124907
0.118098
0.109576
0.116911
0.0420708
0.0624719
0.0965739
0.136886
0.195022
0.161168
0.124658
0.121174
0.0513733
0.0449781
0.0925958
0.149668
0.0713648
0.111384
0.110094
0.0777922
0.0744214
0.0416835
0.0376051
0.00103734
0.001
0.00468948
0.001
0.11557
0.153426
0.12626
0.159826
0.515475
0.476057
0.377756
0.464772
0.385879
0.437003
0.447803
0.438089
0.447424
0.447023
0.359304
0.272584
0.20475
0.184837
0.2626
0.200295
0.186413
0.300744
0.189925
0.238031
0.179085
0.178555
0.187402
0.178134
0.191553
0.188852
0.186207
0.190361
0.190179
0.188374
0.19422
0.192617
0.201776
0.199588
0.20386
0.181129
0.196661
0.178399
0.154249
0.154413
0.179399
0.209623
0.203051
0.183946
0.161292
0.184452
0.229601
0.226499
0.233806
0.200344
0.235315
0.248418
0.284014
0.239698
0.246753
0.274016
0.304623
0.424936
0.505027
0.420256
0.456646
0.532657
0.598551
0.501944
0.370989
0.480818
0.38087
0.400782
0.14123
0.0873468
0.114092
0.101353
0.217841
0.333937
0.271419
0.335065
0.343092
0.360297
0.337687
0.001
0.001
0.001
0.001
0.001
0.001
0.001
0.00100998
0.001
0.00100962
0.001
0.00100889
0.001
0.001
0.001
0.001
0.841444
0.834785
0.866962
0.8613
0.835451
0.807458
0.732399
0.648518
0.581096
0.595138
0.573312
0.570368
0.551187
0.55323
0.52999
0.531902
0.481742
0.52306
0.445393
0.392951
0.333244
0.294399
0.001
0.00107387
0.00107386
0.001
0.001
0.001
0.001
0.00107386
0.00107389
0.00107388
0.00100999
0.00100984
0.001
0.00100942
0.001
0.001
0.001
0.001
0.001
0.001
0.001
0.001
0.001
0.001
0.0709086
0.001
0.272212
0.437569
0.454047
0.543837
0.759838
0.659433
0.777879
0.774221
0.787194
0.820141
0.847581
0.871153
0.2529
0.250829
0.206158
0.230935
0.17015
0.134053
0.127883
0.127394
0.121032
0.126048
0.0742952
0.0685179
0.0182476
0.0321972
0.0861346
0.0612729
0.0334049
0.0798487
0.0795261
0.0875899
0.001
0.001
0.0145368
0.0257516
0.0280879
0.001
0.001
0.001
0.001
0.001
0.001
0.270347
0.250668
0.252896
0.245582
0.270197
0.37399
0.335928
0.313425
0.198803
0.237082
0.22235
0.226592
0.130232
0.0597302
0.244301
0.361641
0.243203
0.250293
0.229206
0.31306
0.29239
0.364897
0.396863
0.32043
0.301631
0.33534
0.214206
0.183994
0.180363
0.188268
0.101843
0.151943
0.0798286
0.001
0.0129398
0.131023
0.130574
0.177575
0.179132
0.177891
0.180299
0.180068
0.184941
0.180933
0.192396
0.187239
0.203306
0.195693
0.20226
0.204857
0.227245
0.213345
0.238894
0.241561
0.188959
0.175025
0.238502
0.223877
0.209653
0.225872
0.209903
0.194163
0.247487
0.225196
0.338369
0.344373
0.298793
0.339
0.343956
0.307287
0.399091
0.370092
0.442217
0.462172
0.478836
0.396189
0.399987
0.402798
0.362981
0.342348
0.310039
0.403815
0.253751
0.228283
0.277724
0.300716
0.001
0.0334817
0.108829
0.22898
0.268007
0.296438
0.205789
0.174545
0.131209
0.0790079
0.001
0.001
0.001
0.001
0.001
0.001
0.001
0.001
0.00100979
0.001
0.001
0.001
0.001
0.001
0.001
0.001
0.001
0.001
0.001
0.001
0.001
0.00101
0.001
0.001
0.001
0.001
0.00118089
0.001
0.00107455
0.001
0.0011807
0.00118063
0.001
0.001
0.001
0.001
0.001
0.001
0.001
0.001
0.00100959
0.001
0.00100965
0.001
0.001
0.001
0.83695
0.8474
0.867984
0.85851
0.835967
0.762272
0.583996
0.668834
0.550996
0.554806
0.532088
0.530888
0.523955
0.523355
0.519314
0.518142
0.461473
0.434514
0.335841
0.375345
0.229158
0.272271
0.001
0.001
0.001
0.001
0.001
0.001
0.001
0.001
0.00101
0.001
0.001
0.001
0.001
0.001
0.001
0.001
0.001
0.00100737
0.001
0.001
0.001
0.001
0.001
0.001
0.001
0.001
0.00101
0.001
0.001
0.001
0.001
0.001
0.001
0.001
0.258478
0.0825259
0.45841
0.422402
0.492508
0.588261
0.698784
0.772398
0.789122
0.774787
0.813791
0.851122
0.83607
0.829841
0.00116182
0.001
0.001
0.001
0.001
0.001
0.001
0.001
0.001
0.001
0.001
0.001
0.001
0.001
0.001
0.00101
0.001
0.232078
0.230734
0.229244
0.198199
0.117471
0.15468
0.0781004
0.0727277
0.0360449
0.029068
0.001
0.001
0.0122196
0.00815361
0.001
0.00497231
0.00100135
0.0516024
0.0324866
0.0326471
0.001
0.001
0.001
0.001
0.001
0.001
0.001
0.001
0.001
0.001
0.001
0.001
0.46486
0.43412
0.475647
0.493065
0.44095
0.394799
0.562466
0.584966
0.649196
0.662178
0.200888
0.246777
0.299994
0.380534
0.199341
0.155042
0.186703
0.186553
0.0234618
0.0732181
0.125099
0.0154102
0.229224
0.227281
0.228631
0.22889
0.251958
0.226145
0.239726
0.257722
0.137499
0.128623
0.0296183
0.117665
0.114402
0.0645758
0.0255956
0.03083
0.001
0.001
0.001
0.0633926
0.127197
0.0592445
0.128912
0.18204
0.178723
0.179543
0.179699
0.182387
0.201427
0.197238
0.21198
0.209794
0.229879
0.222844
0.244206
0.242124
0.247112
0.244456
0.255252
0.248777
0.292244
0.265277
0.224012
0.231776
0.297822
0.268529
0.26928
0.313368
0.351501
0.345219
0.345746
0.351278
0.388326
0.435034
0.4963
0.519802
0.521452
0.506039
0.649547
0.584419
0.713585
0.751327
0.742598
0.781469
0.837319
0.703552
0.786635
0.809249
0.886974
0.936645
0.958127
0.984173
1.01449
0.954877
1.01192
0.969933
1.0503
1.05031
1.101
1.06877
1.12701
1.1597
1.14624
1.09694
1.15865
1.18305
1.15056
1.14584
1.21154
1.19114
1.2208
1.16182
1.15888
1.22656
1.19212
1.14607
1.1437
1.17743
1.21063
0.202712
0.16948
0.338398
0.333193
0.30124
0.299364
0.299209
0.0676747
0.19226
0.001
0.001
0.0289694
0.016306
0.001
0.001
0.001
0.131862
0.034406
0.0351246
0.001
0.001
0.001
0.001
0.001
0.00101
0.001
0.001
0.001
0.001
0.00101
0.001
0.001
0.001
0.001
0.00166347
0.001
0.001
0.001
0.001
0.001
0.001
0.001
0.001
0.00133451
0.001
0.001
0.001
0.001
0.001
0.001
0.001
0.001
0.001
0.00100829
0.001
0.001
0.001
0.00100928
0.00100997
0.001
0.001
0.001
0.001
0.001
0.001
0.00101
0.001
0.001
0.00102637
0.00105797
0.001
0.00102627
0.001
0.00101
0.00101
0.001
0.001
0.001
0.001
0.001
0.001
0.001
0.001
0.0010078
0.001
0.001
0.001
0.001
0.001
0.001
0.001
0.001
0.00101
0.001
0.001
0.826098
0.813422
0.786373
0.785633
0.702847
0.77602
0.599673
0.532932
0.524189
0.523965
0.524309
0.524153
0.461852
0.467924
0.314996
0.273784
0.229434
0.405146
0.406377
0.356001
0.355331
0.35395
0.001
0.001
0.00108477
0.00108424
0.001
0.001
0.001
0.001
0.00108352
0.001
0.001
0.00100893
0.001
0.001
0.001
0.001
0.001
0.001
0.001
0.001
0.001
0.001
0.00137925
0.00137938
0.001
0.001
0.001
0.001
0.082743
0.001
0.24994
0.418434
0.45271
0.472258
0.562962
0.67028
0.737289
0.716631
0.762961
0.693344
0.742293
0.789665
0.741033
0.740229
0.00107093
0.001
0.00100999
0.001
0.001
0.00119419
0.001
0.001
0.00119419
0.001
0.001
0.001
0.001
0.001
0.001
0.001
0.001
0.001
0.00101
0.001
0.001
0.001
0.001
0.001
0.00205026
0.00101095
0.206657
0.205187
0.126449
0.145235
0.0199656
0.0427014
0.001
0.001
0.001
0.00125263
0.001
0.001
0.001
0.001
0.001
0.001
0.0244053
0.001
0.0245636
0.0242745
0.001
0.001
0.001
0.001
0.001
0.001
0.001
0.001
0.001
0.001
0.00121387
0.001
0.69692
0.694406
0.517942
0.43282
0.426472
0.410566
0.688802
0.599843
0.851107
0.926265
0.820468
0.746287
0.940094
0.921421
0.988056
1.0373
1.06654
1.06723
1.09356
1.06516
1.11919
1.14749
1.14078
1.14252
1.15818
1.14288
1.14336
1.19273
1.13429
1.12999
0.254338
0.180266
0.334232
0.392712
0.188933
0.127645
0.184686
0.182401
0.0139568
0.0670651
0.001
0.0658949
0.001
0.227854
0.166129
0.231574
0.2239
0.223008
0.11934
0.0222598
0.001
0.001
0.001
0.001
0.001
0.001
0.001
0.001
0.001
0.001
0.001
0.00594677
0.0738913
0.0203447
0.128036
0.0723885
0.114397
0.172188
0.204554
0.184359
0.215386
0.214651
0.231545
0.219794
0.255912
0.263749
0.265506
0.27707
0.280238
0.28375
0.313508
0.323132
0.319815
0.315362
0.316586
0.306466
0.328973
0.34575
0.388578
0.391679
0.354427
0.382526
0.376119
0.405701
0.446441
0.505169
0.533959
0.539699
0.550517
0.613167
0.700691
0.770536
0.785462
0.908434
0.783035
0.839209
0.990279
1.01147
1.01218
1.05203
1.09544
1.14902
1.15393
1.15919
1.18769
1.21334
1.24294
1.24065
1.24276
1.24329
1.24402
1.22419
1.1602
1.22655
1.19301
1.14535
1.14769
1.17939
1.21377
1.22304
1.14785
1.20895
1.16923
0.001
0.001
0.0549041
0.133492
0.0246109
0.0886823
0.221638
0.161397
0.185048
0.0223021
0.001
0.001
0.001
0.00385302
0.001
0.001
0.001
0.001
0.001
0.00120975
0.00120343
0.001
0.001
0.001
0.00100999
0.001
0.001
0.001
0.001
0.00145843
0.00145942
0.001
0.001
0.001
0.00166332
0.001
0.001
0.001
0.001
0.001
0.00101
0.001
0.00133398
0.001
0.00101
0.001
0.001
0.001
0.001
0.001
0.001
0.00105206
0.001
0.001
0.001
0.001
0.001
0.001
0.001
0.001
0.001
0.001
0.001
0.001
0.001
0.001
0.00103662
0.001
0.001
0.001
0.001
0.001
0.001
0.001
0.00101
0.001
0.00100962
0.001
0.001
0.001
0.001
0.001
0.001
0.001
0.001
0.738602
0.733916
0.71727
0.724075
0.65247
0.717753
0.525841
0.587199
0.484875
0.484385
0.428905
0.410709
0.356064
0.352522
0.272141
0.165196
0.141224
0.31185
0.353732
0.352498
0.357287
0.355949
0.00108356
0.001
0.00108353
0.001
0.001
0.001
0.001
0.001
0.00100548
0.001
0.001
0.001
0.001
0.001
0.001
0.00100999
0.001
0.001
0.001
0.001
0.001
0.001
0.001
0.00101
0.001
0.001
0.001
0.001
0.147068
0.001
0.287033
0.418282
0.395401
0.50023
0.671673
0.573397
0.6514
0.650513
0.642732
0.67598
0.730851
0.725511
0.732095
0.701087
0.001
0.001
0.001
0.001
0.001
0.001
0.001
0.001
0.001
0.001
0.001
0.001
0.001
0.001
0.001
0.001
0.001
0.001
0.001
0.00100999
0.001
0.001
0.00192284
0.001
0.00101
0.001
0.001
0.001
0.001
0.001
0.001
0.0823143
0.0831805
0.0447272
0.0264154
0.001
0.00215265
0.001
0.001
0.127049
0.0637613
0.0441959
0.001
0.001
0.001
0.00100989
0.00125838
0.00125837
0.001
0.001
0.001
0.001
0.001
0.001
0.001
0.001
0.001
0.001
0.001
0.00100971
0.001
0.001
0.001
0.001
0.001
0.001
1.26439
1.27628
1.30178
1.28024
1.3225
1.305
1.32878
1.32326
1.37988
1.36657
1.33124
1.38657
1.35277
1.40614
1.23552
1.18723
1.20688
1.25591
1.23696
1.20669
1.20746
1.26207
1.26768
1.24312
1.22311
1.27441
1.2571
1.26541
1.28966
1.14291
1.14395
1.14671
1.14306
1.16401
1.18739
0.742219
0.681144
0.577563
0.480133
0.393391
0.477273
0.672194
0.654741
0.897228
0.91935
0.80484
0.887902
0.9286
0.977011
1.02485
1.06681
1.0638
1.0638
1.06051
1.09064
1.10308
1.1281
1.11844
1.1174
1.12086
1.12816
1.11241
1.10818
0.308227
0.232571
0.184294
0.176259
0.218271
0.394845
0.381176
0.0980889
0.155247
0.039098
0.001
1.25521
1.27502
1.28973
1.29481
1.30042
1.31144
1.31408
1.34105
1.32624
1.34284
1.34354
1.3925
1.41546
1.44172
1.43952
1.44475
1.46157
1.48628
0.001
0.001
0.00145764
0.148953
0.0435409
0.215024
0.105264
0.0306266
0.0013224
0.001
0.00132244
0.00132239
0.001
0.001
0.001
0.001
0.001
0.001
0.001
0.001
0.001
0.020031
0.0221813
0.0219275
0.0768913
0.0393565
0.157167
0.105265
0.190837
0.155612
0.195552
0.222684
0.245554
0.267152
0.283757
0.286175
0.301012
0.284324
0.345961
0.33513
0.331639
0.329177
0.380318
0.353564
0.426519
0.387839
0.369019
0.402464
0.451146
0.444262
0.465941
0.502123
0.500879
0.444955
0.554895
0.590345
0.560519
0.539872
0.633122
0.707265
0.788681
0.850339
0.798342
0.819354
0.948811
1.00625
1.0482
1.03229
1.09144
1.12665
1.16415
1.17836
1.17398
1.19116
1.24879
1.23497
1.24222
1.25513
1.24509
1.24034
1.24323
1.2443
1.24416
1.24625
1.24598
0.00100662
0.001
0.00265753
0.001
0.001
0.001
0.001
0.0327708
0.001
0.001
0.001
0.001
0.001
0.001
0.00145759
0.001
0.001
0.001
0.001
0.0012038
0.001
0.001
0.001
0.001
0.001
0.001
0.00100999
0.001
0.00112128
0.00112126
0.00145729
0.001
0.001012
0.001
0.001
0.001
0.001
0.001
0.001
0.001
0.00100984
0.001
0.00112119
0.001
0.001
0.001
0.00101
0.001
0.001
0.001
0.001
0.00241467
0.001
0.001
0.001
0.001
0.001
0.001
0.00100993
0.001
0.001
0.001
0.001
0.001
0.00102812
0.001
0.001
0.001
0.001
0.00102718
0.001
0.001
0.001
0.001
0.001
0.001
0.001
0.001
0.00101
0.001
0.001
0.001
0.001
0.001
0.001
0.001
0.001
0.001
0.001
0.00206755
0.001
0.001
0.001
0.001
0.0020675
1.42824
1.40251
1.38015
1.47851
1.5152
1.50678
0.716714
0.716772
0.704488
0.699703
0.627503
0.687809
0.521227
0.444191
0.372047
0.385922
0.355599
0.354944
0.356089
0.352789
0.233812
0.150184
0.240936
0.319472
0.320504
0.001
0.001
0.001
0.001
0.001
0.001
0.001
0.001
0.001
0.001
0.00100943
0.001
0.001
0.001
0.001
0.001
0.00100998
0.001
0.001
0.001
0.001
0.001
0.001
0.001
0.001
0.001
0.001
0.120197
0.263471
0.373221
0.37532
0.695503
0.614041
0.629064
0.412043
0.500717
0.590853
0.644768
0.646154
0.642506
0.661875
0.693069
0.684793
0.001
0.00115534
0.001
0.001
0.001
0.001
0.00100904
0.001
0.001
0.001
0.001
0.001
0.001
0.001
0.001
0.001
0.001
0.00100504
0.001
0.001
0.001
0.001
0.001
0.001
0.001
0.001
0.001
0.001
0.001
0.001
0.00101
0.001
0.001
0.001
0.001
0.001
0.001
0.0789277
0.114686
0.103481
0.0458581
0.0456008
0.0170349
0.0388114
0.001
0.001
0.001
0.001
0.0515621
0.0403924
0.001
0.001
0.001
0.001
0.001
0.001
0.001
0.001
0.001
0.001
0.001
0.001
0.001
0.001
0.001
0.001
0.001
0.001
0.001
0.001
0.001
0.001
0.001
0.001
1.26405
1.28101
1.30172
1.3285
1.33602
1.33451
1.36371
1.33662
1.19974
1.19936
1.18412
1.20183
1.23369
1.19811
1.24654
1.21519
1.12911
1.11858
1.11671
1.15146
1.18291
1.15388
0.748649
0.664577
0.561586
0.648001
0.502301
0.409579
0.664346
0.659937
0.901935
0.906253
0.92113
0.816411
0.898015
1.00869
0.955645
0.896504
0.938785
1.04128
1.05381
1.04317
1.04949
1.05771
1.08064
1.10832
1.0993
1.10733
1.10858
1.10351
1.10665
1.11187
1.10584
0.149659
0.158659
0.28442
0.378846
0.157186
0.225794
0.391614
0.407244
0.13244
0.089564
0.001
0.0700235
1.28619
1.24536
1.26349
1.30737
1.30539
1.30644
1.31538
1.33756
1.35769
1.36969
1.36964
1.37326
1.39834
1.44046
1.42285
1.44451
1.46068
1.50333
1.48036
1.31308
1.32307
1.3375
1.5085
1.50442
1.50888
0.00145747
0.00145743
0.0014575
0.001
0.001
0.001
0.001
0.001
0.001
0.001
0.001
0.001
0.001
0.00101
0.001
0.00100987
0.001
0.001
0.001
0.001
0.00186906
0.001
0.0233611
0.001
0.0943354
0.120551
0.062645
0.0952437
0.159939
0.125761
0.254828
0.196367
0.258115
0.277809
0.291936
0.27272
0.323649
0.362815
0.399939
0.40334
0.400869
0.392894
0.421363
0.400354
0.449766
0.451089
0.471707
0.476253
0.454096
0.455999
0.578864
0.622961
0.521397
0.583922
0.633826
0.59495
0.696224
0.740449
0.841551
0.87847
0.854558
0.948422
1.0037
1.1005
1.08932
1.14593
1.11691
1.21126
1.21782
1.20898
1.24126
1.27226
1.26569
1.32822
1.28666
1.31837
1.27804
1.27844
1.31657
1.24801
1.28477
1.24838
0.001
0.001
0.001
0.001
0.001
0.001
0.001
0.001
0.00101
0.001
0.001
0.001
0.001
0.001
0.001
0.001
0.001
0.001
0.001
0.001
0.001
0.001
0.001
0.001
0.001
0.00103072
0.001
0.001
0.00112125
0.00112126
0.001
0.001
0.001
0.001
0.00101
0.001
0.0010004
0.001
0.001
0.001
0.001
0.001
0.00218235
0.001
0.001
0.001
0.001
0.001
0.00101
0.001
0.001
0.00219978
0.001
0.001
0.001
0.00100982
0.00128599
0.001
0.00100983
0.001
0.001
0.001
0.00101
0.001
0.00102781
0.00102776
0.001
0.001
0.00102728
0.00102753
0.001
0.001
0.001
0.001
0.00157131
0.001
0.00157117
0.001
0.001
0.001
0.001
0.00100984
0.00101
0.00100994
0.001
0.001
0.001
0.001
0.001
0.001
0.001
0.001
0.001
0.001
0.00128593
0.001
0.00100958
0.00100997
0.001
0.001
0.001
0.001
0.00101
1.38488
1.41128
1.42069
1.41334
1.44869
1.54641
1.52178
1.52836
1.55271
1.48807
0.622949
0.613206
0.546744
0.547176
0.508521
0.536216
0.44839
0.402965
0.388503
0.355301
0.329444
0.33122
0.237998
0.252308
0.117164
0.160968
0.163965
0.001
0.001
0.001
0.00101
0.001
0.001
0.001
0.00102937
0.0938175
0.001
0.001
0.001
0.001
0.001
0.001
0.001
0.00101
0.001
0.001
0.00102166
0.001
0.001
0.001
0.001
0.001
0.491111
0.488726
0.537077
0.236741
0.375457
0.37509
0.41085
0.534043
0.603651
0.566369
0.474584
0.55504
0.585159
0.58809
0.507801
0.537294
0.001
0.001
0.00115538
0.00101
0.001
0.001
0.00101
0.00117606
0.001
0.001
0.001
0.001
0.001
0.001
0.001
0.00102525
0.001
0.00102538
0.00102528
0.00101
0.001
0.001
0.001
0.001
0.001
0.00100577
0.001
0.001
0.001
0.001
0.0010766
0.001
0.00100563
0.001
0.001
0.001
0.001
0.001
0.001
0.001
0.001
0.001
0.001
0.001
0.00102531
0.102027
0.112109
0.117239
0.001
0.00774483
0.001
0.001
0.001
0.001
0.00147958
0.001
0.001
0.00147966
0.001
0.001
0.001
0.001
0.001
0.001
0.001
0.00103168
0.001
0.001
0.001
0.001
0.001
0.001
0.001
0.00118928
0.001
0.00103164
0.001
0.001
0.001
0.001
0.00101
0.001
0.001
0.00118926
1.27143
1.22283
1.29476
1.26348
1.27407
1.31105
1.32528
1.36496
1.35148
1.37857
1.35767
1.31325
1.38043
1.34531
1.16686
1.16698
1.15989
1.16934
1.1853
1.19251
1.19059
1.19714
1.10438
1.10735
1.13284
1.11434
1.14611
1.15594
0.743962
0.670804
0.588039
0.663092
0.459004
0.550839
0.66444
0.663799
0.893655
0.895048
0.897008
0.826723
0.983194
1.02954
0.939209
0.892689
1.03529
1.03485
1.0521
1.03476
1.0703
1.09759
1.10625
1.10334
1.10569
1.10466
1.10851
1.10501
1.10854
1.10187
0.154718
0.141222
0.308929
0.392775
0.287375
0.21175
0.444578
0.388822
0.115016
0.137191
0.114579
0.035511
1.28527
1.32163
1.30517
1.32836
1.34566
1.335
1.36996
1.38005
1.35923
1.37025
1.35959
1.36932
1.37437
1.40172
1.42449
1.4435
1.44309
1.49052
1.46977
1.51938
1.52418
1.39389
1.40721
1.5157
1.52952
0.001
0.001
0.001
0.001
0.001
0.001
0.001
0.001
0.00101
0.001
0.001
0.001
0.001
0.001
0.001
0.001
0.00186901
0.001
0.001
0.001
0.001
0.001
0.0175459
0.001
0.115165
0.109543
0.0770794
0.0310947
0.153233
0.193055
0.247166
0.236986
0.264267
0.252509
0.366802
0.31756
0.420228
0.409752
0.437475
0.44215
0.412635
0.473168
0.518868
0.49173
0.475469
0.502813
0.552447
0.5403
0.517857
0.563329
0.646144
0.649091
0.637279
0.661239
0.794054
0.703255
0.873891
0.902631
0.902182
0.970933
1.04501
1.12366
1.12735
1.14091
1.18642
1.23354
1.27102
1.26791
1.30622
1.28598
1.33954
1.34863
1.35465
1.34981
1.35519
1.35112
1.3222
1.35355
1.32242
0.001
0.001
0.00720826
0.00102505
0.001
0.001
0.001
0.001
0.001
0.001
0.00101
0.00132784
0.00132818
0.00133025
0.00132937
0.00133332
0.00133647
0.001
0.00133632
0.00678906
0.001
0.001
0.001
0.00103088
0.001
0.00103073
0.00103073
0.001
0.001
0.00100217
0.001
0.001
0.001
0.001
0.00101
0.00103632
0.001
0.001
0.00100986
0.001
0.001
0.001
0.0018615
0.001
0.001
0.001
0.001
0.001
0.001
0.001
0.001
0.001
0.00100941
0.001
0.001
0.001
0.00100992
0.001
0.001
0.001
0.00101
0.001
0.001
0.001
0.001
0.001
0.001
0.0010008
0.001
0.001
0.001
0.00100949
0.001
0.001
0.001
0.001
0.001
0.001
0.001
0.001
0.001
0.001
0.00101
0.001
0.001
0.001
0.001
0.001
0.001
0.001
0.001
0.001
0.001
0.001
0.001
0.001
0.001
0.001
0.001
0.001
0.001
0.001
0.001
0.001
0.001
0.001
0.001
0.001
0.001
0.001
0.001
0.001
0.00106399
0.001
0.001
0.001
0.001
1.56635
1.5728
1.58357
1.57639
1.58414
1.57722
1.42216
1.422
1.48761
1.45366
1.56107
1.57708
1.55098
1.44798
1.37276
0.489712
0.488125
0.486359
0.474607
0.489486
0.418789
0.465851
0.252222
0.30627
0.170537
0.170998
0.118832
0.116479
0.12067
0.001
0.001
0.001
0.001
0.00106345
0.120954
0.001
0.001
0.001
0.001
0.001
0.001
0.001
0.001
0.001
0.001
0.001
0.00102339
0.00102351
0.001
0.00102343
0.001
0.001
0.001
0.495147
0.490022
0.489798
0.490598
0.491764
0.201425
0.317582
0.26408
0.380425
0.441279
0.465886
0.397887
0.481731
0.433583
0.431111
0.41755
0.001
0.00110411
0.001
0.001
0.001
0.001
0.001
0.00101462
0.001
0.001
0.00101258
0.001
0.001
0.001
0.0010203
0.001
0.001
0.001
0.001
0.001
0.001
0.001
0.001
0.001
0.001
0.00100955
0.001
0.001
0.001
0.001
0.001
0.001
0.001
0.001
0.001
0.001
0.00107658
0.001
0.00107634
0.001
0.001
0.001
0.001
0.001
0.00100037
0.001
0.001
0.001
0.001
0.001
0.00101
0.001
0.001
0.001
0.001
0.001
0.001
0.0940099
0.0264471
0.0136585
0.001
0.001
0.001
0.001
0.001
0.001
0.001
0.00100956
0.001
0.001
0.001
0.001
0.001
0.001
0.001
0.001
0.001
0.001
0.001
0.001
0.001
0.001
0.001
0.001
0.001
0.001
0.001
0.001
0.001
0.001
0.00182491
0.00183038
0.001
0.001
0.001
0.001
0.00100972
0.001
1.25367
1.21491
1.25181
1.24911
1.23676
1.27089
1.24292
1.28616
1.30993
1.33681
1.39826
1.35348
1.30178
1.15775
1.15669
1.18185
1.17258
1.19233
1.19497
1.21346
1.19874
1.1053
1.11311
1.13848
1.12015
1.13461
1.14635
0.781244
0.708618
0.628694
0.668333
0.616145
0.519391
0.698306
0.664074
0.900475
0.898811
0.859902
0.905033
0.987904
1.03676
0.902407
0.946895
1.03623
1.03785
1.06307
1.03769
1.07994
1.1046
1.09381
1.10306
1.1019
1.09898
1.10438
1.10517
1.10183
1.10197
0.13955
0.207883
0.388803
0.361141
0.287411
0.363893
0.393021
0.461523
0.13801
0.127379
0.126848
0.0423719
0.001
0.001
0.00925596
1.35416
1.35621
1.38442
1.37453
1.39927
1.41169
1.40818
1.40846
1.44547
1.42737
1.43796
1.4021
1.43909
1.44754
1.47055
1.49191
1.50349
1.50206
1.54903
1.55188
1.57989
1.55193
1.46754
1.473
1.58861
1.58138
0.001
0.001
0.00101
0.001
0.001
0.00124366
0.00124347
0.001
0.001
0.001
0.001
0.00205671
0.00105323
0.001
0.001
0.001
0.00100232
0.001
0.001
0.001
0.001
0.001
0.001
0.001
0.001
0.0563228
0.140764
0.011422
0.228342
0.165366
0.248185
0.245496
0.329407
0.274623
0.40707
0.429929
0.430242
0.428156
0.554974
0.519089
0.484085
0.544393
0.566358
0.561714
0.556719
0.543949
0.560895
0.562555
0.637321
0.684548
0.724456
0.675266
0.722559
0.745
0.887916
0.819118
0.913638
0.902237
0.983433
1.0598
1.14427
1.13993
1.17459
1.21065
1.28486
1.27744
1.29652
1.30668
1.33677
1.34058
1.3664
1.35316
1.37127
1.36311
1.35369
1.36845
1.35269
1.35631
0.001
0.001
0.00101
0.001
0.001
0.001
0.001
0.001
0.001
0.00132856
0.001
0.001
0.001
0.00132933
0.00132942
0.00133061
0.00133153
0.00133658
0.00133203
0.001
0.001
0.00100968
0.001
0.001
0.001
0.00100179
0.001
0.001
0.001
0.001
0.001
0.00101
0.001
0.001
0.00100863
0.00103631
0.001
0.001
0.001
0.00372831
0.001
0.001
0.001
0.00100967
0.001
0.001
0.001
0.00100983
0.001
0.001
0.00100647
0.001
0.00100976
0.001
0.001
0.001
0.001
0.001
0.00353774
0.001
0.001
0.001
0.001
0.001
0.00123914
0.00123904
0.00123906
0.001
0.001
0.001
0.001
0.001
0.001
0.001
0.001
0.001
0.001
0.001
0.001
0.001
0.001
0.001
0.001
0.001
0.001
0.001
0.001
0.001
0.001
0.001
0.001
0.001
0.001
0.001
0.001
0.001
0.001
0.001
0.001
0.001
0.001
0.001
0.001
0.001
0.001
0.001
0.00101
0.001
0.00138714
0.001
0.00112859
0.001
0.00112507
0.001
0.001
0.001
1.59455
1.62395
1.63115
1.58844
1.58706
1.5742
1.58868
1.49726
1.4954
1.50173
1.52025
1.53718
1.55154
1.58083
1.42837
1.44967
1.37928
1.42755
1.41451
0.484454
0.479286
0.387058
0.346682
0.447135
0.374942
0.387771
0.25504
0.282393
0.149051
0.121077
0.118135
0.121331
0.0957503
0.001
0.001
0.034789
0.150097
0.001
0.001
0.001
0.001
0.001
0.001
0.001
0.001
0.001
0.001
0.001
0.001
0.001
0.00101
0.001
0.001
0.00101
0.001
0.001
0.001
0.446596
0.492793
0.464328
0.44345
0.20813
0.207097
0.23191
0.299746
0.417969
0.417113
0.369953
0.418528
0.416698
0.00100999
0.001
0.001
0.001
0.001
0.001
0.00120378
0.00120458
0.001
0.001
0.00101
0.00100946
0.001
0.001
0.00100846
0.001
0.0010099
0.00390716
0.001
0.001
0.001
0.001
0.001
0.001
0.001
0.00107669
0.001
0.001
0.0010847
0.001
0.001
0.001
0.001
0.001
0.001
0.001
0.001
0.001
0.001
0.001
0.001
0.001
0.001
0.001
0.001
0.001
0.001
0.001
0.001
0.001
0.001
0.00201737
0.001
0.001
0.001
0.001
0.001
0.001
0.001
0.001
0.001
0.001
0.001
0.0113707
0.001
0.001
0.001
0.001
0.001
0.001
0.001
0.001
0.001
0.001
0.001
0.001
0.001
0.001
0.001
0.001
0.001
0.001
0.001
0.001
0.001
0.001
0.001
0.001
0.001
0.001
0.001
0.001
0.001
0.001
0.001
0.001
0.001
0.00124739
0.00101
0.001
0.001
0.001
0.001
0.00100999
0.001
0.001
1.19833
1.23234
1.22823
1.26383
1.2807
1.27037
1.30461
1.26455
1.28822
1.34742
1.3041
1.38098
1.34062
1.42029
1.13559
1.1593
1.15719
1.17747
1.15977
1.17878
1.22357
1.17283
1.10195
1.1158
1.11837
1.12429
1.12151
1.12784
0.835719
0.759385
0.647046
0.670112
0.574543
0.658909
0.671377
0.727805
0.907795
0.906864
0.904333
0.883695
0.995945
1.04202
0.963711
0.919497
1.04249
1.04559
1.04373
1.07257
1.09406
1.08776
1.0923
1.10492
1.09866
1.10422
1.09882
1.09573
1.10708
1.10741
0.226319
0.134221
0.39316
0.39756
0.304883
0.401868
0.399617
0.497038
0.117227
0.129222
0.107855
0.0886679
0.0280099
0.124918
1.36565
1.38653
1.40445
1.43855
1.43159
1.45523
1.46834
1.47586
1.48754
1.47446
1.48035
1.50152
1.52119
1.53505
1.5337
1.54087
1.56032
1.58028
1.59709
1.59953
1.60747
1.48357
1.47217
1.62591
1.64585
0.001
0.001
0.001
0.001
0.001
0.001
0.001
0.001
0.001
0.00205663
0.001
0.001
0.001
0.001
0.001
0.0010532
0.0010532
0.001
0.001
0.001
0.001
0.001
0.001
0.001
0.001
0.0614489
0.0638978
0.15433
0.21115
0.177733
0.25966
0.206902
0.401157
0.336902
0.427198
0.436029
0.440416
0.509072
0.640881
0.638735
0.587054
0.613982
0.639716
0.587661
0.696697
0.61906
0.59982
0.639103
0.766593
0.779524
0.842033
0.895893
0.781597
0.871653
1.01554
0.964224
1.03511
1.00402
1.19738
1.16195
1.22783
1.24303
1.31378
1.32456
1.38683
1.35113
1.40159
1.38154
1.40245
1.44053
1.40869
1.44447
1.45122
1.40631
1.39803
1.44138
1.43692
1.40698
0.001
0.001
0.00101
0.001
0.001
0.001
0.001
0.001
0.001
0.00107539
0.001
0.001
0.001
0.001
0.001
0.001
0.00100968
0.00132911
0.001
0.001
0.00131651
0.00100995
0.001
0.001
0.00123536
0.001
0.001
0.001
0.001
0.001
0.00150718
0.00100984
0.001
0.001
0.001
0.001
0.001
0.00100967
0.001
0.001
0.001
0.001
0.001
0.001
0.001
0.001
0.00101389
0.00101393
0.00101405
0.001
0.001
0.001
0.001
0.00119306
0.001
0.001
0.00119298
0.001
0.001
0.001
0.00100996
0.00138707
0.001
0.00112987
0.001
0.001
0.001
0.001
0.00101
0.001
0.001
0.001
0.001
0.001
0.001
0.001
0.001
0.001
0.001
0.001
0.001
0.001
0.001
0.001
0.001
0.001
0.001
0.001
0.001
0.001
0.001
0.001
0.001
0.001
0.001
0.001
0.001
0.001
0.001
0.001
0.001
0.001
0.001
0.001
0.001
0.001
0.001
0.001
0.001
0.001
0.001
0.001
0.001
0.001
0.001
0.001
0.001
0.00112858
0.001
0.001
0.001
0.00112978
0.001
0.001
1.64972
1.63091
1.64775
1.62502
1.62302
1.64419
1.61964
1.60454
1.62408
1.48128
1.5152
1.4948
1.50445
1.57573
1.63754
1.63674
1.54026
1.42385
1.45798
1.42108
1.41271
1.41579
1.44927
1.34364
0.248987
0.34881
0.252032
0.286732
0.288224
0.199737
0.193324
0.199909
0.196985
0.20229
0.174051
0.0949197
0.0642728
0.001
0.0022174
0.0884216
0.214615
0.001
0.001
0.00102427
0.001
0.001
0.00100999
0.001
0.001
0.00100155
0.001
0.0010386
0.001
0.001
0.001
0.001
0.00104258
0.001
0.00100853
0.001
0.00100507
0.35736
0.276519
0.254192
0.344783
0.210524
0.232161
0.369052
0.298219
0.341766
0.419018
0.41452
0.00110299
0.001
0.001
0.00115086
0.001
0.001
0.00120443
0.00120399
0.001
0.001
0.00100995
0.001
0.001
0.001
0.001
0.001
0.00389675
0.00389955
0.001
0.001
0.00389705
0.001
0.00201741
0.001
0.001
0.001
0.001
0.0034304
0.001
0.00108466
0.00360492
0.001
0.001
0.001
0.001
0.001
0.001
0.001
0.001
0.001
0.001
0.001
0.001
0.00101
0.001
0.001
0.001
0.001
0.001
0.00118285
0.001
0.001
0.001
0.00101
0.001
0.001
0.001
0.001
0.001
0.001
0.001
0.001
0.001
0.001
0.001
0.001
0.001
0.001
0.001
0.001
0.001
0.001
0.001
0.001
0.001
0.001
0.00101001
0.00101012
0.001
0.001
0.001
0.001
0.001
0.001
0.001
0.001
0.00160896
0.001
0.001
0.001
0.001
0.001
0.001
0.00160896
0.001
0.001
0.001
0.001
0.001
0.001
0.001
0.001
0.001
0.001
0.00671474
0.001
0.001
0.00101
0.00101
0.001
0.00101
0.001
0.001
0.001
0.001
0.001
0.001
0.001
1.18723
1.22124
1.17971
1.22893
1.22276
1.24405
1.22438
1.25944
1.26975
1.30918
1.30984
1.30901
1.35001
1.31375
1.41653
1.12872
1.13241
1.13775
1.1446
1.14392
1.1439
1.14573
1.15981
1.15872
1.10408
1.11281
1.12473
1.12705
1.12708
0.809979
0.877877
0.690594
0.68636
0.606897
0.703643
0.764729
0.694738
0.917023
0.927129
0.928592
0.919563
1.04558
1.01119
0.976655
1.01357
1.05925
1.04944
1.08137
1.1031
1.09986
1.11902
1.1102
1.11067
1.10222
1.11221
1.11378
1.12095