/*--------------------------------*- C++ -*----------------------------------*\
  =========                 |
  \\      /  F ield         | OpenFOAM: The Open Source CFD Toolbox
   \\    /   O peration     | Website:  https://openfoam.org
    \\  /    A nd           | Version:  8
     \\/     M anipulation  |
\*---------------------------------------------------------------------------*/
FoamFile
{
    version     2.0;
    format      ascii;
    class       volScalarField;
    location    "19920";
    object      Hclip;
}
// * * * * * * * * * * * * * * * * * * * * * * * * * * * * * * * * * * * * * //

dimensions      [0 1 0 0 0 0 0];

internalField   nonuniform List<scalar> 
526318
(
1.81326
1.76687
1.83771
1.76253
1.84447
1.7705
1.80941
1.71514
1.78425
1.66122
1.63094
1.76823
1.69546
1.7438
1.71156
1.73088
1.70222
1.90773
1.80622
1.8633
1.84711
1.80988
1.5565
1.80533
1.6831
1.56365
1.82898
1.82978
1.82727
1.84227
1.86361
1.92721
1.90308
1.78632
1.76271
1.76565
1.7451
1.8164
1.76578
1.75092
1.78267
1.76074
1.42081
1.46975
1.37503
1.42497
1.40116
1.52519
1.68669
1.60605
1.68776
1.69752
1.6414
1.60903
1.09707
1.34787
1.33876
1.14291
1.84882
1.88347
1.8995
1.84616
1.78356
1.92794
1.90947
1.87797
1.84453
1.85885
1.76046
1.76876
1.86572
1.64613
1.70398
1.59895
1.53995
1.53725
1.62942
1.62625
1.55318
1.59607
1.67851
1.663
1.61971
1.58534
1.60024
1.67861
1.67397
1.65379
1.60408
1.66594
1.58327
1.52854
1.52746
1.45471
1.44766
1.45034
1.45023
1.45794
1.44996
1.44383
0.879175
0.831021
0.916287
0.953866
1.00721
0.78661
1.35626
1.17076
1.49327
1.44527
1.49335
1.61481
1.81899
1.71148
1.83276
1.84232
1.89989
1.87229
1.9308
1.44325
1.43936
1.44878
1.44697
1.40324
1.4511
1.35401
1.40211
1.31022
1.35304
1.31152
1.30707
1.29934
1.27281
1.26523
1.29054
1.235
1.28907
1.2366
1.25589
1.20178
1.2051
1.22713
1.2581
1.24275
1.19835
1.19966
1.21442
1.20108
1.20232
1.20711
1.22114
1.19823
1.21699
1.22049
1.21483
1.17267
1.20923
1.19124
1.19519
1.1277
1.22624
1.16556
1.23335
1.70005
1.82058
1.74896
1.72334
1.54396
1.60062
1.54606
1.54036
1.53777
1.53649
1.5601
1.5455
1.47792
1.4432
1.41316
1.34942
1.41222
1.45922
1.45251
1.44969
1.34362
1.39554
1.28015
1.29065
1.29783
1.29258
1.29178
1.29434
1.28057
1.28611
1.2808
1.26879
1.25218
1.27529
1.26746
1.23621
1.22207
1.25173
1.24587
1.21694
1.24052
1.22807
1.23384
1.19407
1.2173
1.24228
1.24918
1.6993
1.74025
1.73415
1.71417
1.69791
1.6997
1.70739
1.55394
1.60367
1.35845
1.34181
1.33699
1.45888
1.60899
1.46908
1.50092
1.5019
1.45817
1.43866
0.938076
0.74518
1.083
1.28081
0.544597
0.370416
0.67886
0.768713
0.739612
0.741633
1.89235
1.90745
1.94038
1.92318
1.89951
1.87833
1.80084
1.87576
1.73062
1.67434
1.67541
1.67985
1.66732
1.67614
1.66632
1.66624
1.57832
1.63819
1.46444
1.51646
1.43805
1.46306
0.256491
0.187425
0.640875
0.42388
0.921704
0.867377
0.921647
1.07572
1.45553
1.26769
1.49477
1.50017
1.61818
1.72924
1.85265
1.84366
1.89321
1.84617
1.92904
1.95832
1.42872
1.41796
1.38521
1.35459
1.25524
1.28906
1.21967
1.2249
1.21662
1.21275
1.19933
1.20554
1.13591
1.16067
1.18864
1.2282
1.28009
1.25029
1.2109
1.21051
1.14343
1.14043
1.18659
1.23741
1.16552
1.19734
1.19952
1.16519
1.17054
1.13666
1.12379
1.0933
1.09621
1.09859
1.08705
1.20691
1.24465
1.20796
1.25068
1.60696
1.56652
1.46962
1.55665
1.47198
1.52116
1.53286
1.52771
1.54135
1.54444
1.45024
1.36746
1.29618
1.27529
1.35183
1.29116
1.27971
1.39154
1.28012
1.33407
1.27446
1.27146
1.28135
1.27128
1.28416
1.2834
1.28079
1.28163
1.28089
1.27916
1.28729
1.28313
1.29635
1.29378
1.29773
1.27436
1.28863
1.27169
1.24288
1.24644
1.27191
1.30619
1.29406
1.26763
1.25404
1.27737
1.31752
1.3192
1.33486
1.2916
1.32468
1.34127
1.38151
1.33324
1.33823
1.36508
1.39517
1.51595
1.57186
1.5214
1.55923
1.59787
1.68461
1.58904
1.44924
1.58407
1.48791
1.49467
1.2307
1.17387
1.20633
1.19024
1.30655
1.42416
1.36444
1.43101
1.43523
1.44406
1.42717
0.702022
0.847882
1.00278
0.843127
1.08589
0.972735
0.109463
0.258572
0.195133
0.12828
0.0337804
0.260972
0.490396
0.736566
0.620348
0.633745
1.92621
1.93395
1.97406
1.94608
1.93006
1.91559
1.81707
1.73394
1.68693
1.68492
1.66838
1.66036
1.64948
1.63903
1.62019
1.62531
1.57225
1.61383
1.53721
1.48647
1.42741
1.38291
0.001
0.00107008
0.00107008
0.001
0.001
0.001
0.001
0.00107007
0.00107018
0.00107011
0.101503
0.001
0.001
0.001
0.0659728
0.001
0.153165
0.260754
0.264893
0.432674
0.891399
0.677765
0.987637
0.966667
1.16194
1.00265
1.36636
1.53446
1.54219
1.63898
1.84663
1.74104
1.86871
1.88026
1.88439
1.9009
1.94241
1.96568
1.34323
1.34251
1.29831
1.32205
1.26165
1.22732
1.21981
1.21756
1.21303
1.21761
1.17032
1.16202
1.11355
1.1264
1.18169
1.15315
1.128
1.17492
1.16802
1.18612
1.09684
1.08602
1.11097
1.1158
1.11981
1.07661
1.08029
1.07395
1.08292
1.06632
1.06251
1.36299
1.33954
1.33904
1.33635
1.35952
1.46425
1.42142
1.40339
1.2888
1.32855
1.3175
1.31809
1.21807
1.15619
1.33402
1.4426
1.33407
1.34208
1.3263
1.39873
1.38453
1.45941
1.48919
1.41278
1.39228
1.42898
1.30577
1.27818
1.27425
1.27809
1.19462
1.24464
1.17322
1.12255
1.10652
1.22503
1.22247
1.27096
1.27065
1.2781
1.27394
1.26952
1.27465
1.27382
1.28494
1.27595
1.29593
1.28762
1.29527
1.29517
1.32152
1.30577
1.32986
1.33682
1.28364
1.26394
1.32997
1.31427
1.30109
1.31926
1.29991
1.28897
1.34216
1.31899
1.42411
1.42951
1.3838
1.4235
1.43459
1.39796
1.48948
1.4621
1.52904
1.5499
1.57397
1.4941
1.48992
1.48762
1.45079
1.46092
1.40526
1.50576
1.34713
1.32339
1.37866
1.39327
1.07247
1.12242
1.20461
1.32473
1.35679
1.38907
1.29426
1.26609
1.21964
1.17422
0.522487
0.617481
0.890903
0.692546
1.00628
1.0733
0.0418084
0.001
0.0298318
0.0268744
0.180935
0.001
0.556458
0.314583
0.478674
0.465966
0.001
0.001
0.001
0.001
0.001
0.00101
0.001
0.001
0.001
0.001
0.00111938
0.001
0.00110234
0.001
0.00112154
0.00112217
0.001
0.001
0.001
0.001
0.001
0.001
0.001
0.001
0.00100959
0.001
0.00100965
0.001
0.001
0.001
1.92632
1.94314
1.96357
1.95187
1.92926
1.86628
1.67093
1.76164
1.64486
1.63181
1.62017
1.62531
1.62149
1.6133
1.6101
1.61262
1.55055
1.5294
1.42604
1.469
1.32508
1.36485
0.001
0.001
0.001
0.001
0.001
0.001
0.001
0.001
0.00101
0.001
0.001
0.001
0.001
0.001
0.001
0.001
0.001
0.00100737
0.001
0.001
0.001
0.001
0.001
0.001
0.0441049
0.192011
0.348128
0.331692
0.40087
0.579523
1.03319
0.832021
1.04531
1.05018
1.34454
1.17313
1.55433
1.50976
1.57836
1.68183
1.78008
1.85967
1.87461
1.86853
1.91397
1.93376
1.93334
1.90674
0.00113101
0.001
0.001
0.001
0.001
0.001
0.001
0.001
0.001
0.001
0.001
0.001
0.001
0.001
0.001
0.00101
0.001
1.32356
1.32276
1.32384
1.28806
1.21075
1.24506
1.17109
1.16388
1.12755
1.12313
1.07791
1.07382
1.10816
1.10457
1.06515
1.09957
1.09445
1.14208
1.12419
1.12439
1.04622
1.01609
1.01712
1.06151
1.06568
1.06526
1.04083
1.04525
1.00611
0.994977
0.958471
0.965283
1.56285
1.52984
1.57014
1.57928
1.52714
1.48612
1.65391
1.67711
1.73914
1.74978
1.29592
1.33647
1.38754
1.47043
1.29411
1.24051
1.2757
1.27507
1.11543
1.16764
1.22791
1.10105
1.31345
1.31216
1.31533
1.32125
1.33709
1.31951
1.335
1.35154
1.22675
1.22579
1.1192
1.20878
1.19941
1.15605
1.11
1.12751
1.07017
1.09016
1.07266
1.15751
1.22138
1.15569
1.21696
1.26941
1.26934
1.27513
1.27122
1.27854
1.29352
1.28644
1.30367
1.30085
1.32221
1.3149
1.33821
1.33674
1.33825
1.33741
1.34657
1.34009
1.37877
1.35339
1.31964
1.31817
1.38385
1.35241
1.36022
1.40209
1.44196
1.4408
1.44274
1.44205
1.47391
1.523
1.58944
1.60562
1.61706
1.59269
1.7374
1.67501
1.80337
1.8439
1.83283
1.87243
1.92795
1.79214
1.88058
1.90162
1.97811
2.02631
2.05248
2.07252
2.10264
2.04639
2.10244
2.05836
2.1378
2.13898
2.18809
2.15547
2.21657
2.24762
2.23606
2.18522
2.25081
2.27505
2.24157
2.2377
2.30431
2.28011
2.31303
2.2517
2.25212
2.31727
2.28501
2.23793
2.23753
2.26968
2.30211
1.29133
1.26156
1.43278
1.41071
1.39665
1.38897
1.371
1.154
1.28402
0.995861
1.01252
1.11888
1.11231
0.981189
1.06459
1.05174
1.2219
1.12358
1.13078
1.03166
1.03718
1.04901
1.05996
0.591523
0.4615
0.865298
0.655185
0.863275
0.81412
0.001
0.001
0.001
0.001
0.001
0.001
0.182821
0.436821
0.326791
0.361214
0.001
0.001
0.001
0.001
0.00136061
0.001
0.001
0.001
0.001
0.001
0.001
0.001
0.001
0.001
0.00100829
0.001
0.001
0.001
0.0010095
0.001
0.001
0.00101983
0.001
0.00101523
0.001
0.001
0.00101
0.001
0.00103757
0.001
0.0010375
0.0010378
0.001
0.00103797
0.00103833
0.00103805
0.001
0.001
0.001
0.001
0.001
0.001
0.001
0.001
0.0010078
0.001
0.001
0.001
0.001
0.001
0.001
0.001
0.001
0.00101
0.001
0.001
1.9191
1.88762
1.88278
1.87597
1.79713
1.86397
1.6939
1.62457
1.62155
1.61789
1.6129
1.61447
1.55867
1.55449
1.40589
1.36727
1.32341
1.49652
1.4969
1.45084
1.45067
1.44365
0.001
0.001
0.00113492
0.00113491
0.001
0.001
0.001
0.001
0.00113492
0.001
0.001
0.00100893
0.001
0.001
0.001
0.001
0.001
0.001
0.001
0.0301174
0.422425
0.249027
0.452282
0.452919
0.695761
0.496429
0.89241
1.04931
1.17776
1.04654
1.33977
1.50913
1.53914
1.56282
1.65644
1.77678
1.82648
1.81687
1.85705
1.77874
1.84658
1.88204
1.84269
1.81868
0.00101
0.001
0.00100993
0.001
0.001
0.0011912
0.001
0.001
0.0011912
0.001
0.001
0.001
0.001
0.001
0.00101
0.001
0.001
0.001
0.00101
0.001
0.001
0.001
0.001
0.001
0.00221061
0.00101059
1.29674
1.29843
1.21693
1.23571
1.11336
1.13691
1.07622
1.07366
1.07086
1.07568
1.04437
1.0478
1.0224
1.02193
0.998992
1.03788
1.1166
1.07762
1.11649
1.11629
0.934481
0.957345
0.998362
0.976109
0.985181
0.987787
0.934703
0.926133
0.91047
0.924427
0.93371
0.930166
1.78462
1.78512
1.61064
1.52721
1.51305
1.50153
1.78124
1.69571
1.94062
2.01648
1.91282
1.83644
2.02966
2.01018
2.07617
2.12497
2.15495
2.15463
2.1823
2.15532
2.2108
2.23631
2.23364
2.23329
2.25224
2.23814
2.23842
2.28472
2.22785
2.22275
1.34632
1.27366
1.41631
1.48836
1.27267
1.22089
1.27313
1.27334
1.10453
1.15751
0.987926
1.15446
1.04666
1.31503
1.26864
1.31983
1.31559
1.3148
1.20957
1.12001
1.04116
1.02057
1.0353
1.07601
1.00384
0.984466
0.912586
1.00588
1.08421
1.07911
0.996212
1.1008
1.16504
1.11284
1.22138
1.16862
1.2055
1.26261
1.29558
1.27533
1.30786
1.31096
1.32122
1.30888
1.34489
1.35457
1.35323
1.36749
1.37256
1.37615
1.40624
1.41908
1.40972
1.40281
1.40699
1.39997
1.41937
1.43402
1.48261
1.4715
1.44186
1.47131
1.46906
1.50174
1.53457
1.59636
1.62565
1.62869
1.63934
1.70541
1.79052
1.86317
1.87877
2.0039
1.87746
1.92903
2.07882
2.10285
2.10265
2.13976
2.18828
2.23759
2.24758
2.25135
2.27939
2.30827
2.33507
2.3352
2.33506
2.33522
2.33479
2.31646
2.25283
2.31693
2.28457
2.23872
2.23844
2.27047
2.30258
2.31182
2.23888
2.29916
2.25959
1.0857
1.07423
1.1487
1.22418
1.11079
1.17576
1.32339
1.2573
1.2766
1.11311
1.02473
0.982015
0.991365
1.08444
1.07683
0.741122
0.848815
1.03077
0.925276
1.03511
1.02982
1.04119
1.03482
1.04767
1.06765
0.26026
0.415791
0.511007
0.695491
0.714478
0.710426
0.001
0.001
0.001
0.00101
0.001
0.001
0.0546188
0.001
0.163684
0.001
0.001
0.00136044
0.001
0.00101
0.001
0.001
0.001
0.001
0.001
0.001
0.00105176
0.001
0.001
0.001
0.001
0.001
0.001
0.001
0.001
0.001
0.001
0.001
0.001
0.001
0.001
0.00100379
0.001
0.001
0.001
0.001
0.001
0.001
0.001
0.00101
0.001
0.00100962
0.001
0.001
0.001
0.001
0.001
0.001
0.001
0.001
1.82611
1.82274
1.82832
1.81529
1.74088
1.80498
1.61816
1.67104
1.56998
1.57174
1.51973
1.50449
1.45184
1.44909
1.36398
1.25916
1.23426
1.40254
1.45005
1.44821
1.43869
1.45242
0.00113498
0.001
0.00113498
0.001
0.001
0.001
0.001
0.001
0.00100548
0.001
0.001
0.001
0.001
0.001
0.001
0.00100999
0.001
0.001
0.001
0.130361
0.309978
0.453548
0.515353
0.470403
0.67903
0.85842
1.01198
1.04788
1.24232
1.07426
1.38305
1.52022
1.48505
1.60023
1.76119
1.6629
1.75053
1.75137
1.73597
1.75984
1.8292
1.80228
1.82043
1.80585
0.001
0.001
0.001
0.001
0.001
0.001
0.001
0.001
0.001
0.001
0.001
0.001
0.001
0.001
0.001
0.001
0.001
0.001
0.001
0.00100999
0.001
0.001
0.00207364
0.001
0.00101
0.001
0.001
0.001
0.001
0.001
0.001
1.17161
1.17474
1.13856
1.11542
1.07297
1.09568
1.0616
1.06035
1.21816
1.15972
1.13717
0.98862
0.99816
0.927661
0.931904
0.998728
0.997346
0.990169
1.0318
1.09235
1.04335
1.08071
1.06392
0.955966
0.933221
0.947017
0.97008
0.898051
0.893554
0.894164
0.906936
0.921092
0.907399
0.871447
0.882407
2.35838
2.37004
2.39645
2.37006
2.41617
2.40145
2.42574
2.41632
2.47325
2.45919
2.42579
2.47778
2.43686
2.49721
2.32571
2.27842
2.29935
2.34735
2.32932
2.29861
2.3018
2.35448
2.35849
2.33734
2.3158
2.36795
2.35146
2.35765
2.38494
2.23828
2.23821
2.23902
2.23721
2.25632
2.27816
1.83093
1.77595
1.67124
1.57654
1.48878
1.56373
1.76601
1.74989
1.98681
2.01097
1.89712
1.97888
2.0171
2.06556
2.11403
2.15451
2.15296
2.15369
2.15089
2.18094
2.19451
2.22036
2.2076
2.21018
2.21441
2.22435
2.20109
2.20067
1.39546
1.32468
1.26748
1.25652
1.31404
1.48826
1.46911
1.19655
1.25314
1.12989
1.06279
2.34392
2.36421
2.37996
2.38646
2.39177
2.40309
2.40738
2.43463
2.41958
2.43851
2.43595
2.48632
2.51073
2.53078
2.53214
2.53773
2.54851
2.57551
1.03235
0.989918
0.981807
1.24356
1.13428
1.30667
1.20273
1.12896
1.02914
1.02058
1.02555
1.02217
0.878322
0.949496
0.803115
0.827181
0.909601
0.825147
1.09094
1.02289
0.917098
1.11478
1.11383
1.11639
1.16768
1.12515
1.25072
1.20011
1.28559
1.24717
1.28424
1.30739
1.33446
1.35609
1.3819
1.37823
1.38745
1.38307
1.43886
1.42499
1.41714
1.41898
1.4686
1.44712
1.518
1.47445
1.45732
1.50164
1.54443
1.53663
1.55954
1.59487
1.59633
1.53899
1.64966
1.67663
1.64989
1.63783
1.72283
1.80383
1.87791
1.94535
1.89189
1.90836
2.03795
2.0974
2.13915
2.12099
2.18505
2.21744
2.25833
2.27357
2.26706
2.28741
2.34518
2.32527
2.33785
2.34719
2.33789
2.33588
2.33528
2.33488
2.33475
2.33468
2.33406
1.07036
1.05853
1.0818
1.00606
1.02426
1.04188
0.978857
1.12011
1.02342
0.957812
0.98112
0.962651
0.857427
0.959093
0.986881
0.766924
0.749703
0.709537
0.818756
1.03083
0.924497
0.928636
0.930808
0.724495
0.610691
0.407246
0.42838
0.352538
0.167709
0.161785
0.716039
0.527518
0.695267
0.688823
0.001
0.001
0.001
0.001
0.001
0.001
0.00100984
0.001
0.184672
0.001
0.001
0.001
0.00101
0.001
0.001
0.001
0.001
0.00241248
0.001
0.001
0.001
0.001
0.001
0.001
0.00100993
0.001
0.001
0.001
0.001
0.001
0.00101339
0.001
0.001
0.001
0.001
0.00101396
0.001
0.001
0.001
0.001
0.001
0.001
0.001
0.001
0.00101
0.001
0.001
0.001
0.001
0.001
0.001
0.001
0.001
0.001
0.001
0.00217429
0.001
0.001
0.001
0.001
0.00217426
2.52441
2.48752
2.4651
2.56735
2.59826
2.59452
1.81035
1.81461
1.79768
1.77868
1.70784
1.78494
1.61505
1.53692
1.46099
1.48023
1.44284
1.4351
1.45664
1.45139
1.32702
1.2431
1.33219
1.41294
1.40618
0.001
0.001
0.001
0.001
0.001
0.001
0.001
0.001
0.001
0.001
0.00100943
0.001
0.001
1.00989
1.0455
1.07348
0.001
0.001
0.0111699
0.0183095
0.30025
0.181189
0.474682
0.50234
0.666175
0.534095
0.845327
1.214
1.35367
1.46404
1.4673
1.80486
1.71254
1.71455
1.51036
1.58828
1.67438
1.7241
1.73188
1.74089
1.75167
1.76679
1.75554
0.001
0.00117695
0.001
0.001
0.001
0.001
0.00100904
0.001
0.001
0.001
0.001
0.001
0.001
0.001
0.001
0.001
0.001
0.00100504
0.001
0.001
0.001
0.001
0.001
0.001
0.001
0.001
0.001
0.001
0.001
0.001
0.00101
0.00100979
0.001
0.001
0.001
0.001
0.001
1.17333
1.21012
1.19731
1.13702
1.13914
1.10893
1.13145
0.998084
1.02662
0.936562
0.937353
1.14562
1.13107
0.890313
0.88809
0.891086
0.893547
0.94924
0.926317
0.968775
0.911523
1.04003
0.988441
1.03864
1.04945
0.876521
0.828607
0.852195
0.886491
0.863709
0.863996
0.804215
0.839942
0.821009
0.800073
0.781515
0.778834
2.35781
2.37242
2.39653
2.41421
2.4271
2.42399
2.47701
2.43738
2.29297
2.29071
2.2744
2.29496
2.32933
2.29056
2.33488
2.30899
2.22526
2.21261
2.21257
2.24465
2.2731
2.24721
1.83475
1.75883
1.65222
1.74157
1.5889
1.50162
1.75543
1.75463
1.99363
1.99647
2.01101
1.90981
1.98577
2.09811
2.04439
1.98731
2.02946
2.13078
2.14381
2.13477
2.14142
2.14923
2.17249
2.1989
2.18939
2.19829
2.19922
2.19903
2.19918
2.19951
2.19849
1.23983
1.2434
1.38439
1.46459
1.24306
1.32544
1.48303
1.49807
1.23302
1.17782
1.09066
1.15563
2.37444
2.33434
2.35229
2.39799
2.39563
2.39777
2.40774
2.43043
2.45135
2.46492
2.46373
2.46953
2.49096
2.53018
2.517
2.53306
2.55004
2.59312
2.5717
2.4038
2.415
2.43098
2.60189
2.59952
2.61216
0.981812
0.982249
0.987268
0.961561
1.04809
1.07193
0.864391
0.915179
0.946955
0.827655
0.868488
0.873191
0.801554
0.802847
0.804748
0.804003
0.834298
0.867906
0.968694
0.900365
0.897303
1.04406
1.1177
1.03181
1.18829
1.21398
1.14787
1.18806
1.24764
1.21724
1.34148
1.28161
1.35646
1.36725
1.37397
1.36927
1.41648
1.4596
1.49425
1.49303
1.50018
1.48812
1.51331
1.49432
1.54451
1.54929
1.56965
1.57043
1.54741
1.55001
1.66925
1.7144
1.61242
1.67756
1.72158
1.68729
1.78742
1.83225
1.93177
1.97001
1.94752
2.03867
2.09482
2.1928
2.17969
2.23909
2.20994
2.30561
2.3143
2.30731
2.33458
2.36243
2.36365
2.41843
2.38393
2.41148
2.3739
2.37275
2.40858
2.33913
2.37581
2.33809
0.431522
0.750684
0.446268
0.71933
0.997658
0.979906
0.980957
0.960827
0.979936
0.834299
0.732203
0.729084
0.626717
0.831131
0.701472
0.724796
0.855595
0.122981
0.110262
0.486073
0.613758
0.607928
0.403862
0.295326
0.288719
0.07144
0.0849999
0.097811
0.16601
0.162342
0.0810968
0.252721
0.148792
0.412654
0.204808
0.126674
0.0010004
0.001
0.001
0.001
0.001
0.001
0.00224968
0.001
0.001
0.052365
0.001
0.001
0.00101
0.001
0.001
0.00220119
0.001
0.001
0.001
0.00100982
0.00136784
0.001
0.00100983
0.001
0.001
0.001
0.00101
0.001
0.0010134
0.00101341
0.001
0.001
0.0010134
0.00101345
0.001
0.001
0.001
0.001
0.00168699
0.001
0.0016869
0.001
0.001
0.001
0.001
0.00100984
0.00101
0.00100994
0.001
0.001
0.001
0.001
0.001
0.001
0.001
0.001
0.001
0.001
0.0013678
0.001
0.00100958
0.00100997
0.001
0.001
0.001
0.001
0.00101
2.49516
2.48769
2.4953
2.5073
2.54735
2.65197
2.60444
2.61211
2.63324
2.57609
1.715
1.69763
1.65098
1.63581
1.6002
1.62728
1.53465
1.48658
1.49301
1.45268
1.41796
1.41154
1.33305
1.3453
1.21109
1.25517
1.25309
0.001
0.001
0.001
0.00101
0.001
0.001
0.001
1.04394
1.1852
1.04543
0.001
0.001
0.001
0.001
0.913202
0.745479
0.0812084
0.0252846
0.106593
0.218423
0.509527
0.362206
0.545003
0.546139
0.581124
1.57015
1.59582
1.6239
1.32807
1.47062
1.46251
1.50678
1.62795
1.68928
1.67219
1.56679
1.6557
1.67305
1.6876
1.59046
1.64737
0.001
0.001
0.00117698
0.00101
0.001
0.001
0.00101
0.00116803
0.001
0.001
0.001
0.001
0.001
0.001
0.001
0.001
0.001
0.001
0.001
0.00101
0.001
0.001
0.001
0.001
0.001
0.00100577
0.001
0.001
0.001
0.001
0.001
0.00101
0.00100563
0.001
0.001
0.001
0.001
0.001
0.001
0.001
0.001
0.001
0.001
0.001
0.001
1.19112
1.20154
1.21178
1.07781
1.10081
1.05852
1.06048
0.987526
0.976292
0.890346
0.902002
0.888742
0.890682
0.993637
0.986701
0.835485
0.835775
0.799556
0.779661
0.87867
0.869099
0.894846
0.95268
1.03268
0.995997
1.06307
1.01532
0.817234
0.784656
0.844483
0.87118
0.745203
0.747846
0.720429
0.738783
0.781852
0.760156
0.78052
0.788209
2.36659
2.31997
2.39861
2.35081
2.36886
2.39312
2.39037
2.44203
2.40905
2.48093
2.45535
2.43388
2.48236
2.471
2.25833
2.25843
2.24773
2.26222
2.27482
2.28651
2.28767
2.295
2.20056
2.20005
2.22422
2.20903
2.23911
2.24735
1.83796
1.76133
1.67924
1.75484
1.55143
1.64324
1.75664
1.76238
1.9861
1.98607
1.98874
1.91657
2.07414
2.12172
2.03278
1.98522
2.12808
2.12777
2.14238
2.12838
2.16543
2.18815
2.19626
2.19695
2.19688
2.19431
2.19992
2.19912
2.1964
2.19438
1.23721
1.23324
1.40289
1.47848
1.38018
1.2996
1.53513
1.47936
1.21089
1.23344
1.20532
1.1237
2.37569
2.41014
2.39371
2.41842
2.43613
2.42525
2.46084
2.47261
2.45023
2.46297
2.45405
2.46507
2.46812
2.49255
2.51754
2.53129
2.53279
2.5854
2.56039
2.60722
2.61453
2.48577
2.50016
2.61873
2.62563
0.722667
0.87997
0.753951
0.851436
0.785048
0.758421
0.717191
0.674624
0.705005
0.742613
0.639606
0.685112
0.690065
0.579845
0.637332
0.786053
0.901622
0.814211
0.907278
0.905665
0.898429
0.968444
1.11501
1.01887
1.20509
1.20387
1.17024
1.11931
1.24043
1.28331
1.33959
1.33206
1.35203
1.34241
1.46141
1.4119
1.51261
1.50139
1.5303
1.53231
1.51287
1.56437
1.61235
1.58111
1.56691
1.59953
1.6438
1.63219
1.61122
1.65662
1.73901
1.73931
1.73308
1.75332
1.88297
1.79664
1.96874
1.99442
1.99394
2.06231
2.13882
2.21458
2.22228
2.23506
2.27941
2.33035
2.36446
2.36638
2.40529
2.3768
2.42918
2.44666
2.4455
2.44595
2.44524
2.4455
2.41314
2.44455
2.41265
0.0962996
0.0847731
0.10255
0.069156
0.391399
0.692236
0.379681
0.855832
0.721644
0.730421
0.57806
0.593354
0.600482
0.594349
0.599371
0.597089
0.593716
0.593477
0.595852
0.112009
0.0915341
0.001
0.0356968
0.0742059
0.028499
0.0722366
0.0745443
0.0405424
0.057874
0.001
0.001
0.001
0.001
0.001
0.001
0.00212293
0.001
0.001
0.00100986
0.001
0.001
0.001
0.00188923
0.001
0.001
0.001
0.001
0.001
0.001
0.001
0.001
0.001
0.00100941
0.001
0.001
0.001
0.00100992
0.001
0.001
0.001
0.00101
0.001
0.001
0.001
0.001
0.001
0.001
0.0010008
0.001
0.001
0.001
0.00100949
0.001
0.001
0.001
0.001
0.001
0.001
0.001
0.001
0.001
0.001
0.00101
0.001
0.001
0.001
0.001
0.001
0.001
0.001
0.001
0.001
0.001
0.001
0.001
0.001
0.001
0.001
0.001
0.001
0.001
0.001
0.001
0.001
0.001
0.001
0.001
0.001
0.001
0.001
0.001
0.001
0.00106288
0.001
0.001
0.001
0.001
2.67803
2.65602
2.68587
2.69875
2.66449
2.67421
2.50778
2.51013
2.56603
2.54689
2.65185
2.64725
2.64599
2.52665
2.49617
1.59012
1.58224
1.56301
1.57265
1.57616
1.50435
1.54789
1.34371
1.40516
1.2634
1.26218
1.21096
1.21047
1.21134
0.001
0.001
0.001
0.001
1.01604
1.2086
1.04286
0.001
0.001
0.997769
0.889879
0.001
0.0474684
0.001
0.001
0.586084
0.731539
0.113758
0.113955
0.254821
0.12009
0.550684
0.408569
0.556156
1.59159
1.58391
1.58788
1.57687
1.57819
1.29347
1.41051
1.35272
1.46771
1.53021
1.55619
1.48186
1.5662
1.52611
1.52045
1.50918
0.001
0.001
0.001
0.001
0.001
0.001
0.001
0.001
0.001
0.00317363
0.001
0.0334627
0.001
0.001
0.001
0.112227
0.115077
0.0593901
0.001
0.00102264
0.0567332
0.001
0.001
0.001
0.001
0.00100955
0.001
0.001
0.001
0.001
0.001
0.001
0.001
0.001
0.001
0.001
0.00107004
0.001
0.00107001
0.001
0.001
0.001
0.001
0.00192777
0.00319078
0.001
0.001
0.001
0.0105481
0.00603698
0.110229
0.001
0.001
0.001
0.001
0.001
0.001
1.1874
1.11778
1.10521
1.03543
1.02677
0.94592
0.930921
0.921463
0.922686
0.911598
0.921486
0.851853
0.862076
0.784816
0.772255
0.920965
0.926784
0.711755
0.705478
0.711127
0.717676
0.992105
1.05724
0.97556
0.870184
0.851011
0.927869
0.859585
0.943891
0.784002
0.752184
0.81277
0.766523
0.721662
0.721719
0.713371
0.735385
0.732812
0.703903
0.696812
0.679301
2.3139
2.30116
2.33778
2.3494
2.32354
2.3836
2.421
2.37515
2.39146
2.35937
2.46256
2.4338
2.41335
2.24897
2.24713
2.27523
2.26231
2.28428
2.28593
2.31241
2.29091
2.20016
2.20657
2.23031
2.21422
2.22967
2.23839
1.87679
1.7993
1.72146
1.75726
1.70428
1.61144
1.79396
1.75854
1.99091
1.99029
1.95206
1.99554
2.08194
2.1299
1.9934
2.0397
2.13259
2.13053
2.15385
2.13347
2.17435
2.19368
2.19253
2.1922
2.19218
2.19153
2.19513
2.19422
2.19198
2.19074
1.23066
1.29196
1.48022
1.45796
1.37811
1.46246
1.48156
1.55786
1.22432
1.22184
1.21615
1.13519
0.970793
1.0159
1.09668
2.44366
2.44806
2.47432
2.46551
2.48866
2.50218
2.50153
2.50165
2.53832
2.51832
2.53176
2.49728
2.52766
2.54074
2.56291
2.58446
2.59536
2.59331
2.64338
2.64622
2.66636
2.64845
2.5599
2.56372
2.67873
2.67753
0.502675
0.569304
0.454247
0.675405
0.602457
0.681235
0.6771
0.667934
0.600318
0.527539
0.468021
0.468123
0.495507
0.554857
0.721186
0.628696
0.59951
0.806739
0.956728
0.915444
0.77227
1.00737
1.05095
1.06761
1.05062
1.15546
1.22435
1.10318
1.32607
1.26263
1.3347
1.33604
1.42577
1.36647
1.48974
1.51981
1.51983
1.52191
1.65076
1.61458
1.5805
1.63974
1.65967
1.6538
1.64797
1.64018
1.65555
1.65347
1.73511
1.77645
1.81499
1.77014
1.81443
1.84103
1.98178
1.91435
2.0072
1.99498
2.07568
2.15112
2.24018
2.233
2.27022
2.30669
2.38269
2.37151
2.39504
2.39972
2.42713
2.43935
2.45548
2.45032
2.45951
2.45628
2.44644
2.45676
2.44538
2.44459
0.0351424
0.0111475
0.0641322
0.0395487
0.0404183
0.0652016
0.044731
0.224938
0.0360819
0.593558
0.607126
0.12406
0.336796
0.598965
0.594032
0.595746
0.59329
0.592534
0.597109
0.52137
0.430381
0.00108751
0.001
0.001
0.001
0.001
0.0351534
0.001
0.001
0.001
0.001
0.00101
0.001
0.001
0.00100863
0.00188972
0.001
0.001
0.001
0.00372787
0.001
0.001
0.001
0.00100974
0.001
0.001
0.001
0.00100983
0.001
0.001
0.00100647
0.001
0.00100976
0.001
0.001
0.001
0.001
0.001
0.00353196
0.001
0.001
0.001
0.001
0.001
0.00131268
0.00131261
0.00131263
0.001
0.001
0.001
0.001
0.001
0.001
0.001
0.001
0.001
0.001
0.001
0.001
0.001
0.001
0.001
0.001
0.001
0.001
0.001
0.001
0.001
0.001
0.001
0.001
0.001
0.001
0.001
0.001
0.001
0.001
0.001
0.001
0.001
0.001
0.001
0.001
0.001
0.001
0.001
0.00101
0.001
0.00162672
0.001
0.00105826
0.001
0.00103999
0.001
0.001
0.001
2.68851
2.71143
2.72489
2.67175
2.67966
2.66368
2.68204
2.55832
2.60554
2.60513
2.61264
2.61734
2.65883
2.67175
2.50971
2.55278
2.4755
2.5172
2.51187
1.58521
1.56651
1.47971
1.43622
1.52904
1.47476
1.48093
1.34632
1.36924
1.23903
1.2094
1.21025
1.21163
1.18879
0.001
0.001
1.12702
1.23857
1.01429
0.001
0.001
0.969359
0.96641
0.0120612
0.001
0.705987
0.841498
0.0724873
0.153405
0.0915187
0.0454135
0.564955
0.572219
0.159198
0.196906
0.244342
0.341431
0.495522
1.53493
1.58083
1.5645
1.53409
1.30269
1.29727
1.32186
1.3994
1.50781
1.50872
1.46404
1.51436
1.50837
0.0372508
0.0314014
0.0344071
0.0485119
0.0722019
0.0889885
0.0963772
0.0956557
0.0971987
0.128627
0.139549
0.168612
0.165713
0.181509
0.219681
0.261071
0.219579
0.301777
0.263402
0.214614
0.251495
0.258785
0.258922
0.001
0.001
0.00106999
0.001
0.001
0.00101
0.001
0.001
0.001
0.001
0.001
0.001
0.001
0.001
0.001
0.001
0.001
0.001
0.0898967
0.117655
0.19663
0.222468
0.289265
0.163393
0.00556921
0.001
0.38358
0.275044
0.303114
0.332548
0.001
0.001
0.001
0.001
0.001
0.001
0.001
0.001
0.001
0.001
1.10486
1.02292
1.02238
0.961415
0.961953
0.936751
0.951969
0.921623
0.961672
0.889001
0.888885
0.797285
0.815586
0.721809
0.724995
0.698289
0.693672
0.845061
0.814629
0.702676
0.693856
0.699032
0.687654
0.913596
0.958649
0.798529
0.772522
0.841341
0.958203
1.01951
0.975033
0.705833
0.663066
0.728274
0.751842
0.654944
0.634117
0.628655
0.595362
0.630149
0.603749
0.627443
0.643418
2.36289
2.35
2.27188
2.3734
2.29716
2.36326
2.38633
2.38481
2.38692
2.43829
2.37944
2.47088
2.43822
2.50497
2.22954
2.25113
2.24704
2.26799
2.25047
2.27676
2.28086
2.26178
2.19407
2.20257
2.21051
2.21981
2.21938
2.21945
1.93094
1.8517
1.73992
1.75859
1.66037
1.75361
1.76399
1.82167
1.99849
1.99799
1.99875
1.97492
2.08864
2.13536
2.05612
2.00892
2.13536
2.13627
2.14276
2.16193
2.19252
2.18122
2.19193
2.1926
2.19194
2.19117
2.19089
2.19186
2.19111
2.19195
1.31266
1.21922
1.4881
1.48929
1.40063
1.49522
1.49097
1.59275
1.21624
1.2157
1.19599
1.18016
1.11936
1.21664
2.4574
2.47667
2.49594
2.53133
2.52605
2.546
2.56
2.56888
2.57722
2.56608
2.57101
2.59404
2.61624
2.62579
2.62757
2.63672
2.6558
2.67675
2.68887
2.68852
2.70092
2.57571
2.56515
2.71594
2.74088
0.324658
0.357412
0.341836
0.42769
0.543955
0.625993
0.524586
0.541751
0.456002
0.468695
0.468791
0.491031
0.595048
0.541714
0.612893
0.617252
0.620452
0.6781
0.746163
0.921301
0.839645
1.00114
1.09174
1.07945
0.995905
1.14627
1.16006
1.24187
1.30438
1.27514
1.35096
1.29327
1.48987
1.41267
1.51822
1.52343
1.53664
1.59933
1.72477
1.73442
1.67259
1.70474
1.73359
1.678
1.787
1.71477
1.69134
1.72871
1.86169
1.87122
1.93454
1.98928
1.87115
1.96381
2.10891
2.0575
2.12689
2.09586
2.28945
2.25655
2.32197
2.33978
2.40998
2.42071
2.48156
2.44847
2.49443
2.47882
2.49853
2.5297
2.50321
2.53293
2.54025
2.49948
2.48839
2.53002
2.52847
2.50039
0.001
0.001
0.001
0.001
0.001
0.001
0.001
0.001
0.001
0.001
0.001
0.0673833
0.329149
0.001
0.001
0.42056
0.15173
0.592204
0.414358
0.521846
0.595903
0.437378
0.342045
0.001
0.001
0.001
0.001
0.001
0.001
0.001
0.00141733
0.00100995
0.001
0.001
0.001
0.001
0.001
0.00100156
0.001
0.001
0.001
0.001
0.001
0.001
0.001
0.001
0.0010095
0.00101
0.00100891
0.001
0.001
0.001
0.001
0.00127286
0.001
0.001
0.00127279
0.001
0.001
0.001
0.00100996
0.00162667
0.001
0.00123467
0.001
0.001
0.001
0.001
0.00101
0.001
0.001
0.001
0.001
0.001
0.001
0.001
0.001
0.001
0.001
0.001
0.001
0.001
0.001
0.001
0.001
0.001
0.001
0.001
0.001
0.001
0.001
0.001
0.001
0.001
0.001
0.001
0.001
0.001
0.001
0.001
0.001
0.001
0.001
0.001
0.001
0.001
0.001
0.001
0.001
0.001
0.001
0.001
0.001
0.001
0.001
0.001
0.001
0.00105826
0.001
0.001
0.001
0.00123468
0.001
0.001
2.74496
2.72491
2.74394
2.72653
2.71168
2.74401
2.72289
2.70063
2.7135
2.59094
2.57772
2.5738
2.59147
2.70343
2.69436
2.72592
2.65958
2.51643
2.55369
2.50607
2.50365
2.50419
2.54786
2.4351
1.34445
1.43867
1.3455
1.37848
1.38551
1.28037
1.28263
1.29197
1.28653
1.28998
1.26585
1.18496
1.15858
1.07732
1.0763
1.18777
1.30036
0.0412601
0.0558936
0.963814
0.965809
0.0733545
0.0856928
0.901263
0.7684
0.0878985
0.107786
0.641767
0.571076
0.252964
0.207877
0.176045
0.578203
0.494909
0.257788
0.291932
0.399972
1.44273
1.37266
1.34353
1.43532
1.29852
1.32376
1.45873
1.38821
1.43866
1.50926
1.50469
0.0405305
0.0343746
0.0459342
0.0373103
0.0883867
0.07366
0.10382
0.10239
0.0977068
0.120348
0.182477
0.159369
0.177578
0.184017
0.242996
0.205538
0.29979
0.300649
0.29907
0.290382
0.297227
0.303028
0.300198
0.297609
0.001
0.001
0.001
0.00355814
0.001
0.00100998
0.00374032
0.001
0.001
0.001
0.001
0.001
0.001
0.001
0.001
0.001
0.001
0.001
0.001
0.00101
0.001
0.419888
0.430059
0.39102
0.437871
0.46866
0.51792
0.430156
0.121972
0.587857
0.596643
0.35331
0.299959
0.001
0.001
0.001
0.001
0.001
0.001
0.001
0.001
0.001
0.001
0.001
0.001
0.001
0.001
0.001
0.001
0.963719
0.963989
0.99398
0.963912
0.962788
0.958778
0.958948
0.775169
0.781507
0.862039
0.877265
0.742049
0.7431
0.702551
0.700029
0.700685
0.696881
0.668771
0.666752
0.706282
0.701404
0.610981
0.598048
0.557697
0.575169
0.884654
0.81074
0.751665
0.964753
0.868545
0.99795
1.09708
1.02168
0.704744
0.664763
0.763748
0.74375
0.533217
0.540545
0.545921
0.57433
0.602513
0.626689
0.660385
0.643542
2.27842
2.34164
2.29399
2.29959
2.30662
2.34005
2.30889
2.34584
2.37151
2.40323
2.40041
2.40032
2.43922
2.40706
2.50192
2.21931
2.22363
2.2286
2.23186
2.23044
2.2311
2.24306
2.25762
2.2504
2.19675
2.20462
2.21378
2.21831
2.21794
1.89851
1.97372
1.78098
1.7772
1.69416
1.79475
1.85478
1.78697
2.00963
2.02206
2.02536
2.01053
2.13689
2.10071
2.0703
2.10397
2.14953
2.14235
2.17425
2.186
2.20612