/*--------------------------------*- C++ -*----------------------------------*\
  =========                 |
  \\      /  F ield         | OpenFOAM: The Open Source CFD Toolbox
   \\    /   O peration     | Website:  https://openfoam.org
    \\  /    A nd           | Version:  8
     \\/     M anipulation  |
\*---------------------------------------------------------------------------*/
FoamFile
{
    version     2.0;
    format      ascii;
    class       volScalarField;
    location    "12360";
    object      H;
}
// * * * * * * * * * * * * * * * * * * * * * * * * * * * * * * * * * * * * * //

dimensions      [0 1 0 0 0 0 0];

internalField   nonuniform List<scalar> 
526318
(
0.693634
0.6502
0.721865
0.636922
0.714695
0.65749
0.680843
0.5995
0.653271
0.537747
0.504263
0.637865
0.579682
0.623676
0.581086
0.602364
0.583459
0.782519
0.692517
0.73168
0.731648
0.68015
0.438282
0.687436
0.568221
0.435952
0.707968
0.705945
0.705889
0.718597
0.749002
0.796078
0.777309
0.66137
0.658536
0.627024
0.631225
0.719096
0.656295
0.600599
0.664828
0.632437
0.292212
0.355503
0.25931
0.307326
0.271499
0.403532
0.590217
0.474231
0.571964
0.555356
0.522057
0.48075
0.000727692
0.229235
0.215014
0.015168
0.735589
0.747936
0.771009
0.725109
0.666883
0.79691
0.789303
0.749142
0.738009
0.736081
0.641888
0.634824
0.746118
0.521915
0.58033
0.474095
0.424166
0.416171
0.514294
0.50902
0.425502
0.462453
0.54737
0.548313
0.502661
0.455852
0.484616
0.551964
0.549205
0.531817
0.477444
0.555016
0.456048
0.404342
0.404352
0.332973
0.326208
0.332735
0.333417
0.330602
0.322916
0.327172
7.97638e-05
2.15653e-06
0.000373275
1.41332e-10
0.000920941
0.000148343
0.24292
0.0357421
0.360017
0.31868
0.365105
0.484884
0.708362
0.596829
0.706981
0.721089
0.783957
0.762737
0.803618
0.324705
0.322569
0.324732
0.328316
0.282428
0.321675
0.239656
0.28074
0.189771
0.235818
0.187646
0.184284
0.176072
0.151456
0.143686
0.168137
0.114598
0.164177
0.11873
0.133539
0.0806048
0.0869695
0.102854
0.13476
0.123887
0.0800404
0.0783789
0.0932872
0.081234
0.0767055
0.0849921
0.0996814
0.0849941
0.088076
0.0896
0.0891795
0.0547192
0.0907617
0.0908143
0.0560476
0.0126782
0.0890128
0.0375074
0.0975939
0.587962
0.680832
0.632471
0.611634
0.422514
0.485681
0.41608
0.417928
0.416828
0.41688
0.438369
0.41928
0.352873
0.324489
0.291288
0.227634
0.289157
0.332014
0.332001
0.330991
0.218869
0.274134
0.157985
0.168341
0.175669
0.16668
0.170683
0.169298
0.163589
0.161692
0.156958
0.147014
0.130366
0.146503
0.142776
0.118428
0.0927532
0.122297
0.101863
0.100369
0.117069
0.114223
0.11192
0.0785286
0.0914854
0.128821
0.124632
0.571718
0.590668
0.61671
0.597475
0.576336
0.574561
0.57843
0.452871
0.487281
0.242716
0.211823
0.212673
0.343728
0.479732
0.343863
0.382277
0.386382
0.331976
0.313535
0.000892356
1.34823e-16
3.53027e-06
0.162947
0.00027704
9.76159e-09
0.000995694
0.000255125
0.000396609
0.000963311
0.789647
0.767936
0.81908
0.81154
0.779596
0.76994
0.678295
0.764754
0.608073
0.554738
0.555441
0.550171
0.552636
0.552658
0.536048
0.544639
0.456363
0.521323
0.335878
0.393185
0.322337
0.33417
0.00100536
4.55059e-11
0.000154997
0.00100202
0.000103589
0.000987509
9.62922e-11
0.000968619
0.337829
0.14037
0.385339
0.377045
0.492339
0.600327
0.716184
0.722605
0.753951
0.73492
0.807223
0.83026
0.300092
0.30343
0.264955
0.233426
0.132532
0.169683
0.0944849
0.104674
0.0955594
0.0899947
0.0806232
0.0858246
0.0103178
0.0317811
0.0696289
0.105871
0.155958
0.118895
0.094505
0.0832019
0.0223738
0.011593
0.0662726
0.12428
0.0408857
0.0799567
0.0817696
0.0500257
0.0419486
0.0141762
0.00909254
0.000927826
0.000784597
0.00092103
0.000509194
0.0916374
0.125313
0.0873049
0.129159
0.482648
0.454476
0.348829
0.435397
0.350965
0.40495
0.417418
0.404122
0.418689
0.415853
0.32921
0.244346
0.174181
0.152604
0.229966
0.169852
0.158437
0.270137
0.15958
0.208625
0.148307
0.14782
0.156821
0.150311
0.160922
0.157698
0.158692
0.159242
0.159506
0.160687
0.169189
0.16369
0.172979
0.173953
0.172675
0.156426
0.162976
0.153186
0.124186
0.123852
0.1498
0.181535
0.169029
0.1485
0.132084
0.153834
0.196502
0.200465
0.203181
0.168972
0.204487
0.216873
0.257306
0.216142
0.209078
0.24626
0.28079
0.393866
0.472232
0.39354
0.424127
0.502022
0.564409
0.479046
0.336093
0.450673
0.352002
0.374575
0.107758
0.053303
0.0808292
0.0667934
0.188391
0.310923
0.236532
0.3102
0.303379
0.328638
0.309077
2.95166e-09
0.000699573
0.000226269
5.32963e-06
0.000530774
0.000453437
0.000599399
0.00100998
0.000476803
0.00100962
0.000664765
0.00100889
0.000730728
0.000955715
0.000582482
0.000952703
0.813373
0.802047
0.838754
0.829382
0.806967
0.778508
0.701412
0.619182
0.549197
0.564514
0.54114
0.540653
0.520714
0.525607
0.501916
0.50194
0.454504
0.492679
0.41212
0.364733
0.305913
0.261428
0.000934214
0.00107458
0.00107459
0.000663073
0.000608414
0.000731205
0.000595384
0.0010746
0.00107461
0.00107455
0.00100999
0.00100984
0.000550093
0.00100942
0.000924102
0.000172183
0.000288255
0.000487392
0.000977135
0.00096135
7.31626e-08
0.000978536
0.000793614
1.85613e-05
0.0417605
1.06137e-06
0.244504
0.41519
0.418237
0.518901
0.734429
0.62326
0.742662
0.746423
0.757696
0.786433
0.821084
0.837425
0.22084
0.220665
0.173349
0.200769
0.139992
0.104886
0.0955263
0.0957247
0.0878427
0.0968037
0.0491903
0.0395225
0.000646114
0.00336857
0.0554559
0.0275798
0.0034394
0.0490332
0.0445349
0.0680184
0.000563312
0.000877153
0.000798003
0.000572963
0.000985269
0.000835048
0.0009113
0.000873914
0.00089927
0.000387281
0.000872478
0.241576
0.215527
0.212825
0.215441
0.238297
0.345136
0.300072
0.287137
0.16498
0.201343
0.195172
0.197077
0.100461
0.0346612
0.210946
0.325614
0.211348
0.220003
0.196408
0.283262
0.258288
0.335556
0.367628
0.289604
0.272458
0.305227
0.182384
0.156132
0.156134
0.151438
0.0716015
0.127562
0.0514157
1.8163e-07
0.000667688
0.100216
0.102004
0.151945
0.149684
0.149718
0.152116
0.145982
0.15506
0.148606
0.160794
0.152149
0.164988
0.162419
0.175346
0.171308
0.200486
0.19093
0.209494
0.208888
0.163356
0.144185
0.20357
0.18851
0.180055
0.196582
0.175642
0.167807
0.226516
0.195579
0.305241
0.311354
0.266347
0.303053
0.305503
0.274696
0.369967
0.343316
0.412836
0.432482
0.458142
0.36884
0.369805
0.371204
0.330094
0.316329
0.283163
0.372287
0.223484
0.199858
0.254311
0.273248
3.48324e-10
0.000475067
0.0830278
0.205015
0.234932
0.27245
0.176248
0.141551
0.099757
0.0459966
0.000965631
0.000310861
1.42674e-06
1.84795e-07
0.000778321
0.00100068
0.000993891
0.000234006
0.00100979
0.000545241
0.00024476
0.000470015
0.000926911
0.000208943
0.000889372
0.000986846
0.000766556
0.000551352
0.000138864
0.000388285
0.00097475
0.00101
0.000136022
0.000999779
0.000912704
0.000354496
0.00117609
0.000894039
0.00107839
0.00099358
0.00117586
0.00117587
0.00090408
0.000999494
0.0009727
0.000201819
9.59135e-05
0.000989075
0.000892979
0.0009482
0.00100959
0.000881287
0.00100965
0.000996543
2.65749e-05
0.000931251
0.806319
0.817417
0.837251
0.828562
0.805621
0.735007
0.55124
0.638199
0.522173
0.525945
0.503428
0.502307
0.493617
0.493932
0.488758
0.490921
0.430709
0.40573
0.304718
0.343021
0.203793
0.242014
0.000962408
0.000624444
0.000948563
0.000967574
0.000969466
0.000982262
0.00097598
0.000870723
0.00101164
0.000766002
0.000677989
0.000965569
0.000971308
0.000759356
0.000380116
0.000991326
0.000690401
0.00100737
0.000803925
0.000839513
0.000369052
0.000975289
0.000889611
0.000439439
0.000917861
0.00068906
0.00101
0.000641909
7.68306e-06
6.82991e-05
0.000555011
0.000719123
0.000419027
0.000731073
0.225432
0.0521239
0.433225
0.389213
0.453421
0.564101
0.66339
0.746575
0.759414
0.742098
0.785676
0.8172
0.804955
0.802127
0.00116529
0.000881216
0.000886173
0.00026289
0.000757445
0.000922867
0.00081396
0.000936986
0.000890554
0.000725685
0.000975785
0.00092383
0.000794854
2.99799e-07
0.000880516
0.00101
0.000170373
0.204531
0.203775
0.200252
0.168464
0.087146
0.124414
0.0473193
0.0404873
0.00459919
0.000301289
0.000877742
0.00047519
0.000347178
0.00040806
0.000433521
0.000892648
0.000826231
0.0177843
0.000159974
0.0033702
0.000712611
0.000921773
0.000703425
0.000545433
0.000771027
0.000818397
0.000964289
0.000555971
0.000325844
0.000996791
0.000920408
0.000390313
0.443436
0.40784
0.451276
0.461716
0.410145
0.36867
0.534155
0.553634
0.620871
0.629878
0.170461
0.221553
0.264242
0.346096
0.171759
0.125398
0.156065
0.152449
0.000914418
0.0435105
0.0933685
0.000265367
0.194953
0.200696
0.195304
0.199618
0.221224
0.199139
0.208082
0.227995
0.102878
0.0981232
4.86082e-07
0.0857639
0.0796013
0.0377735
0.00240644
0.00651451
3.97187e-76
0.000834551
0.00092864
0.0350482
0.0970999
0.0302527
0.0945567
0.150425
0.151748
0.1475
0.152602
0.152572
0.169617
0.166781
0.182738
0.185066
0.191471
0.191207
0.215077
0.204996
0.218702
0.216067
0.226561
0.219008
0.261533
0.231028
0.198716
0.204169
0.26365
0.23237
0.240812
0.275281
0.316601
0.32372
0.321067
0.324837
0.352171
0.405231
0.468546
0.494681
0.49464
0.482125
0.616583
0.549199
0.675924
0.715023
0.717658
0.745446
0.809676
0.677328
0.75253
0.781978
0.8565
0.904985
0.930757
0.951483
0.984369
0.926495
0.979459
0.937935
1.02004
1.02178
1.06594
1.03531
1.09962
1.12474
1.11998
1.06261
1.13177
1.14887
1.12181
1.11219
1.18478
1.1609
1.18732
1.13311
1.12689
1.19663
1.16258
1.11591
1.11344
1.14913
1.18222
0.17343
0.136963
0.308781
0.307007
0.27177
0.265403
0.267079
0.0340196
0.17135
0.000100024
0.000652071
0.000713169
1.61271e-07
0.000111801
0.000418906
0.00105528
0.10013
0.00651566
0.00709239
0.000355281
0.000842234
0.000441908
0.00051585
0.000348275
0.00101
5.27544e-07
5.8384e-05
9.70941e-06
5.35186e-05
0.00101
0.000966006
0.000995857
0.000574986
1.3513e-05
0.00164648
0.000842141
0.000928041
0.000844807
0.000691483
0.000389066
0.00069126
0.000943677
0.000831092
0.00130096
0.000406818
0.00012748
0.000146108
0.000949
0.000431299
6.93167e-06
1.61879e-05
0.000990101
0.00093513
0.00100829
0.00079904
0.000911134
0.000410555
0.00100928
0.00100997
0.000810376
0.000940163
0.00075839
0.000978582
0.000974989
0.000926586
0.00101
0.00057983
0.00095266
0.00102671
0.00105979
0.000949812
0.00102637
0.000933403
0.00101
0.00101
0.000467339
0.000585417
0.000993933
0.000773625
0.000877713
0.00099375
0.000922247
0.000776475
0.0010078
0.000994205
0.000136415
0.000956593
0.000950381
0.000921886
0.000915695
0.000919934
0.00061597
0.00101
0.000623175
0.000968314
0.795096
0.783228
0.757292
0.755194
0.671139
0.746232
0.571603
0.500754
0.493113
0.492158
0.494179
0.4952
0.431331
0.439982
0.279549
0.243867
0.201847
0.376723
0.375949
0.326221
0.322963
0.323263
0.000821561
0.000412844
0.00106759
0.00105949
0.000962471
0.000414864
0.00092369
0.000410365
0.00106087
0.000947713
0.000161511
0.00100893
0.000972717
0.000941946
0.000297472
0.000985833
0.000726155
0.00091818
0.00021426
0.00071546
0.000436027
0.000951565
0.00136775
0.00136789
3.81621e-05
5.97467e-06
0.000169957
0.000987693
0.0564843
5.06965e-08
0.223528
0.384524
0.421757
0.448581
0.530143
0.646049
0.70869
0.683368
0.729537
0.666011
0.716723
0.756697
0.713748
0.711558
0.00111045
0.00099301
0.00100998
0.000849207
0.000936136
0.00119463
0.000759072
0.000800855
0.00119463
0.000964874
0.000981161
0.000996251
0.00010461
1.14836e-05
0.000984272
0.000373012
2.12517e-09
0.00072123
0.00101
0.000253336
0.000277025
0.000765241
0.00096459
0.000879022
0.00201711
0.00101103
0.17783
0.176095
0.0930393
0.111593
0.000831539
0.0123306
0.000668481
0.000789978
0.000603475
0.00135957
0.000275067
0.000751573
0.000686785
0.000630537
0.000181025
0.000344051
0.000107422
0.000926802
0.00125692
0.0012286
0.000576935
0.0002975
0.000447279
0.0008342
0.00030944
0.000950196
0.000717662
0.000602104
0.000980152
0.000764758
0.00121661
0.00070356
0.658153
0.664318
0.496169
0.401388
0.394307
0.379937
0.664773
0.569956
0.823281
0.892302
0.784901
0.719577
0.906445
0.892725
0.955903
1.0071
1.03615
1.03523
1.06417
1.03505
1.08877
1.11567
1.11218
1.11038
1.13046
1.11485
1.11543
1.16286
1.10426
1.10074
0.223054
0.155261
0.291184
0.360625
0.16102
0.099229
0.146441
0.154733
0.00098061
0.0350429
8.17051e-05
0.0343124
0.000856193
0.196141
0.14407
0.194154
0.190365
0.201876
0.0903829
0.00106685
0.000271247
1.07197e-14
2.63159e-06
0.000808164
1.67982e-322
7.36412e-29
1.81001e-06
0.000998818
0.000713049
0.000810978
3.63154e-05
0.000116226
0.0434834
0.000792801
0.0971522
0.0428638
0.0855643
0.138615
0.177279
0.155094
0.188292
0.191103
0.199934
0.186719
0.225052
0.238479
0.235192
0.252883
0.256755
0.256991
0.287
0.299693
0.292176
0.283442
0.287645
0.279237
0.296257
0.313618
0.35785
0.355279
0.323305
0.352571
0.344692
0.377582
0.414437
0.476188
0.507402
0.501054
0.509337
0.584579
0.662103
0.743903
0.75121
0.882484
0.755594
0.809105
0.961258
0.978978
0.985234
1.01554
1.07
1.11367
1.12777
1.12575
1.15888
1.1847
1.21249
1.21379
1.21517
1.21158
1.21227
1.19604
1.13091
1.19405
1.16171
1.11521
1.11647
1.1462
1.18111
1.19029
1.11531
1.17461
1.13511
1.43645e-08
0.000764246
0.0245808
0.101618
0.000656252
0.0588117
0.194171
0.129432
0.15558
0.000584637
0.000537952
1.93585e-06
0.000716215
0.0032473
7.1688e-08
0.00018824
9.99101e-07
0.000755111
0.000978156
0.00126508
0.00126456
0.000284872
0.000478654
0.000269009
0.00100999
0.000871197
0.000795729
0.000978231
0.000492452
0.00143543
0.00143468
0.00086849
0.000172666
0.00046544
0.00164632
0.000981197
0.000718195
0.000478021
0.000315336
0.000478717
0.00101
0.000956086
0.00130203
0.000928609
0.00101
0.000500828
0.000660221
0.000998234
0.000701989
0.000938544
0.000874495
0.0010521
0.000945545
0.000791252
0.000751098
0.000990039
7.57449e-05
0.00099613
0.000976554
0.000151024
0.000650036
0.000544652
0.000936558
0.000835023
0.000981871
0.000965409
0.00103761
0.000978339
0.000943996
0.000974885
0.00092222
0.000207016
0.000979907
0.000919067
0.00101
0.000732523
0.00100962
0.000641972
0.000367709
0.000916152
0.000960434
0.000962968
0.000892128
0.00059858
0.000479733
0.706475
0.700359
0.688112
0.692451
0.617798
0.688125
0.492751
0.556205
0.453677
0.454711
0.398286
0.384097
0.323382
0.329023
0.236088
0.137462
0.110582
0.281339
0.326067
0.326598
0.322668
0.324723
0.0010582
0.00099363
0.00107055
0.00057332
0.000973634
0.000973647
0.00094649
0.000972052
0.00100548
0.000830393
0.000135327
0.000443538
0.00093376
0.000997208
0.00060297
0.00100999
0.00098232
3.53596e-05
0.000985985
0.000873381
0.000276721
0.000470531
0.000655599
0.00101
0.000321117
3.32274e-05
0.00016739
0.000935205
0.115652
1.66881e-26
0.263391
0.388194
0.370479
0.475029
0.646376
0.543699
0.621395
0.61847
0.616373
0.642046
0.700169
0.698255
0.69993
0.673985
0.000769413
0.000922585
0.000567268
0.000958878
0.000712787
0.000933944
0.000627141
0.000452485
0.000819009
0.000879841
0.000957505
0.000856862
0.000968979
2.62428e-11
0.000922039
0.000873917
0.00096514
0.000987798
0.000743529
0.00100999
0.000468733
6.55335e-06
0.00186144
0.000901385
0.00101
0.000860782
0.000668131
0.000489708
0.000136748
8.03952e-10
0.00098545
0.052406
0.0540991
0.0142317
0.000879795
0.000273559
0.000322116
0.000956993
0.000401708
0.0949289
0.0362428
0.0138638
0.000187059
0.0009323
0.000408908
0.00100989
0.00126758
0.00126758
0.000245247
0.000583215
0.00028876
0.000807948
0.000327903
0.000801456
0.000830286
0.000590566
0.000349619
0.000324541
0.000587295
0.00100971
1.30661e-05
0.00052455
0.000737284
0.000689738
0.000594218
0.000809643
1.239
1.24899
1.27407
1.25009
1.29584
1.27879
1.30281
1.29693
1.34477
1.33534
1.30216
1.35166
1.31428
1.36835
1.20178
1.15447
1.17565
1.22628
1.20835
1.17475
1.18028
1.2348
1.23884
1.21379
1.1949
1.24897
1.23304
1.23685
1.26624
1.11425
1.11507
1.11404
1.11454
1.1335
1.15104
0.706465
0.65289
0.55387
0.44889
0.369427
0.446424
0.648328
0.62642
0.870209
0.887712
0.777196
0.853906
0.898554
0.945057
0.993157
1.03733
1.03382
1.03608
1.03239
1.06143
1.07587
1.09913
1.08775
1.08777
1.09048
1.10243
1.0801
1.07751
0.274326
0.209069
0.148515
0.136247
0.190936
0.361565
0.343644
0.0752687
0.129402
0.0054167
0.000979915
1.22024
1.24322
1.25796
1.26668
1.27323
1.28545
1.28817
1.31531
1.30012
1.31728
1.31073
1.3618
1.38336
1.40442
1.40828
1.41053
1.42554
1.4477
0.000720063
0.000688209
0.00145552
0.125171
0.0108055
0.179393
0.0850097
0.00493089
0.00131479
4.91994e-07
0.00131484
0.00131478
0.000150505
0.000198011
0.000879062
0.000634227
1.56935e-49
6.10001e-120
0.000377734
0.000793005
0.000395231
0.000570879
0.00122513
0.000342199
0.0462146
0.00508745
0.128612
0.0767412
0.162905
0.129136
0.156723
0.19193
0.216145
0.244926
0.252712
0.253023
0.26155
0.261425
0.312756
0.300903
0.297762
0.29311
0.345041
0.317871
0.393454
0.350796
0.331886
0.373748
0.418074
0.411666
0.437207
0.472755
0.474182
0.41627
0.522958
0.557336
0.526233
0.51278
0.59681
0.680509
0.754042
0.8249
0.771098
0.791587
0.92233
0.974663
1.02328
0.996681
1.06632
1.0919
1.13196
1.15296
1.14701
1.16369
1.22428
1.20377
1.21681
1.2219
1.21162
1.21377
1.21189
1.20924
1.21087
1.21024
1.21205
0.000984927
8.74961e-06
0.00229026
2.89125e-05
0.000308718
4.23624e-05
0.000391132
3.92692e-08
0.000349998
0.000541021
0.000517096
0.000992538
8.58466e-05
0.000357873
0.00145547
0.000988155
0.000894993
0.000193636
4.28478e-05
0.00126437
0.000336091
0.00038011
0.000800851
0.000714013
0.000735431
0.000980699
0.00100999
0.000912284
0.0011186
0.00111858
0.00143356
0.00081691
0.00101361
0.00098778
0.000776109
0.00096702
0.000896738
0.000998449
0.00026155
0.000888291
0.00100984
0.000894905
0.0011185
0.000263418
0.000398457
0.000668916
0.00101
0.000330569
0.000740386
5.942e-15
6.40658e-10
0.00241119
0.000379096
0.000850418
0.000694792
0.000545923
0.000997667
0.0003892
0.00100993
0.000972649
0.000977525
0.000963111
0.000999516
0.000734351
0.00103628
0.000927119
0.000709404
0.000996007
0.000757829
0.00103584
0.00089779
0.000955844
0.000631827
0.000258775
0.00074756
0.000964465
0.000941166
0.000838222
0.00101
0.000334973
0.000769708
0.000685233
0.000978177
0.000925692
0.000935309
0.000895609
0.00091709
0.000695524
0.000567275
0.00205309
0.000189651
0.000674617
0.000835469
0.000943942
0.00205305
1.40719
1.36706
1.33235
1.44635
1.47892
1.47616
0.684819
0.685192
0.673786
0.673258
0.595266
0.658921
0.493342
0.411568
0.34363
0.35698
0.32888
0.322087
0.321807
0.323317
0.198095
0.122018
0.209007
0.284878
0.287551
0.00093523
0.000802894
0.000875173
0.000890082
0.000922295
0.0009764
0.000965395
0.000493094
0.000931051
0.000554111
0.00100943
0.000959595
0.000969088
0.000968182
0.000172856
0.000752999
0.00100998
0.000498781
0.000128694
0.000927014
4.59314e-06
0.000276164
0.000921556
0.000785239
0.00052174
0.000783296
0.000978157
0.0937942
0.230653
0.339631
0.349774
0.663734
0.582642
0.600133
0.387853
0.47375
0.562187
0.616348
0.614632
0.611399
0.629838
0.660334
0.655026
0.000709806
0.00115274
0.000624652
0.000982796
0.000704864
0.000720222
0.00100904
0.000845157
0.000724386
0.000865554
0.000823186
0.000932446
0.000763197
0.000831138
0.000896425
0.000597622
0.000627663
0.00100504
0.000978863
0.000935387
0.000938185
0.000682923
0.000770427
0.000937995
0.000997599
0.000978674
0.000347723
0.000953032
0.000978459
0.000973622
0.00101
0.000984843
0.000871643
0.000978065
0.000827832
0.000833002
0.000811322
0.0500805
0.0877204
0.0717542
0.0149893
0.015181
0.000970741
0.00701228
0.00018178
0.000420607
0.000337111
0.000919076
0.0205863
0.00847091
0.000406768
0.000986977
0.000612942
0.000962556
0.000490688
0.000432878
0.000753925
0.000136085
7.42918e-05
0.00065721
0.000224512
0.000742875
5.79952e-05
0.000680105
0.000702988
0.000416507
0.000653842
0.000551523
0.000693939
9.93495e-05
0.000358069
0.000994303
5.96903e-05
0.000979051
1.24247
1.25304
1.28038
1.29467
1.29277
1.30271
1.33844
1.32344
1.16726
1.16565
1.15007
1.17066
1.20457
1.16862
1.21152
1.19063
1.10126
1.08698
1.08958
1.11804
1.14599
1.12421
0.714513
0.634633
0.530253
0.619356
0.469547
0.382846
0.635375
0.633774
0.875031
0.87478
0.892167
0.786137
0.8658
0.979145
0.925059
0.86756
0.9075
1.01053
1.02469
1.01519
1.02208
1.02881
1.05033
1.07537
1.071
1.07996
1.0843
1.07683
1.07649
1.07797
1.08072
0.123118
0.126498
0.268423
0.34585
0.119228
0.208209
0.363044
0.367106
0.109223
0.0534683
0.000898202
0.0336849
1.25436
1.21314
1.23119
1.27988
1.27693
1.28076
1.28958
1.3113
1.33118
1.34129
1.34244
1.34322
1.36736
1.40431
1.38867
1.40909
1.42811
1.47629
1.45288
1.28563
1.29633
1.30993
1.48708
1.48074
1.4849
0.00145533
0.00145529
0.00145536
0.00053441
0.000255858
0.000805135
7.76206e-08
0.000928091
0.000399032
0.000659527
0.000757232
0.000881632
0.000578176
0.00101
0.000702905
0.00100987
0.000969713
4.07031e-06
0.000753117
2.26727e-09
0.00186146
0.000811975
3.12778e-06
0.000626889
0.0643499
0.0962112
0.0228282
0.066775
0.122934
0.0959687
0.219322
0.16729
0.227045
0.247192
0.254285
0.246058
0.285978
0.333094
0.366172
0.372121
0.375827
0.364105
0.390465
0.371994
0.417975
0.422515
0.44942
0.44857
0.425664
0.434514
0.549997
0.590442
0.494348
0.555339
0.606874
0.563852
0.670693
0.711539
0.812024
0.852754
0.828356
0.923784
0.972771
1.0762
1.0557
1.11344
1.09277
1.18663
1.18776
1.18319
1.21356
1.24346
1.2418
1.29447
1.26269
1.28635
1.25139
1.2496
1.28352
1.21702
1.25073
1.21469
0.000278737
3.24748e-06
0.000809039
0.000599838
0.000769361
0.000964183
0.00057408
5.96862e-07
0.00101
0.000199154
0.000130371
0.000512431
0.000257381
0.000632165
0.000555044
0.000342372
0.000374911
0.00019144
0.000508679
2.86275e-05
0.000124015
4.98173e-05
5.50518e-07
0.000222331
0.000787429
0.001031
0.000965884
0.000108093
0.00111857
0.00111857
0.00097609
0.000995782
0.000992745
3.82214e-05
0.00101
0.000912008
0.0010004
0.000112849
0.00044385
0.000919656
2.6892e-10
0.000297927
0.00218018
7.94597e-10
0.000984734
6.04364e-05
0.0009581
0.000364482
0.00101
0.000172236
0.000989588
0.00220272
0.00097799
0.000134455
0.00096781
0.00100982
0.00127521
0.000393762
0.00100983
0.000979813
0.000465046
0.000983408
0.00101
0.000808151
0.00103615
0.00103612
0.000896998
0.000928403
0.00103585
0.00103602
0.000955402
0.000878406
0.000711032
0.000919589
0.00155458
8.04525e-05
0.00155443
0.000808267
0.00098702
0.000966821
0.00099923
0.00100984
0.00101
0.00100994
0.000799141
0.000805878
0.000827454
1.20946e-05
9.12481e-06
0
0.00090453
0.000799517
0.000430028
0.000853644
0.00127515
0.000898711
0.00100958
0.00100997
0.000840116
0.000998553
0.000946811
0.000914726
0.00101
1.36981
1.36563
1.36846
1.37351
1.41313
1.52512
1.49579
1.49354
1.52531
1.46498
0.595958
0.583279
0.516913
0.520229
0.47535
0.509566
0.420886
0.372307
0.360843
0.325278
0.300831
0.298108
0.211331
0.221213
0.0862508
0.135402
0.132674
0.000529692
0.000965684
0.000913493
0.00101
0.000949844
0.000924031
0.000585991
0.00103353
0.0624079
0.000431738
0.000919443
0.000220381
0.000959565
0.000979614
1.45583e-06
0.000368616
0.00101
0.000973661
0.000817044
0.00102173
0.000849804
0.00099469
0.000944045
0.000847483
0.00025022
0.462048
0.456423
0.507628
0.203953
0.341839
0.345034
0.377487
0.504223
0.570785
0.536074
0.444861
0.523326
0.552542
0.557631
0.477281
0.50725
0.000957717
0.000982666
0.00115277
0.00101
0.000657807
0.000823908
0.00101
0.00118137
0.000966786
0.000988814
0.000160682
0.000986054
0.000875008
0.000936631
0.000510229
0.00102308
0.000966724
0.00102322
0.00102311
0.00101
0.000771965
0.000895476
0.000833864
0.000976221
0.00092185
0.00100577
0
0
0
0.0007651
0.00107144
0.000963239
0.00100563
0.000944429
0.000473953
0.000911195
0.000978965
0.000968087
0.00097325
0.000338297
0.000895901
0.000914242
0.000926795
0.000944526
0.00102315
0.067904
0.0795537
0.0911608
0.00084283
0.0001123
0.000946056
0.000300752
0.000926634
0.000750894
0.00147375
0.000672438
0.000831938
0.00147402
0.000474795
0.000491909
0.000406739
0.000485044
0.000242686
0.000584634
0.000434177
0.00103505
0.000270985
0.000575667
0.000666396
0.000877991
0.000587634
4.3442e-07
0.000152165
0.00118382
0.000499756
0.00103501
0.000312228
0.000747328
0.000796046
0.000346646
0.00101
0.000942721
0.000571499
0.0011838
1.24754
1.19801
1.28442
1.24106
1.24219
1.29492
1.2599
1.32206
1.28769
1.36128
1.30458
1.29239
1.36417
1.32186
1.13449
1.13245
1.12311
1.13716
1.15057
1.16109
1.16311
1.17632
1.07631
1.07344
1.09954
1.08456
1.11479
1.12442
0.719308
0.639685
0.558468
0.627036
0.436854
0.515736
0.63836
0.638293
0.860303
0.863412
0.868723
0.789807
0.954065
0.999335
0.907427
0.861853
1.00597
1.00543
1.01937
1.00623
1.04663
1.06698
1.07604
1.07501
1.07308
1.07819
1.07502
1.07824
1.07561
1.08276
0.115394
0.122651
0.279903
0.363731
0.265023
0.167306
0.409179
0.35843
0.0863203
0.109565
0.0885483
0.00101149
1.25554
1.28952
1.27487
1.30113
1.31705
1.30849
1.33872
1.35389
1.32769
1.33839
1.33038
1.34067
1.3418
1.36602
1.39155
1.40609
1.41037
1.46474
1.44354
1.49207
1.49561
1.36058
1.37658
1.50407
1.50016
0.000415286
9.10127e-05
0.000696944
0.000551543
0.000525579
9.3846e-05
0.000260243
0.000189667
0.00101
1.00585e-05
0.000927799
0.000258474
0.000705117
0.000657476
5.07035e-06
0.000780461
0.00186142
0.000439623
0.000872027
0.000687083
0.000484314
1.85227e-16
0.00100031
2.11987e-226
0.0815944
0.0828872
0.0515168
9.7121e-06
0.127311
0.165404
0.220387
0.20143
0.22924
0.225744
0.343177
0.284349
0.390444
0.385721
0.412136
0.415442
0.389983
0.449682
0.493922
0.466044
0.452594
0.477932
0.52718
0.514929
0.493431
0.53608
0.622791
0.619751
0.614993
0.634652
0.763102
0.681232
0.85002
0.874133
0.877095
0.940015
1.01946
1.0907
1.10169
1.11003
1.1601
1.20506
1.24426
1.24296
1.28369
1.25636
1.30727
1.32501
1.32104
1.32435
1.32219
1.32347
1.29229
1.32337
1.29044
0.000852679
0.000169456
0.00691705
0.0010251
0.000696504
7.73581e-05
0.000686777
0.000538285
0.000918968
0.000700239
0.00101
0.00131787
0.00132102
0.00131965
0.00132215
0.00132756
0.0013281
0.000999721
0.00133022
0.00697554
0.000990998
0.000638589
0.000184916
0.0010311
0.000432168
0.00103094
0.00103091
0.000423459
9.94759e-05
0.00100217
0.000993637
0.000687571
0.000856518
0.000794604
0.00101
0.00103668
0.000781665
0.000959982
0.00100986
0.000887496
0.000962023
0.000981091
0.00186297
0.000990508
0.000146754
1.36216e-05
0.000607696
0.00096357
0.000988249
0.000479144
0.000826696
0.000961729
0.00100941
0.00031059
3.98665e-05
0.000987756
0.00100992
0.000817418
0.000560979
0.000723986
0.00101
0.000799183
0.000968757
0.000279366
0.000905419
0.000941315
0.000942011
0.0010008
0.000939674
0.000880492
0.000886752
0.00100949
0.00097168
0.000773375
0.000984106
0.000952799
0.000582428
0.00098992
0.000934564
0.000964099
0.000974876
0.000974485
0.00101
0.00099424
0.000905098
0.000464111
0
0
0
0
0
0
0
0
0
0
0
0
0
0
0
0
0
0
0
0.00099334
0.000892817
0.000937661
0.000812305
0.000916501
0.000434354
0.000930589
0.00106416
0.000325168
0.000811332
0.000456532
0.000885277
1.55236
1.52873
1.55868
1.54479
1.55566
1.54911
1.39448
1.38448
1.4698
1.43017
1.52305
1.55894
1.51177
1.40898
1.36478
0.456703
0.458313
0.454592
0.442601
0.461324
0.387992
0.435778
0.221485
0.279419
0.140972
0.14449
0.0886297
0.0899046
0.0881107
4.53839e-05
0.000790115
0.000495047
0.000982711
0.000941743
0.0845109
1.80954e-67
0.000948865
0.000967043
0.0011053
0.000791712
0.000977274
0.000826789
0.000970402
0.000977458
0.000717645
0.000335301
0.00101248
0.00101286
0.000300188
0.00101364
0.000932938
0.0004632
0.000564851
0.461534
0.463985
0.460257
0.459622
0.459789
0.170641
0.286516
0.228838
0.351421
0.412296
0.436259
0.365427
0.453851
0.398221
0.402958
0.386273
0.000954778
0.00110794
0.000827056
0.000970576
0.000973219
0.000935143
0.00076422
0.00101465
0.00014788
0.000890944
0.00101286
0.000650597
6.92933e-05
0.000748164
0.00102043
0.000508825
0.000763669
0.000836336
0.000976766
0.000946176
0.00094707
0.000989448
0.000740767
0.000908685
0.000621516
0.00100955
0.000627569
0.000973579
0.000348921
2.15212e-05
0
0
0
0
0
0.000871689
0.00107133
0.000978274
0.00107099
0.000988902
0.000872265
0.00078846
0.000950347
0.00098805
0.00100037
0.00093197
0.000953825
0.000956596
0.000997349
0.000778615
0.00101
0
0
0
0
0
0
0.06777
0.000696412
0.00032668
0.000667092
0.000589451
0.000680509
0.00078824
0.000960083
0.000791447
0.000311719
0.00100956
0.000847521
0.000375808
0.000550644
0.00033854
0.000760208
0.000752664
0.000795758
0.000905726
0.000971356
0.000986266
6.51335e-05
0.000796617
1.79748e-05
0.000486704
0.000782671
0.000634249
0.000404769
0.000958393
0.00027789
0.000609378
1.31742e-05
0.000467482
0.00183951
0.0018292
0.000646404
0.000959699
0.000281529
0.000798649
0.00100972
0.000818552
1.19232
1.19483
1.20107
1.20493
1.22341
1.21392
1.28577
1.30091
1.26801
1.25522
1.35288
1.30484
1.28742
1.12423
1.12316
1.14992
1.13949
1.15847
1.1622
1.1903
1.17001
1.07508
1.08547
1.10755
1.08996
1.10616
1.11426
0.755158
0.679389
0.602852
0.628892
0.57785
0.488477
0.671379
0.635585
0.864419
0.867869
0.828023
0.876306
0.957968
1.00453
0.868181
0.914887
1.00999
1.0069
1.03093
1.01144
1.05434
1.06978
1.07867
1.0734
1.06662
1.07805
1.07708
1.07022
1.06969
1.07381
0.107904
0.1666
0.364613
0.336718
0.259557
0.338163
0.35889
0.43104
0.109037
0.0992335
0.090729
0.0139114
5.3971e-05
3.0611e-07
0.000925322
1.32391
1.32629
1.3533
1.34599
1.3704
1.37691
1.37712
1.38088
1.41331
1.3953
1.406
1.37274
1.40135
1.41299
1.44209
1.46053
1.47476
1.47377
1.52456
1.52297
1.54717
1.52813
1.43289
1.43896
1.55297
1.55509
0.00016622
0.000334169
0.00101
7.43805e-06
0.000729054
0.0012413
0.00124138
0.000984568
0.000305007
0.000126156
0.000113273
0.00204496
0.00106869
0.000733593
0.000822227
0.000857187
0.00100232
0.000626775
0.000320397
0.000824137
8.63116e-05
0.000995528
0.000301624
0.000795967
0.000887261
0.0310867
0.105188
0.000569098
0.199809
0.137948
0.220092
0.209555
0.307864
0.246593
0.373789
0.404072
0.398824
0.403942
0.524593
0.488576
0.457715
0.514849
0.536172
0.532691
0.528797
0.518173
0.528676
0.530951
0.611157
0.658826
0.695625
0.649624
0.694663
0.715657
0.860169
0.791643
0.885585
0.872744
0.953982
1.027
1.11526
1.10865
1.14604
1.18313
1.25996
1.24782
1.27515
1.2768
1.30429
1.31885
1.33104
1.32901
1.33645
1.33581
1.32779
1.33684
1.32506
1.32522
0.000984565
0.000863994
0.00101
0.00067133
0.00094921
0.000657298
0.000566723
0.000789161
0.000642839
0.00131725
0.000382877
0.000931352
0.000295436
0.00132245
0.00132146
0.00132466
0.00132585
0.00133354
0.00133059
0.00044502
0.000371652
0.00100968
0.000655711
0.000938422
0.000788581
0.00100179
0.000701775
0.000997704
0.000180038