/*--------------------------------*- C++ -*----------------------------------*\
  =========                 |
  \\      /  F ield         | OpenFOAM: The Open Source CFD Toolbox
   \\    /   O peration     | Website:  https://openfoam.org
    \\  /    A nd           | Version:  8
     \\/     M anipulation  |
\*---------------------------------------------------------------------------*/
FoamFile
{
    version     2.0;
    format      ascii;
    class       volScalarField;
    location    "18780";
    object      Hclip;
}
// * * * * * * * * * * * * * * * * * * * * * * * * * * * * * * * * * * * * * //

dimensions      [0 1 0 0 0 0 0];

internalField   nonuniform List<scalar> 
526318
(
1.75479
1.70969
1.78367
1.69704
1.76855
1.72128
1.73835
1.658
1.71625
1.59871
1.57351
1.69442
1.64067
1.6821
1.64033
1.66463
1.64208
1.83965
1.74995
1.79212
1.78836
1.74065
1.50797
1.74823
1.62576
1.49299
1.76499
1.76566
1.76498
1.779
1.8106
1.85609
1.83848
1.71772
1.72223
1.69104
1.69508
1.78526
1.71145
1.65739
1.7159
1.69771
1.35959
1.40851
1.31219
1.36713
1.33734
1.46144
1.64304
1.53863
1.62608
1.62746
1.57862
1.53801
1.03941
1.28206
1.27912
1.07661
1.79558
1.81022
1.82775
1.78053
1.7266
1.85472
1.85171
1.80928
1.79849
1.79629
1.7011
1.6907
1.80484
1.58336
1.63857
1.53216
1.48645
1.47771
1.57635
1.56917
1.48559
1.52654
1.6059
1.6078
1.56328
1.51328
1.54287
1.61523
1.61211
1.59194
1.53901
1.61462
1.51691
1.46614
1.46406
1.39264
1.38875
1.39088
1.39321
1.3898
1.38615
1.38608
0.827735
0.760364
0.850024
0.885912
0.952654
0.731825
1.29951
1.10758
1.42488
1.38515
1.42641
1.54739
1.76958
1.65319
1.76651
1.78083
1.84542
1.81939
1.86546
1.38209
1.38264
1.38702
1.38904
1.34316
1.38462
1.296
1.33685
1.24651
1.29588
1.24681
1.24492
1.23553
1.20974
1.20393
1.22941
1.17398
1.22644
1.1742
1.19508
1.14184
1.1459
1.16845
1.19718
1.18302
1.14002
1.14028
1.15625
1.14445
1.13952
1.14729
1.15937
1.14616
1.15203
1.15074
1.14986
1.1178
1.14953
1.14965
1.11542
1.0716
1.1485
1.10081
1.15744
1.65015
1.74347
1.68946
1.67341
1.47786
1.54696
1.47628
1.47793
1.4738
1.4794
1.50073
1.47477
1.41225
1.38299
1.34856
1.29171
1.35108
1.39132
1.39293
1.39155
1.28049
1.33095
1.21722
1.22851
1.23703
1.22613
1.22958
1.23119
1.22189
1.22317
1.21967
1.20909
1.1906
1.21304
1.20496
1.17866
1.15774
1.18347
1.1675
1.16091
1.17832
1.16762
1.1728
1.1326
1.15472
1.18423
1.1818
1.63104
1.64832
1.68008
1.65032
1.63748
1.6334
1.63551
1.50934
1.55166
1.29856
1.27549
1.27445
1.39882
1.53493
1.40746
1.44249
1.44949
1.3935
1.37167
0.876952
0.679371
1.0181
1.21885
0.470094
0.3177
0.615679
0.7141
0.679565
0.672587
1.84662
1.83177
1.87658
1.87301
1.836
1.83292
1.7418
1.82192
1.66844
1.61329
1.61301
1.61256
1.61431
1.6123
1.59955
1.60198
1.51613
1.58281
1.39698
1.45533
1.38156
1.39721
0.194694
0.115617
0.5836
0.366496
0.865737
0.807648
0.86205
1.01592
1.3965
1.20761
1.44739
1.44315
1.55192
1.65958
1.7771
1.78235
1.81602
1.79392
1.8635
1.89356
1.36162
1.36236
1.32336
1.29351
1.19295
1.22797
1.15836
1.16253
1.1542
1.15284
1.14132
1.14419
1.0692
1.0959
1.12877
1.16394
1.22247
1.18614
1.15197
1.14477
1.08389
1.07149
1.12052
1.1788
1.09946
1.13777
1.14189
1.11173
1.10228
1.07671
1.06662
1.03293
1.02823
1.03661
1.02108
1.14608
1.18388
1.14372
1.18601
1.54835
1.50916
1.40617
1.49354
1.41442
1.4666
1.47858
1.46409
1.47914
1.47492
1.38871
1.3028
1.22941
1.21551
1.28847
1.23324
1.21638
1.33171
1.22113
1.26977
1.20954
1.20901
1.21901
1.20943
1.22334
1.21796
1.21708
1.22044
1.21947
1.21818
1.227
1.22155
1.23389
1.23032
1.23152
1.21348
1.22389
1.21069
1.18303
1.18352
1.21063
1.23838
1.23141
1.20988
1.19207
1.21676
1.25964
1.2564
1.26966
1.23229
1.26612
1.28342
1.31883
1.27037
1.27729
1.30338
1.33547
1.45669
1.53363
1.45233
1.48504
1.55904
1.62464
1.53477
1.39821
1.51397
1.40779
1.43329
1.16514
1.11267
1.14188
1.12877
1.24697
1.37002
1.29883
1.36863
1.3665
1.39106
1.3661
0.645489
0.779895
0.940359
0.782298
1.02053
0.911784
0.041528
0.199187
0.139778
0.0558221
0.001
0.207887
0.429113
0.67428
0.541408
0.588223
1.8687
1.86617
1.89651
1.89016
1.86431
1.84006
1.7644
1.6812
1.61408
1.6244
1.60267
1.60195
1.58128
1.58337
1.56347
1.56055
1.50912
1.55407
1.47598
1.41912
1.36387
1.32134
0.001
0.00107178
0.00107178
0.001
0.001
0.001
0.001
0.00107178
0.00107178
0.00107177
0.0376023
0.00100984
0.001
0.001
0.00193738
0.001
0.0960739
0.206153
0.201323
0.368405
0.829959
0.61285
0.925747
0.905297
1.10171
0.942354
1.30478
1.47113
1.47834
1.57616
1.79401
1.68397
1.805
1.80369
1.82039
1.84949
1.87995
1.89823
1.28124
1.27991
1.23424
1.26111
1.19883
1.1657
1.15884
1.15374
1.15311
1.15453
1.10643
1.10502
1.04939
1.06407
1.11817
1.09091
1.06292
1.10779
1.1042
1.12348
1.03251
1.02322
1.0469
1.05525
1.06291
1.01307
1.02352
1.01322
1.02274
1.00357
1.00064
1.30195
1.2769
1.27882
1.27685
1.29781
1.40512
1.36308
1.34151
1.22244
1.26765
1.25237
1.25647
1.15515
1.08925
1.27556
1.39094
1.27192
1.28105
1.25719
1.34081
1.3194
1.3926
1.42601
1.34989
1.33097
1.36579
1.24446
1.21226
1.216
1.21211
1.12909
1.18598
1.11082
1.06242
1.04168
1.16002
1.16228
1.2082
1.20791
1.211
1.21059
1.21083
1.21461
1.21207
1.2219
1.21509
1.23258
1.2257
1.23107
1.23386
1.2595
1.24109
1.27112
1.2703
1.22206
1.2062
1.26818
1.25472
1.24214
1.25737
1.24207
1.22982
1.27937
1.25981
1.36243
1.37005
1.32295
1.36156
1.37029
1.34053
1.43197
1.39962
1.47078
1.49075
1.51365
1.42499
1.4339
1.42789
1.39486
1.37302
1.34223
1.43396
1.28515
1.26207
1.30852
1.33495
1.01182
1.05795
1.14312
1.26304
1.29381
1.33253
1.23618
1.19934
1.1623
1.10517
0.47189
0.555406
0.827086
0.63146
0.944661
1.00526
0.001
0.001
0.001
0.001
0.112228
0.001
0.505044
0.249961
0.416343
0.417538
0.001
0.001
0.001
0.001
0.001
0.00101
0.001
0.001
0.001
0.001
0.00113856
0.001
0.001
0.0011384
0.00113839
0.00113841
0.001
0.001
0.001
0.001
0.001
0.001
0.001
0.001
0.00100959
0.001
0.00100965
0.001
0.001
0.001
1.86946
1.87516
1.89676
1.89071
1.86657
1.79504
1.61471
1.70028
1.58363
1.58453
1.56272
1.56247
1.55397
1.55495
1.54771
1.54875
1.49128
1.46239
1.36437
1.40373
1.26118
1.30046
0.001
0.001
0.001
0.001
0.001
0.001
0.001
0.001
0.00101
0.001
0.001
0.001
0.001
0.001
0.001
0.001
0.001
0.00100737
0.001
0.001
0.001
0.001
0.001
0.001
0.001
0.124581
0.299527
0.272902
0.32654
0.517353
0.970924
0.765153
0.982768
0.990445
1.28693
1.11085
1.49474
1.44672
1.51223
1.62496
1.7237
1.80604
1.81651
1.80746
1.84835
1.8771
1.86539
1.85999
0.00113582
0.001
0.001
0.001
0.001
0.001
0.001
0.001
0.001
0.001
0.001
0.001
0.001
0.001
0.001
0.00101
0.001
1.26084
1.25999
1.2602
1.22531
1.1487
1.18097
1.11002
1.09835
1.06687
1.05778
1.01392
1.01499
1.04478
1.04075
1.00055
1.0353
1.02854
1.07798
1.05875
1.05737
0.983743
0.953419
0.954726
0.997329
1.00646
1.00412
0.98018
0.985822
0.946277
0.933616
0.897679
0.905268
1.50159
1.46912
1.5106
1.51859
1.47095
1.42505
1.59199
1.61258
1.67678
1.68613
1.23426
1.27677
1.32726
1.41319
1.23101
1.17515
1.2136
1.2118
1.0481
1.10197
1.15318
1.04623
1.26074
1.25565
1.25893
1.25644
1.27765
1.25823
1.27285
1.28536
1.16798
1.1575
1.06107
1.14211
1.13483
1.09816
1.04542
1.0687
1.00828
1.02782
1.00782
1.09403
1.15584
1.09121
1.15948
1.20797
1.20796
1.21127
1.21233
1.21328
1.23196
1.22673
1.24214
1.23825
1.25993
1.2505
1.27169
1.27545
1.27413
1.27593
1.28509
1.28111
1.32089
1.29044
1.25902
1.25749
1.32473
1.29171
1.30005
1.33758
1.38059
1.38209
1.38106
1.38043
1.41043
1.46676
1.52441
1.54724
1.5536
1.53283
1.6746
1.61107
1.73801
1.77807
1.77016
1.80853
1.86582
1.72862
1.81538
1.83996
1.91506
1.96423
1.99082
2.01204
2.04154
1.98477
2.04134
1.99844
2.07888
2.07915
2.12732
2.09531
2.15681
2.18685
2.17681
2.1244
2.18994
2.21346
2.17949
2.17579
2.2414
2.2178
2.25027
2.18934
2.18954
2.25385
2.22232
2.17491
2.17463
2.20758
2.23889
1.23389
1.19417
1.36574
1.36024
1.33333
1.32783
1.32547
1.09152
1.22924
0.927652
0.960799
1.06323
1.04388
0.920459
1.00071
0.987848
1.16257
1.0659
1.06588
0.975477
0.970826
0.980202
1.00624
0.530025
0.399317
0.796158
0.589661
0.795003
0.753078
0.00101
0.001
0.001
0.001
0.001
0.001
0.127247
0.378184
0.272218
0.303147
0.001
0.001
0.001
0.001
0.00137066
0.001
0.001
0.001
0.001
0.001
0.001
0.001
0.001
0.001
0.00100829
0.001
0.001
0.001
0.0010095
0.001
0.001
0.00102054
0.001
0.00101555
0.001
0.001
0.00101
0.001
0.00102179
0.001
0.00102083
0.00102231
0.001
0.00102005
0.00102107
0.00102061
0.001
0.001
0.001
0.001
0.001
0.001
0.001
0.001
0.0010078
0.001
0.001
0.001
0.001
0.001
0.001
0.001
0.001
0.00101
0.001
0.001
1.85366
1.84821
1.82153
1.8118
1.73531
1.80458
1.62964
1.563
1.55555
1.5554
1.55476
1.55418
1.49279
1.49864
1.34312
1.30146
1.26178
1.43363
1.43471
1.3849
1.38354
1.38227
0.001
0.001
0.00114455
0.00114454
0.001
0.001
0.001
0.001
0.00114455
0.001
0.001
0.00100893
0.001
0.001
0.001
0.001
0.001
0.001
0.001
0.001
0.351889
0.192338
0.390801
0.391292
0.631242
0.433014
0.833131
0.985962
1.11857
0.987065
1.27783
1.4545
1.47599
1.51209
1.58883
1.70514
1.76782
1.74774
1.78681
1.72672
1.77515
1.81553
1.76753
1.77288
0.00101
0.001
0.00100993
0.001
0.001
0.00119162
0.001
0.001
0.00119162
0.001
0.001
0.001
0.001
0.001
0.00101
0.001
0.001
0.001
0.00101
0.001
0.001
0.001
0.001
0.001
0.00221077
0.00100987
1.23413
1.23421
1.1547
1.17091
1.05087
1.07133
1.00934
1.01087
1.00852
1.00885
0.982377
0.982916
0.957631
0.958823
0.934103
0.97296
1.05025
1.01122
1.04952
1.04886
0.874082
0.895508
0.93443
0.915353
0.923767
0.924901
0.874456
0.864871
0.851896
0.867412
0.876826
0.873999
1.72026
1.72033
1.55273
1.46593
1.4559
1.44126
1.71903
1.63138
1.8774
1.95453
1.84906
1.7719
1.96956
1.94942
2.01621
2.06587
2.09458
2.09388
2.12131
2.09393
2.14822
2.17485
2.16988
2.17059
2.19014
2.17497
2.17563
2.22125
2.16508
2.15891
1.2867
1.213
1.35667
1.43015
1.2105
1.15632
1.21361
1.21117
1.03895
1.0914
0.932913
1.09765
0.980974
1.25934
1.19598
1.25575
1.24782
1.26
1.15378
1.05028
0.972886
0.963429
0.976841
1.0106
0.938852
0.92723
0.853385
0.93959
1.02157
1.01392
0.934056
1.0354
1.10365
1.0521
1.15612
1.10577
1.14783
1.20042
1.23596
1.21479
1.24774
1.24708
1.25904
1.24791
1.27989
1.29234
1.2924
1.30304
1.30879
1.31386
1.34566
1.35829
1.34856
1.34172
1.34485
1.3391
1.35664
1.37141
1.4196
1.41096
1.38084
1.41279
1.40726
1.44065
1.47192
1.53517
1.56481
1.56343
1.57405
1.64425
1.7258
1.80017
1.81343
1.94167
1.8146
1.86576
2.01704
2.04107
2.04138
2.07795
2.12724
2.17572
2.18702
2.18972
2.2181
2.24587
2.27181
2.27164
2.27161
2.27119
2.27111
2.25408
2.18993
2.25338
2.22258
2.17663
2.17618
2.2088
2.23977
2.24996
2.17768
2.23871
2.19697
1.02281
1.01624
1.08755
1.16029
1.05185
1.11895
1.25233
1.18714
1.21933
1.05719
0.952389
0.923669
0.917873
1.02922
1.01255
0.678889
0.783148
0.969391
0.863775
0.97191
0.973485
0.986527
0.967387
0.985466
1.01128
0.196541
0.345924
0.448599
0.624768
0.645272
0.646848
0.001
0.001
0.001
0.00101
0.001
0.001
0.001
0.001
0.103896
0.001
0.001
0.00137046
0.001
0.00101
0.001
0.001
0.001
0.001
0.001
0.001
0.00105181
0.001
0.001
0.001
0.001
0.001
0.001
0.001
0.001
0.001
0.001
0.001
0.001
0.001
0.001
0.00101611
0.001
0.001
0.001
0.001
0.001
0.001
0.001
0.00101
0.001
0.00100962
0.001
0.001
0.001
0.001
0.001
0.001
0.001
0.001
1.76399
1.76667
1.74839
1.74884
1.68321
1.74735
1.55355
1.61756
1.51413
1.5137
1.45883
1.44128
1.38522
1.38572
1.30108
1.19432
1.17223
1.33928
1.38594
1.38378
1.38468
1.3837
0.00114461
0.001
0.00114461
0.001
0.001
0.001
0.001
0.001
0.00100548
0.001
0.001
0.001
0.001
0.001
0.001
0.00100999
0.001
0.001
0.001
0.0656901
0.243784
0.38616
0.454999
0.409198
0.617463
0.793267
0.952877
0.983593
1.18062
1.01519
1.31987
1.45318
1.42543
1.53731
1.70063
1.60453
1.68273
1.67964
1.67353
1.70067
1.75625
1.75696
1.76194
1.73005
0.001
0.001
0.001
0.001
0.001
0.001
0.001
0.001
0.001
0.001
0.001
0.001
0.001
0.001
0.001
0.001
0.001
0.001
0.001
0.00100999
0.001
0.001
0.0020733
0.001
0.00101
0.001
0.001
0.001
0.001
0.001
0.001
1.10928
1.10899
1.07344
1.05303
1.01009
1.03061
0.995178
0.996324
1.15514
1.09431
1.07335
0.923795
0.93142
0.861372
0.867531
0.933092
0.935509
0.926058
0.964637
1.02399
0.978454
1.01236
0.998309
0.896163
0.876817
0.889429
0.907198
0.83447
0.829208
0.833368
0.847847
0.865799
0.851601
0.819238
0.825472
2.29571
2.30236
2.33217
2.31089
2.35124
2.3392
2.36355
2.35553
2.41135
2.39976
2.35945
2.41403
2.38582
2.43289
2.26526
2.21724
2.23647
2.28588
2.26726
2.23657
2.23945
2.29259
2.29733
2.27202
2.25283
2.30504
2.28816
2.29767
2.32226
2.17579
2.1763
2.17627
2.17541
2.19436
2.21486
1.76705
1.71066
1.61137
1.51467
1.42807
1.50516
1.70357
1.68509
1.92378
1.94984
1.83251
1.91657
1.9561
2.00661
2.05294
2.09544
2.0913
2.09362
2.08857
2.11956
2.13115
2.15809
2.14401
2.14792
2.15165
2.16293
2.1383
2.13933
1.33673
1.26463
1.2057
1.19645
1.25507
1.42935
1.40725
1.13372
1.18962
1.06231
0.997169
2.28265
2.30293
2.31951
2.32617
2.33094
2.3418
2.34508
2.37224
2.35659
2.37465
2.3744
2.42323
2.44387
2.47026
2.46813
2.47256
2.49034
2.51462
0.977379
0.917583
0.924269
1.18577
1.06663
1.23742
1.14698
1.05665
0.957658
0.965804
0.959323
0.963088
0.813805
0.888843
0.743749
0.762659
0.844066
0.764295
1.02893
0.958155
0.854955
1.05035
1.05261
1.05103
1.10675
1.06595
1.18936
1.13875
1.22314
1.18926
1.22366
1.24899
1.27142
1.29493
1.31644
1.31565
1.32647
1.31922
1.37826
1.36476
1.35893
1.35675
1.40902
1.38402
1.4526
1.41504
1.39609
1.43795
1.4845
1.47302
1.4973
1.53236
1.53283
1.48022
1.58555
1.615
1.58497
1.57407
1.65675
1.74051
1.81335
1.88227
1.82915
1.84548
1.97535
2.03471
2.0775
2.05863
2.12338
2.15446
2.19567
2.21173
2.20631
2.22499
2.28184
2.26363
2.27312
2.28286
2.27325
2.27114
2.27177
2.27087
2.2723
2.27127
2.27162
1.00892
0.999934
1.02242
0.945395
0.96221
0.979967
0.918043
1.05558
0.965061
0.901543
0.911539
0.892136
0.797522
0.898356
0.917569
0.70627
0.691977
0.647801
0.752193
0.971141
0.867855
0.870772
0.868802
0.658386
0.547291
0.357354
0.362369
0.283921
0.105694
0.105937
0.649963
0.464384
0.630953
0.627429
0.001
0.001
0.001
0.001
0.001
0.001
0.00100984
0.001
0.110704
0.001
0.001
0.001
0.00101
0.001
0.001
0.001
0.001
0.00240227
0.001
0.001
0.001
0.001
0.001
0.001
0.00100993
0.001
0.001
0.001
0.001
0.001
0.00101372
0.001
0.001
0.001
0.001
0.00100448
0.001
0.001
0.001
0.001
0.001
0.001
0.001
0.001
0.00101
0.001
0.001
0.001
0.001
0.001
0.001
0.001
0.001
0.001
0.001
0.00215837
0.001
0.001
0.001
0.001
0.00215833
2.46273
2.42871
2.40864
2.51248
2.53347
2.53098
1.74472
1.74636
1.73313
1.73323
1.65202
1.71964
1.55033
1.47305
1.40221
1.41478
1.3836
1.3853
1.38582
1.3853
1.26316
1.17781
1.26825
1.34912
1.34819
0.001
0.001
0.001
0.001
0.001
0.001
0.001
0.001
0.001
0.001
0.00100943
0.001
0.001
0.944209
0.984555
1.00802
0.001
0.001
0.001
0.001
0.241306
0.120614
0.410733
0.445063
0.605517
0.467267
0.778815
1.15471
1.29291
1.40629
1.40626
1.727
1.64256
1.66146
1.44311
1.53159
1.61991
1.67241
1.67389
1.67357
1.69026
1.72295
1.7103
0.001
0.00117345
0.001
0.001
0.001
0.001
0.00100904
0.001
0.001
0.001
0.001
0.001
0.001
0.001
0.001
0.001
0.001
0.00100504
0.001
0.001
0.001
0.001
0.001
0.001
0.001
0.001
0.001
0.001
0.001
0.001
0.00101
0.00100979
0.001
0.001
0.001
0.001
0.001
1.10858
1.14664
1.13157
1.07368
1.07392
1.0468
1.06735
0.935072
0.962925
0.872651
0.872313
1.08026
1.06618
0.826964
0.823393
0.82569
0.831656
0.884538
0.866185
0.902333
0.849663
0.97247
0.924673
0.97287
0.982421
0.817146
0.776415
0.796796
0.825876
0.799001
0.802156
0.743635
0.782194
0.762324
0.743142
0.721567
0.721687
2.29663
2.31047
2.33114
2.35699
2.35783
2.36176
2.39409
2.38302
2.22896
2.22761
2.21097
2.2326
2.26507
2.2264
2.27161
2.24755
2.16335
2.15069
2.15031
2.18121
2.20999
2.18391
1.77299
1.69399
1.59053
1.68125
1.5294
1.43961
1.69184
1.69353
1.93063
1.93486
1.95082
1.84514
1.92395
2.03907
1.98313
1.92494
1.96871
2.06916
2.08389
2.07298
2.0802
2.0868
2.11059
2.13734
2.12681
2.13753
2.13707
2.13808
2.13718
2.13736
2.13801
1.17855
1.1833
1.32332
1.40519
1.18258
1.26534
1.42083
1.43631
1.1703
1.11461
1.02563
1.0904
2.31326
2.27201
2.29067
2.33727
2.33499
2.33699
2.34677
2.36853
2.39044
2.39996
2.40157
2.40588
2.4293
2.47066
2.45143
2.46872
2.48626
2.53516
2.51201
2.34282
2.35391
2.36956
2.5438
2.54147
2.5426
0.923606
0.922986
0.918012
0.889269
0.993199
0.999514
0.812143
0.841403
0.879245
0.7716
0.804653
0.810178
0.737455
0.742361
0.744204
0.741565
0.771005
0.805637
0.90733
0.834877
0.83367
0.978935
1.05577
0.971386
1.12712
1.15496
1.08797
1.12713
1.18849
1.15514
1.27946
1.22215
1.29359
1.30628
1.31544
1.30595
1.35719
1.39449
1.43518
1.43311
1.43846
1.42551
1.45087
1.43339
1.48291
1.48481
1.50786
1.51011
1.48684
1.48642
1.60601
1.6513
1.55136
1.61334
1.66067
1.62276
1.72382
1.76938
1.86771
1.90749
1.8849
1.97603
2.03143
2.12967
2.11636
2.17534
2.14837
2.24399
2.25086
2.24431
2.27312
2.3019
2.30013
2.35561
2.31912
2.34654
2.3083
2.30723
2.34389
2.27502
2.31177
2.27508
0.370798
0.69362
0.382412
0.658348
0.939634
0.917927
0.918196
0.894928
0.917444
0.772245
0.663991
0.660248
0.563707
0.764208
0.635391
0.659617
0.789447
0.0518618
0.0546278
0.431773
0.551827
0.547116
0.339369
0.232629
0.228074
0.0119485
0.0206486
0.0346087
0.107016
0.104566
0.015764
0.197518
0.0910456
0.3546
0.147278
0.0655852
0.0010004
0.001
0.001
0.001
0.001
0.001
0.00224637
0.001
0.001
0.001
0.001
0.001
0.00101
0.001
0.001
0.00220312
0.001
0.001
0.001
0.00100982
0.00135539
0.001
0.00100983
0.001
0.001
0.001
0.00101
0.001
0.00101339
0.00101238
0.001
0.001
0.00101119
0.00101234
0.001
0.001
0.001
0.001
0.0016706
0.001
0.0016705
0.001
0.001
0.001
0.001
0.00100984
0.00101
0.00100994
0.001
0.001
0.001
0.001
0.001
0.001
0.001
0.001
0.001
0.001
0.00135534
0.001
0.00100958
0.00100997
0.001
0.001
0.001
0.001
0.00101
2.41253
2.43847
2.43295
2.43965
2.48136
2.59267
2.55942
2.54871
2.58285
2.50707
1.65049
1.64286
1.57607
1.57592
1.53642
1.56528
1.47597
1.4323
1.41976
1.38733
1.358
1.36002
1.2698
1.28151
1.14655
1.19205
1.18964
0.001
0.001
0.001
0.00101
0.001
0.001
0.001
0.978848
1.11928
0.983902
0.001
0.001
0.001
0.001
0.847123
0.68357
0.0194329
0.001
0.0418774
0.159309
0.449517
0.297136
0.48369
0.486353
0.511823
1.5217
1.52008
1.568
1.26746
1.40315
1.40461
1.43949
1.56192
1.63701
1.59507
1.50371
1.58565
1.6119
1.61723
1.53551
1.56489
0.001
0.001
0.00117348
0.00101
0.001
0.001
0.00101
0.00117296
0.001
0.001
0.001
0.001
0.001
0.001
0.001
0.0010212
0.001
0.00102225
0.00102208
0.00101
0.001
0.001
0.001
0.001
0.001
0.00100577
0.001
0.001
0.001
0.001
0.001
0.00102002
0.00100563
0.001
0.001
0.001
0.001
0.001
0.001
0.001
0.001
0.001
0.001
0.001
0.001
1.1276
1.13674
1.15004
1.0137
1.03543
0.996244
0.996275
0.924096
0.915533
0.827334
0.838952
0.825853
0.827796
0.929238
0.92444
0.774997
0.772493
0.740367
0.71548
0.816036
0.81088
0.835515
0.889622
0.969767
0.934219
0.999286
0.951923
0.757494
0.729514
0.788893
0.811952
0.685383
0.684218
0.657614
0.677115
0.718323
0.696057
0.718445
0.726812
2.3019
2.25193
2.33262
2.29856
2.29852
2.36418
2.33499
2.39487
2.38439
2.42712
2.37236
2.33973
2.42294
2.35925
2.19426
2.19464
2.18388
2.19901
2.21099
2.22424
2.22186
2.23258
2.1386
2.13784
2.16155
2.14601
2.17549
2.18463
1.77606
1.69749
1.61693
1.69435
1.48877
1.5817
1.69418
1.7012
1.92242
1.92393
1.92634
1.85334
2.01232
2.06103
1.9708
1.92246
2.06663
2.06546
2.08044
2.06556
2.10309
2.12677
2.13458
2.13628
2.13647
2.13313
2.13764
2.13846
2.13658
2.13336
1.1781
1.17203
1.34135
1.41761
1.32044
1.23796
1.47289
1.41731
1.14885
1.17123
1.1418
1.06007
2.31171
2.34793
2.33127
2.35717
2.37552
2.36486
2.39931
2.41154
2.38896
2.40122
2.39154
2.40121
2.40626
2.4301
2.45067
2.47033
2.47057
2.52409
2.49939
2.54783
2.55195
2.42437
2.4376
2.55909
2.56149
0.661651
0.821413
0.687562
0.796148
0.714457
0.684174
0.646931
0.622581
0.64535
0.678165
0.56972
0.625972
0.632258
0.517223
0.576421
0.722898
0.835742
0.74953
0.842971
0.844634
0.836443
0.907592
1.05498
0.95965
1.14401
1.14509
1.11143
1.06052
1.18012
1.22311
1.27925
1.26821
1.28925
1.28099
1.39888
1.35066
1.453
1.44053
1.47033
1.47142
1.45118
1.50568
1.54691
1.51999
1.50447
1.53348
1.58376
1.56748
1.54876
1.59179
1.67629
1.67476
1.67022
1.68932
1.81914
1.73541
1.90592
1.93116
1.93234
1.99921
2.07456
2.15131
2.1577
2.17139
2.21708
2.26705
2.30243
2.30377
2.34167
2.3157
2.36793
2.38165
2.38197
2.38017
2.38101
2.37937
2.34784
2.38038
2.34837
0.0333945
0.0241546
0.0453515
0.0110476
0.327729
0.632311
0.31799
0.790419
0.656233
0.667615
0.513403
0.524524
0.53468
0.529971
0.531101
0.525133
0.533132
0.531046
0.52701
0.0453215
0.034719
0.001
0.001
0.013156
0.001
0.0128823
0.0118797
0.001
0.001
0.001
0.001
0.001
0.001
0.001
0.001
0.00209838
0.001
0.001
0.00100986
0.001
0.001
0.001
0.00188855
0.001
0.001
0.001
0.001
0.001
0.001
0.001
0.001
0.001
0.00100941
0.001
0.001
0.001
0.00100992
0.001
0.001
0.001
0.00101
0.001
0.001
0.001
0.001
0.001
0.001
0.0010008
0.001
0.001
0.001
0.00100949
0.001
0.001
0.001
0.001
0.001
0.001
0.001
0.001
0.001
0.001
0.00101
0.001
0.001
0.001
0.001
0.001
0.001
0.001
0.001
0.001
0.001
0.001
0.001
0.001
0.001
0.001
0.001
0.001
0.001
0.001
0.001
0.001
0.001
0.001
0.001
0.001
0.001
0.001
0.001
0.001
0.00106303
0.001
0.001
0.001
0.001
2.61548
2.59967
2.62425
2.60581
2.58983
2.60787
2.46274
2.45445
2.50104
2.48177
2.61002
2.59735
2.6126
2.47601
2.39645
1.51832
1.5166
1.51805
1.50996
1.51586
1.44719
1.49191
1.28001
1.33805
1.20017
1.20264
1.14875
1.14898
1.14793
0.001
0.001
0.001
0.001
0.953131
1.14484
0.982659
0.001
0.001
0.935367
0.828743
0.001
0.001
0.001
0.001
0.526169
0.667892
0.0557291
0.0511039
0.192462
0.0524059
0.486595
0.34322
0.492647
1.52309
1.52046
1.51904
1.51831
1.52373
1.23372
1.34701
1.29068
1.41075
1.47446
1.49689
1.42513
1.51159
1.46104
1.46394
1.44729
0.001
0.00107608
0.001
0.001
0.001
0.001
0.001
0.001
0.001
0.001
0.001
0.001
0.001
0.001
0.001
0.0575469
0.0488846
0.001
0.001
0.001
0.001
0.001
0.001
0.001
0.001
0.00100955
0.001
0.001
0.001
0.001
0.001
0.001
0.001
0.001
0.001
0.001
0.00108081
0.001
0.0010809
0.001
0.001
0.001
0.001
0.001
0.001
0.001
0.001
0.001
0.001
0.001
0.048401
0.001
0.001
0.001
0.001
0.001
0.001
1.12622
1.05609
1.04313
0.972736
0.964881
0.88327
0.870605
0.862048
0.858974
0.851318
0.858467
0.790458
0.801366
0.725725
0.712146
0.861454
0.863463
0.652969
0.645551
0.650308
0.659245
0.93139
0.994121
0.913031
0.811892
0.793601
0.870161
0.801468
0.884117
0.722614
0.693558
0.754134
0.708123
0.658012
0.660656
0.65072
0.670111
0.667423
0.638788
0.631857
0.613025
2.26772
2.25748
2.26873
2.25868
2.28841
2.2577
2.29092
2.36688
2.33673
2.35413
2.43174
2.38143
2.33649
2.18571
2.1832
2.21246
2.19829
2.22465
2.22431
2.24787
2.23396
2.13787
2.14597
2.16921
2.15152
2.16636
2.17619
1.81541
1.73709
1.65969
1.6961
1.64232
1.54955
1.73327
1.69702
1.92777
1.92761
1.88909
1.93345
2.01859
2.0675
1.92914
1.97592
2.0686
2.06746
2.09123
2.07019
2.11233
2.13234
2.13165
2.13224
2.13173
2.13256
2.13604
2.13279
2.13154
2.1326
1.17015
1.23169
1.4178
1.39584
1.31731
1.40176
1.41984
1.49438
1.16379
1.15982
1.15293
1.07223
0.909944
0.953184
1.03372
2.37973
2.38411
2.41244
2.4037
2.42817
2.44085
2.43966
2.43999
2.47627
2.4564
2.46898
2.4346
2.46554
2.47636
2.50026
2.51957
2.53398
2.52923
2.58413
2.58262
2.60664
2.58897
2.49642
2.50202
2.61589
2.61364
0.445999
0.511176
0.3894
0.618893
0.535366
0.610314
0.623379
0.599612
0.535097
0.466253
0.406528
0.40195
0.432687
0.488817
0.659287
0.55854
0.542933
0.737561
0.897647
0.853149
0.710556
0.946844
0.991307
1.00932
0.989553
1.09193
1.16115
1.04031
1.26295
1.20102
1.27248
1.27534
1.36526
1.3062
1.42924
1.45963
1.45565
1.46261
1.58423
1.55152
1.52018
1.57515
1.59629
1.59045
1.58448
1.57601
1.59143
1.59027
1.67103
1.71419
1.75164
1.70917
1.75219
1.77905
1.91802
1.85263
1.94569
1.93166
2.01305
2.08817
2.1739
2.17038
2.20477
2.2441
2.321
2.30778
2.33323
2.3371
2.36571
2.37537
2.3934
2.38492
2.39631
2.39069
2.38009
2.39331
2.37937
2.38121
0.001
0.001
0.001
0.001
0.001
0.001
0.001
0.162254
0.001
0.525479
0.544131
0.0670618
0.271723
0.53449
0.530774
0.525451
0.537251
0.535697
0.534015
0.460575
0.364212
0.001
0.001
0.001
0.001
0.00100179
0.001
0.001
0.001
0.001
0.001
0.00101
0.001
0.001
0.00100863
0.00188102
0.001
0.001
0.001
0.00371667
0.001
0.001
0.001
0.00100974
0.001
0.001
0.001
0.00100983
0.001
0.001
0.00100647
0.001
0.00100976
0.001
0.001
0.001
0.001
0.001
0.00361024
0.001
0.001
0.001
0.001
0.001
0.00130131
0.00130123
0.00130125
0.001
0.001
0.001
0.001
0.001
0.001
0.001
0.001
0.001
0.001
0.001
0.001
0.001
0.001
0.001
0.001
0.001
0.001
0.001
0.001
0.001
0.001
0.001
0.001
0.001
0.001
0.001
0.001
0.001
0.001
0.001
0.001
0.001
0.001
0.001
0.001
0.001
0.001
0.001
0.00101
0.001
0.00158838
0.001
0.0010694
0.001
0.00105403
0.001
0.001
0.001
2.62429
2.6465
2.66093
2.62127
2.61748
2.59215
2.62237
2.48719
2.51958
2.53599
2.5476
2.56485
2.61548
2.62789
2.47235
2.47549
2.40833
2.45479
2.43853
1.5095
1.51093
1.41729
1.37597
1.47843
1.40831
1.41543
1.28176
1.31196
1.17579
1.14486
1.14668
1.14871
1.12587
0.001
0.001
1.06826
1.17475
0.951784
0.001
0.001
0.909006
0.907471
0.001
0.001
0.647712
0.781886
0.0177315
0.0886504
0.0311087
0.001
0.511047
0.510121
0.10366
0.135562
0.176859
0.280761
0.425724
1.4732
1.52421
1.49586
1.47308
1.23768
1.23809
1.26026
1.33147
1.44618
1.44867
1.40085
1.44778
1.44823
0.00100999
0.001
0.001
0.00100012
0.00504763
0.0277282
0.0348943
0.0332611
0.001
0.0590273
0.0816084
0.106935
0.106808
0.119238
0.164834
0.201599
0.148607
0.243617
0.198221
0.152907
0.194119
0.198433
0.202454
0.001
0.001
0.00108104
0.001
0.001
0.00101
0.001
0.001
0.001
0.001
0.001
0.001
0.001
0.001
0.001
0.001
0.001
0.001
0.0300015
0.0603042
0.135306
0.15577
0.221009
0.109095
0.001
0.001
0.31564
0.200773
0.240818
0.269016
0.001
0.001
0.001
0.001
0.001
0.001
0.001
0.001
0.001
0.001
1.0413
0.960422
0.959296
0.899109
0.902194
0.87527
0.89276
0.862981
0.902882
0.825532
0.828096
0.737579
0.755091
0.664998
0.667932
0.641219
0.636704
0.780519
0.752095
0.643097
0.634984
0.637085
0.630861
0.85672
0.899351
0.744633
0.713301
0.784465
0.899851
0.958519
0.915042
0.641235
0.598012
0.665749
0.693868
0.588928
0.575317
0.563118
0.532158
0.562139
0.537428
0.559427
0.577031
2.26877
2.2425
2.34674
2.27009
2.28421
2.30373
2.31912
2.30154
2.32341
2.3797
2.32978
2.40489
2.37632
2.44337
2.16539
2.18899
2.18444
2.20677
2.18798
2.21397
2.2503
2.20931
2.13245
2.14344
2.14821
2.15954
2.15669
2.15836
1.86968
1.78931
1.67869
1.69697
1.59944
1.6904
1.70238
1.76015
1.93455
1.93382
1.93594
1.9119
2.0238
2.07069
1.99101
1.94381
2.071
2.07229
2.07929
2.09952
2.13196
2.11856
2.13317
2.13196
2.13262
2.1331
2.13278
2.13107
2.13288
2.13194
1.25291
1.15799
1.4267
1.42912
1.34009
1.43498
1.43108
1.53097
1.15366
1.15375
1.13308
1.11634
1.05746
1.15298
2.3943
2.41292
2.43344
2.46891
2.46326
2.48451
2.49754
2.50655
2.51426
2.50163
2.50873
2.53188
2.55261
2.5639
2.56325
2.57286
2.59496
2.61528
2.62521
2.62719
2.63639
2.51293
2.50282
2.65709
2.68094
0.256564
0.302433
0.287561
0.352311
0.489789
0.553238
0.459136
0.482637
0.388981
0.403505
0.404642
0.430651
0.529721
0.48623
0.554842
0.552512
0.555149
0.61492
0.684418
0.85938
0.782413
0.942522
1.02608
1.0189
0.933618
1.09142
1.09309
1.18102
1.24216
1.2128
1.29056
1.23332
1.42768
1.35049
1.46054
1.4611
1.47553
1.5363
1.66372
1.66938
1.61016
1.63973
1.66892
1.61493
1.72451
1.65184
1.62911
1.66433
1.79804
1.80865
1.87435
1.9263
1.81141
1.90071
2.04641
1.99441
2.06376
2.03372
2.2271
2.19162
2.25971
2.27312
2.34483
2.3586
2.41786
2.38712
2.43249
2.41679
2.43476
2.46849
2.43856
2.47088
2.47794
2.43481
2.4235
2.4672
2.46485
2.43534
0.001
0.001
0.00101
0.001
0.001
0.001
0.001
0.001
0.001
0.001
0.001
0.00414793
0.252732
0.001
0.001
0.370266
0.0849212
0.539669
0.364438
0.464982
0.542699
0.365064
0.267199
0.001
0.00115196
0.001
0.001
0.001
0.001
0.001
0.00143695
0.00100993
0.001
0.001
0.001
0.001
0.001
0.00100156
0.001
0.001
0.001
0.001
0.001
0.001
0.001
0.001
0.0010095
0.00101
0.00100891
0.001
0.001
0.001
0.001
0.0012604
0.001
0.001
0.00126034
0.001
0.001
0.001
0.00100996
0.00158832
0.001
0.00122228
0.001
0.001
0.001
0.001
0.00101
0.001
0.001
0.001
0.001
0.001
0.001
0.001
0.001
0.001
0.001
0.001
0.001
0.001
0.001
0.001
0.001
0.001
0.001
0.001
0.001
0.001
0.001
0.001
0.001
0.001
0.001
0.001
0.001
0.001
0.001
0.001
0.001
0.001
0.001
0.001
0.001
0.001
0.001
0.001
0.001
0.001
0.001
0.001
0.001
0.001
0.001
0.001
0.001
0.00106939
0.001
0.001
0.001
0.0012223
0.001
0.001
2.68114
2.66625
2.6797
2.64048
2.65621
2.66886
2.66123
2.62858
2.65188
2.55007
2.56329
2.49401
2.49644
2.61584
2.68608
2.66379
2.53351
2.42253
2.47702
2.46486
2.45024
2.44544
2.48405
2.37452
1.27879
1.37911
1.28127
1.31936
1.3194
1.22536
1.22204
1.2276
1.22482
1.2295
1.19737
1.12112
1.09295
1.01224
1.01438
1.12824
1.2378
0.001
0.001
0.902497
0.90754
0.0112187
0.0219163
0.844095
0.706923
0.0260352
0.0475158
0.583168
0.518875
0.185633
0.143247
0.102419
0.517994
0.439811
0.197214
0.22909
0.334213
1.38633
1.3085
1.28434
1.37337
1.23795
1.26102
1.39743
1.32821
1.37287
1.44702
1.44447
0.001
0.001
0.001
0.001
0.0243818
0.00563244
0.0363451
0.0384852
0.0345901
0.060164
0.118892
0.0877064
0.117912
0.118062
0.190331
0.14195
0.239082
0.236824
0.237468
0.215211
0.242011
0.242998
0.237305
0.234761
0.001
0.001
0.001
0.00361732
0.001
0.00100998
0.00376147
0.001
0.001
0.001
0.001
0.001
0.001
0.001
0.001
0.001
0.001
0.001
0.001
0.00101
0.001
0.361086
0.371578
0.327204
0.372675
0.405369
0.46164
0.355119
0.0729907
0.511655
0.545971
0.295254
0.238629
0.001
0.001
0.001
0.001
0.001
0.001
0.001
0.001
0.001
0.001
0.001
0.001
0.001
0.001
0.001
0.001
0.897302
0.898286
0.928967
0.897441
0.90064
0.901007
0.896654
0.715093
0.718833
0.804447
0.818747
0.679727
0.679269
0.641582
0.644245
0.644137
0.64228
0.611234
0.608051
0.64112
0.636788
0.550564
0.539185
0.499656
0.514939
0.826552
0.755512
0.692195
0.90576
0.81056
0.938724
1.03689
0.960977
0.641679
0.598223
0.704264
0.681383
0.473461
0.477842
0.481427
0.51175
0.538153
0.563335
0.595161
0.576689
2.23064
2.20735
2.21865
2.27975
2.25078
2.27271
2.25374
2.2869
2.30451
2.34143
2.34038
2.34223
2.37626
2.34562
2.44608
2.15769
2.16197
2.16653
2.17157
2.17129
2.17139
2.17714
2.19846
2.18672
2.13557
2.14582
2.15219
2.15835
2.15801
1.83632
1.91203
1.71992
1.71468
1.63323
1.73262
1.79305
1.7251
1.94559
1.95815
1.96332
1.9477
2.07193
2.03556
2.00488
2.03947
2.08568
2.07728
2.10948
2.12411
2.14333
2.13968
2.14073
2.14613
2.14153
2.14775