/*--------------------------------*- C++ -*----------------------------------*\
  =========                 |
  \\      /  F ield         | OpenFOAM: The Open Source CFD Toolbox
   \\    /   O peration     | Website:  https://openfoam.org
    \\  /    A nd           | Version:  8
     \\/     M anipulation  |
\*---------------------------------------------------------------------------*/
FoamFile
{
    version     2.0;
    format      ascii;
    class       volScalarField;
    location    "18780";
    object      nut;
}
// * * * * * * * * * * * * * * * * * * * * * * * * * * * * * * * * * * * * * //

dimensions      [0 2 -1 0 0 0 0];

internalField   nonuniform List<scalar> 
526318
(
0.000165533
0.000364642
0.000243141
0.000531819
0.000262621
0.000260139
0.000568005
0.000580524
0.000189076
0.000555801
8.42058e-05
0.000292188
0.000290442
0.000622094
0.000446223
0.000338037
0.000372916
0.000109818
6.91385e-05
5.47519e-05
8.87898e-05
0.000137637
0.000484738
0.000502326
0.000173192
0.000127163
0.000174927
0.000658127
0.000216489
0.000214712
0.000256798
0.000203011
0.000213795
0.000197272
0.000527898
0.000237218
0.000523699
0.000147124
8.27162e-05
0.000343745
0.000183339
0.000543323
0.000531549
0.000339721
7.85226e-05
0.000515923
0.000231934
0.00049833
0.000444774
0.00016517
0.000391186
0.000266281
0.000472964
0.000386263
0.000364472
0.000377068
0.000579722
0.000234837
0.000251234
0.000223495
0.000177035
0.000319346
0.000321157
0.000129628
0.000134535
0.00026872
0.000296698
0.000337525
0.000429833
0.000379831
0.000329742
0.000312483
0.0003813
0.000508517
0.000469977
0.000487358
0.000494643
0.000601559
0.000641449
0.000610919
0.000660086
0.000607281
0.000677469
0.000685995
0.000712348
0.000644578
0.000601204
0.000699316
0.00061917
0.000580044
0.000708946
0.000634816
0.000392502
0.000271616
0.000578399
0.000500392
0.000698335
0.000360734
0.000338468
0.000364925
0.000231042
0.000445737
0.000461461
0.000338957
0.000133823
0.00015471
0.000308009
0.000377091
0.000407752
0.000351134
0.000319785
0.000378952
0.000387991
0.000155652
5.04021e-05
0.000387579
0.000410867
0.00017381
0.000127535
0.00025365
0.000276758
0.000262813
0.000330021
0.000177464
0.000186229
0.000229617
0.000243796
0.000158213
0.000185541
0.00020637
0.000200604
0.000176339
0.00017471
0.000143868
0.000187599
0.00010563
0.000147772
0.000137
0.000129759
8.36114e-05
8.59036e-05
8.59291e-05
0.000109455
0.000106738
7.067e-05
0.000118705
9.95556e-05
0.000152286
8.76751e-05
0.000106138
0.000123236
9.3587e-05
0.000144676
8.11753e-05
0.000121223
0.000123213
0.000165455
6.53658e-05
9.94255e-05
0.000121112
0.00018351
0.000176785
0.000138237
0.000283863
0.000294145
0.000306055
0.000318882
0.000456621
0.000451032
0.000630276
0.000602497
0.00070906
0.000678784
0.000662532
0.000694778
0.000649767
0.000655939
0.000694047
0.000688063
0.000678439
0.000561669
0.000450117
0.000393055
0.000282431
0.000366111
0.000273265
0.000237573
0.00021896
0.000223983
0.000173041
0.000198617
0.00011839
0.000165203
0.000136354
0.00010799
0.000121575
0.000131206
0.000116358
0.000107879
8.33866e-05
0.000108638
0.00023915
0.000171024
0.000222911
0.000175003
5.86363e-05
0.000205102
0.000206429
0.000189408
0.000201436
0.00040165
0.000567607
0.00020444
0.000469044
0.000192014
0.00025632
0.000133846
0.000687987
0.000392549
0.000626797
0.00020344
0.000716367
0.000337603
0.000280639
0.000143886
0.000112222
0.000452513
0.000571935
0.000466034
0.000354939
0.000166289
0.00030428
0.000809815
0.000609585
0.000329655
0.000475098
0.00031367
0.000203843
0.000354919
0.000221422
0.000265272
0.000215332
0.000199251
0.000274928
0.000356548
0.000442667
0.000339038
0.000427587
0.000530377
0.000520024
0.000558404
0.000582991
0.000555534
0.000470962
0.0005344
0.00046583
0.000456716
0.000346833
0.000338102
0.00026801
0.000235215
3.03325e-05
0.000115294
0.00033582
0.000216026
0.000263837
0.000541833
0.000425775
0.00014096
0.000276324
0.000324769
0.000321374
0.00028019
0.000157708
0.000305159
0.00017384
0.000347273
0.000331743
5.73547e-05
0.000120654
0.000340443
0.000166458
0.000176879
0.000144136
0.000127924
0.000134169
0.000143554
0.000115887
0.00013084
8.665e-05
8.17383e-05
9.9565e-05
6.04117e-05
0.000179121
0.000197522
0.000261085
0.000241103
0.000263368
0.000268417
0.000287657
0.00028233
0.000209173
0.000179397
0.000215915
0.000232572
0.00019498
6.91516e-05
0.000139148
0.000146737
9.46946e-05
0.000141541
0.000103432
0.000181971
9.69063e-05
0.000189517
0.000118339
0.00030211
0.000324808
0.000291626
0.000288661
0.000374621
0.000252262
0.000332999
0.000395882
0.000566126
0.000608808
0.000645044
0.000649446
0.000586586
0.000646531
0.000493947
0.000461663
0.000576727
0.00045469
0.000691671
0.000597058
0.000602024
0.000561407
0.00067744
0.000383785
0.000385984
0.000269608
0.000216436
0.000268562
0.000193247
0.000225658
0.000194498
0.000144287
0.000114642
0.000164185
0.000118039
0.000144272
0.000129331
0.000120246
8.94409e-05
0.000119818
8.76923e-05
0.000108935
0.000170089
0.000153543
0.000141185
0.000122363
0.000205981
0.000211015
0.000169965
0.000191464
0.000236339
0.000221574
0.00025117
0.000277542
0.000257567
0.000240283
0.000236816
0.000274675
0.000267053
0.000238013
0.000225775
0.000579189
0.000128458
5.08196e-05
0.000348996
0.000426643
0.000344263
0.00057908
0.000319856
0.000312244
0.000623309
0.000572075
0.000347688
0.000997485
0.000808909
0.000165493
0.000127355
0.000259146
1.63107e-05
0.000408634
0.000118343
0.000655133
0.000419615
0.000173016
0.000555648
0.000628217
0.0001251
0.000759338
0.000277745
3.77837e-05
6.17786e-05
4.66254e-05
7.02998e-06
0
0.000470577
0.00080523
0.000376331
0.000436089
0.000306313
0.000254285
0.000335681
0.000213014
0.000310604
0.00027632
0.000377951
0.000327242
0.000436391
0.000505213
0.000467607
0.000521271
0.000481746
0.000446438
0.00053983
0.000451242
0.00037385
0.000327322
0.000343343
0.00025216
0.000247784
0.000162634
0.000169809
0
2.57016e-11
1.14073e-10
0
0
0
0
8.26419e-11
1.10203e-10
1.64642e-10
6.54939e-06
0
0
0
7.36617e-07
0
3.81958e-05
2.76851e-05
5.07818e-05
0.000135455
0.000434788
0.000314391
0.000602727
0.000333379
0.000128518
0.000502678
0.000352394
0.000237896
0.000227526
0.00024538
0.000298085
0.000187858
0.000179928
0.000304588
0.000108972
0.000279741
7.09436e-05
0.000283297
9.00975e-05
0.000107327
0.000114031
8.98821e-05
0.000105913
0.000119081
9.49614e-05
9.1106e-05
8.36662e-05
6.49566e-05
6.99029e-05
0.000107895
0.000164965
0.000188045
0.000209028
0.000232804
0.000170434
0.000289695
0.000294194
0.000333283
0.00019125
0.000185387
0.000178566
7.95029e-05
0.000131749
8.67722e-05
0.000142037
8.00868e-05
0.000153885
9.35811e-05
7.63813e-05
0.000244434
0.000273163
0.000282338
0.000328767
0.000334265
0.000356977
0.000399027
0.000315142
0.000339446
0.000319385
0.000312192
0.000334106
0.000378591
0.000325933
0.000542309
0.000711798
0.00047678
0.000541207
0.000503156
0.000533497
0.000651806
0.00057114
0.000466306
0.000607456
0.000247617
0.000407363
0.000277698
0.000254523
0.000286115
0.000571012
0.000697276
0.000537033
0.000547254
0.000597404
0.000539071
0.000364054
0.000332271
0.000211568
0.00018043
0.000217623
0.000149861
0.000188657
0.000122152
0.000168236
0.000104794
0.000141838
0.000113024
0.00012021
7.78277e-05
0.000125128
0.000128682
5.62402e-05
0.000137551
8.2118e-05
0.000132003
0.000163452
9.4182e-05
0.000161098
0.000181276
0.000194845
0.000190891
0.000143987
0.000212971
0.000205249
0.000223958
0.000226696
0.000222367
0.000227448
0.000214464
0.000261538
0.000334916
0.000245229
0.000379995
0.000360702
0.000311108
0.00020115
0.000463785
0.00056247
0.000226967
0.000240717
0.000438719
0.000379778
0.000589137
0.000128585
0.000600165
0.000857014
0.000316526
0.000402679
0.000148768
0.000302392
1.00861e-05
0.000292906
0.000435872
0.000116821
0.000616459
0.000358478
0.000160078
0.00042891
0.000504433
0.000203762
5.08395e-05
0.000461418
0
0
0
0
0.000442357
0
0.00055258
0.000807989
0.00042952
0.00052048
0
0
0
0
0
0
0
0
0
0
1.7755e-09
0
0
6.33672e-10
7.1756e-10
1.88054e-09
0
0
0
0
0
0
0
0
0
0
0
0
0
0
0.000348628
0.000199882
7.95428e-05
0.000309905
0.000277822
0.000361911
0.000400199
0.000377933
0.000430533
0.000479779
0.000482137
0.000413702
0.000310106
0.000445119
0.000261935
0.000347901
0.00029365
0.000238175
0.000181687
0.000170133
0.000133935
0.000107859
0
0
0
0
0
0
0
0
0
0
0
0
0
0
0
0
0
0
0
0
0
0
0
0
0
0.000134317
0.000180359
7.53412e-05
4.14202e-05
0.000137986
0.0004253
0.000268072
0.000551394
0.000320724
9.86266e-05
0.000488868
0.000138598
0.000345293
0.000240616
0.000155532
0.000200972
0.000240579
0.000263653
0.000195956
7.9623e-05
0.000249014
0.000297506
4.07523e-05
6.50781e-10
0
0
0
0
0
0
0
0
0
0
0
0
0
0
0
0
7.68744e-05
0.000125176
9.58539e-05
0.00013099
0.000117006
0.000103896
9.02016e-05
7.99478e-05
9.48908e-05
7.49532e-05
7.79049e-05
0.000116821
0.000205088
0.000183691
0.000185226
0.000164173
0.000271662
0.00032569
0.00036153
0.000313299
0.000176218
0.000137693
0.000154795
0.000181839
0.00014223
7.24185e-05
6.45217e-05
0.000145433
9.24607e-05
9.03455e-05
9.89376e-05
0.000121579
0.000356239
0.00037744
0.00040534
0.000433203
0.000424701
0.000388651
0.00046009
0.000426299
0.000476176
0.000506667
0.000301196
0.00039037
0.000392177
0.000440424
0.00035299
0.000367044
0.000368255
0.000305374
0.000344532
0.000365093
0.000309845
0.000600566
0.000627064
0.000462731
0.000669996
0.000512809
0.000390425
0.000674233
0.000540561
9.9197e-05
0.000339558
0.000304931
2.98864e-05
0.000322916
0.000562117
0.000248901
0.000625059
0.000522492
0.000532583
0.000448909
0.000447936
0.000317734
0.00017753
0.000244394
0.000173126
0.000130673
0.000138947
0.000151347
0.000138941
0.000109094
8.88723e-05
0.000109624
7.28661e-05
9.08758e-05
0.000120095
4.85057e-05
5.91285e-05
0.000142112
7.61631e-05
0.000148213
9.73984e-05
0.00017758
0.000166371
9.10225e-05
0.000166197
0.000198361
0.000126422
0.000186442
0.000195689
0.000229621
0.000218274
0.000244782
0.000216709
0.000235889
0.000222931
0.00031881
0.000276877
0.000370992
0.00032431
0.000411984
0.000498314
0.000373928
0.000495871
0.000451246
0.000538215
0.00059173
0.000626306
0.000569784
0.000517018
0.000561718
0.000556894
0.000619713
0.00065457
0.0006818
0.000630544
0.000713952
0.000703278
0.000733796
0.000710912
0.000670263
0.000725954
0.000738454
0.00068121
0.000694961
0.000678557
0.000648264
0.000622428
0.000576778
0.000583659
0.000520635
0.000499043
0.000452194
0.000435224
0.000375917
0.000427917
0.000354556
0.000360661
0.000346717
0.000387043
0.000323545
0.000295607
0.000725375
0.000499871
0.000355953
0.000298097
0.000389637
0.000292045
0.000423437
0.000314267
0.000620476
0.000212924
0.000602549
0.000634869
0.000452327
0.000152416
0.000340111
6.66405e-05
0.000270092
0.000254338
0.000130728
0.000433041
0.000124509
0.000271969
0.000659991
0.000496799
0.000113741
0.000482881
0.000134063
0.000337277
0.000223787
0
0
0
0
0
0
0.000190211
0.000324525
0.000573941
0.000590615
0
0
0
0
3.05418e-09
0
0
0
0
0
0
0
0
0
0
0
0
0
0
0
0
6.20401e-10
0
6.1455e-10
0
0
0
0
2.77659e-10
0
1.27179e-09
3.22654e-09
0
2.69133e-10
4.4197e-09
4.30949e-09
0
0
0
0
0
0
0
0
0
0
0
0
0
0
0
0
0
0
0
0
0.000153109
0.000282788
0.000248723
4.73959e-05
0.000343547
0.000312619
0.000405061
0.00035715
0.000420498
0.000350495
0.000284522
0.00040906
0.000248002
0.000344122
0.000199037
0.000116948
0.000164327
0.000207165
0.000287301
0.000220471
0.000204139
0.000131183
0
0
1.04219e-09
7.64639e-10
0
0
0
0
1.83625e-09
0
0
0
0
0
0
0
0
0
0
0
0.000186678
0.00017248
8.06469e-05
0.000170269
8.80588e-05
0.000133602
0.00034779
0.000387812
0.0002875
0.000451581
0.000391295
0.000112287
0.000206806
0.000105267
0.000230112
0.000130598
0.000177159
0.000245225
0.00018437
0.000209736
0.00015507
0.000200774
0.0001312
0.000182177
0
0
0
0
0
1.94025e-11
0
0
1.02869e-11
0
0
0
0
0
0
0
0
0
0
0
0
0
0
0
5.95842e-07
9.94249e-07
0.000148368
0.000128858
0.000130246
0.000150175
0.000105854
0.000126674
9.45779e-05
9.24157e-05
8.63524e-05
9.79197e-05
8.09827e-05
9.81698e-05
0.000154777
0.000163841
0.000209967
0.000244542
0.000304493
0.000303835
0.000350163
0.00031431
9.29971e-05
0.000159982
0.000161788
0.000135548
8.54965e-05
7.76946e-05
7.83279e-05
8.30425e-05
9.25314e-05
4.96878e-05
6.52399e-05
7.59196e-05
0.000542409
0.000512248
0.000457365
0.000412193
0.000442751
0.00041797
0.000519548
0.000481292
0.0006823
0.000695805
0.000669931
0.000595522
0.000737554
0.000735775
0.000765113
0.000731189
0.000648464
0.000692935
0.00054384
0.000573686
0.000483663
0.000459657
0.000443191
0.000418167
0.000300075
0.000358916
0.000337589
0.000286271
0.000394307
0.000424883
0.000420537
0.00035745
0.000426624
0.000455032
0.000352448
0.000393137
0.000375076
0.000306084
0.000378097
0.000307504
0.000669185
0.000695211
0.000246869
0.000701086
0.000287285
0.000369188
0.000185797
0.000648437
0.000444236
0.000348221
0.000338995
0.00018638
0.000124055
0.000389391
0.000571495
0.000380565
0.000538816
0.000576773
0.000328882
0.000353399
0.00042492
0.000229705
0.000132514
0.000162985
0.000132307
0.000144069
0.00013209
0.000114005
9.50161e-05
0.000106341
7.82298e-05
6.36248e-05
7.85773e-05
5.65378e-05
6.22118e-05
0.000115136
0.000147057
6.77952e-05
6.62321e-05
0.000152397
9.988e-05
0.000178031
0.000151141
8.46568e-05
0.000223951
0.000164411
0.0001339
0.000197304
0.00020408
0.00023387
0.000230377
0.000285985
0.000252525
0.000232714
0.000291518
0.000370771
0.000407064
0.000346837
0.000365698
0.000467416
0.00041776
0.000510289
0.000475232
0.00059297
0.000512542
0.00051185
0.000592551
0.00065386
0.000641799
0.000693526
0.00067834
0.000693204
0.000643455
0.000631646
0.000562961
0.000482555
0.000407643
0.000352937
0.000297946
0.000282815
0.000252395
0.000277137
0.000296731
0.000262806
0.000280359
0.000307019
0.000327814
0.000316732
0.000296782
0.000348
0.000346277
0.000371907
0.000380322
0.000370095
0.000271346
0.000567858
0.000397824
0.000596391
0.000235972
0.00045329
0.000592064
0.000554876
0.000610005
0.000299307
0.000649551
0.000170856
0.000789632
0.000385756
0.000218018
3.95722e-05
0.000118044
0.000298965
0.000212166
4.95027e-05
0.000150942
0.000302007
0.000335855
8.07836e-05
0.000173853
0.000285071
0.000291207
0.000350472
0.000230033
0.000227836
0
0
0
0
0
0
0
0
0.000217046
0
0
4.19568e-09
0
0
0
0
0
0
0
0
1.78992e-11
0
0
0
0
0
0
0
0
0
0
0
0
0
0
6.68376e-09
0
0
0
0
0
0
0
0
0
0
0
0
0
0
0
0
0
0
0.000179936
0.000216304
0.000154725
1.92232e-05
0.000274249
0.000248333
0.000294329
0.00038256
0.000271732
0.000325817
0.000297168
0.000217659
0.000240039
0.000196254
0.000218906
0.000155995
0.000179549
0.000146355
0.00023919
0.000236958
0.000221562
0.000128206
6.24036e-10
0
5.90528e-11
0
0
0
0
0
0
0
0
0
0
0
0
0
0
0
0
0.000111853
4.14897e-05
0.000107346
0.000117513
0.000174695
0.000212699
0.000215352
0.000358228
0.00037654
0.000282709
0.000370551
0.000339986
0.000185356
0.000220767
0.000144973
0.00016839
0.000200287
0.000263384
0.000105763
0.000205755
0.000105619
9.65214e-05
0.000142924
0.000132527
0.000190623
0
0
0
0
0
0
0
0
0
0
0
0
0
0
0
0
0
0
0
0
0
0
4.80604e-07
0
0
0
0
0
0
0
0
0.000139488
0.000175353
0.000157884
0.000107885
8.13798e-05
0.000114381
0.00010733
6.23136e-05
0.000204515
0.00017747
0.000163892
5.21984e-05
0.000117032
0.000100586
4.26187e-05
0.000191821
0.000180721
0.000241491
0.000247548
0.000272208
0.000328505
0.0002799
0.000368315
0.000112705
0.000110665
0.00017974
0.000151021
4.47088e-05
8.01974e-05
8.29875e-05
4.18151e-05
3.74701e-05
7.80452e-05
9.67751e-05
3.98362e-05
0.000429898
0.000557369
0.000560677
0.000609406
0.000627469
0.000617802
0.000598871
0.00064427
0.000586327
0.000696152
0.00058121
0.000705609
0.000482985
0.000677939
0.000432722
0.000400926
0.000436711
0.000411899
0.000503551
0.000472391
0.000485497
0.000478546
0.000579573
0.000504293
0.000494918
0.000512216
0.000539092
0.000527074
0.000587913
0.000341536
0.00034162
0.000366954
0.000348149
0.000383913
0.00041831
0.000600693
0.000518078
0.00048889
0.000445044
0.000439645
0.000463462
0.000535522
0.000491063
0.000737835
0.000779271
0.000655583
0.000756312
0.000769233
0.000804267
0.000759474
0.000725593
0.000660525
0.000611774
0.000545302
0.00051721
0.000490845
0.000465203
0.000467202
0.000434212
0.000405822
0.000377918
0.000450784
0.000415633
0.000434385
0.000390096
0.000370218
0.000411187
0.000384324
0.000461097
0.000453726
0.000377583
0.000235504
0.000269493
0.000376516
0.000344819
0.000381088
0.000404936
0.000479636
0.000441871
0.00051695
0.000552874
0.000570502
0.000604364
0.000552483
0.000661015
0.000675609
0.000673286
0.000717888
0.000718966
0.00069893
0.000732914
0.000713146
0.000733395
0.000256024
0.000748598
0.000736092
0.000237263
0.000192491
0.000561542
0.000362655
0.00047933
0.000320018
0.000411335
0.000203011
0.000429563
0.000298216
0.000432402
0.000544517
0.000477243
0.000426137
0.000234556
0.000245353
0.000320272
0.000136209
0.000143413
0.000130244
0.000118681
0.00014263
0.000100781
0.000114685
6.20601e-05
9.29548e-05
6.73732e-05
4.72518e-05
5.41307e-05
7.6313e-05
0.000104654
5.90584e-05
0.000126526
7.40376e-05
0.000142033
8.21765e-05
0.000119287
0.000168056
5.80095e-05
0.000149769
0.000215066
0.000175855
0.000149371
0.000195184
0.000208922
0.000221422
0.000284313
0.00034726
0.000283299
0.000255813
0.000410894
0.000357707
0.000388138
0.000439277
0.000393842
0.000491672
0.000458355
0.000535287
0.000487104
0.000484265
0.000559035
0.000611353
0.000619947
0.000659494
0.000661272
0.000682132
0.000635635
0.000652179
0.000579117
0.000539701
0.000390275
0.000485585
0.000311753
0.000338071
0.000273618
0.000281505
0.000276366
0.000267197
0.000297718
0.000282713
0.00032364
0.000914226
0.000107397
0.000693618
0.000669686
8.09684e-05
0.000407086
0.000467559
0.000736136
0.000412961
0.000494653
0.000439213
0.000262706
0.00059722
0.00075476
0.000175085
0.000125478
9.60386e-05
0.000246099
0.00023194
0.00019536
0.000344441
0.000290769
0.000234763
0.000257396
0.000143559
0.000125981
0.000164106
0.000228719
0.000179893
6.56913e-05
0.000211942
0.000457924
0.000375243
0.000385763
0
0
0
0
0
0
0
0
3.43201e-05
0
0
0
0
0
0
0
0
2.58535e-07
0
0
0
0
0
0
0
0
0
0
0
0
9.62537e-12
0
0
0
0
0
0
0
0
0
0
0
0
0
0
0
0
0
0
0
0
0
0
0
0
2.15744e-09
0
0
0
0
2.37313e-09
0.000698398
0.000658052
0.000574208
0.00091604
0.000783386
0.000592958
0.000143196
7.42528e-05
3.37191e-05
9.73357e-05
0.000209671
0.000216861
0.000242036
0.000227537
0.000186532
0.000207981
0.00019378
0.000215556
0.000162227
0.00021603
0.000242567
0.000175158
0.000140325
0.000247197
0.00015588
0
0
0
0
0
0
0
0
0
0
0
0
0
0.000278801
0.000336652
0.000350728
0
0
0
0
0.000104292
7.50133e-05
0.00010461
9.39e-05
0.000132839
8.93512e-05
0.00020101
0.000354856
0.000272334
0.000142259
0.000235833
0.000101402
0.000133215
9.97266e-05
0.000169142
0.000146106
0.000201433
0.000140925
8.30204e-05
0.000181905
0.000190581
8.94352e-05
0.000147951
0
2.76043e-10
0
0
0
0
0
0
0
0
0
0
0
0
0
0
0
0
0
0
0
0
0
0
0
0
0
0
0
0
0
0
0
0
0
0
0
0.00017044
0.000203117
0.000193899
0.000114609
0.000153843
8.69744e-05
8.80448e-05
7.28373e-05
6.22643e-05
8.43275e-05
7.4582e-05
0.000160102
0.000139412
8.02855e-05
7.29249e-05
7.36603e-05
8.42393e-05
0.000200093
0.00020812
0.000244411
0.00025741
0.000266853
0.000329559
0.000350904
0.000296828
0.000118677
0.000164337
0.000192608
0.000175038
5.65959e-05
7.30646e-05
8.45436e-05
3.44541e-05
4.75775e-05
0.000136098
9.31909e-05
0.000180549
0.000576042
0.000564222
0.00058965
0.000442274
0.00081708
0.000618181
0.000688227
0.000844158
0.000452026
0.000437284
0.000488183
0.000485745
0.00049818
0.00052208
0.00046275
0.000496328
0.000379304
0.000386359
0.000388986
0.000404556
0.000436695
0.000421816
0.000643191
0.000517658
0.000490739
0.000500769
0.000484154
0.000466357
0.000496025
0.000518794
0.00079188
0.000785869
0.0008924
0.000690858
0.000773761
0.000804741
0.000836508
0.000886624
0.000861515
0.000776261
0.00069623
0.000645478
0.000570965
0.000546492
0.000495747
0.00045706
0.000497533
0.000438663
0.000474346
0.000401716
0.000440575
0.000470467
0.000433527
0.00039095
0.000362599
0.000450722
0.000453783
0.000412248
0.000433743
0.000467815
0.000468279
0.00033582
0.000396983
0.000386168
0.000341784
0.000396623
0.000341621
0.000377611
0.00045032
0.000434223
0.000493134
0.000523193
0.000550915
0.000609803
0.000635195
0.000621943
0.000644461
0.000721031
0.000770007
0.000674946
0.000753358
0.000771249
0.000810316
0.000783456
0.000519071
0.00056268
0.000580384
0.000952596
0.000702323
0.000687132
0.000707685
0.000764726
0.000309347
0.000221765
0.000646849
0.000264841
0.000350402
0.000517751
0.000559499
0.000287431
0.000351648
0.000471996
0.0004015
0.000482509
0.000398901
0.000391758
0.000302714
0.000283975
0.000184159
0.000139141
0.000185954
0.000115848
0.000145892
0.000145002
0.000113261
8.1244e-05
0.000137634
0.000101909
6.47972e-05
9.37419e-05
5.60567e-05
8.36178e-05
5.91243e-05
7.45471e-05
9.72956e-05
5.98659e-05
8.35382e-05
9.07194e-05
0.000105513
0.000112984
0.00017438
0.000103306
0.000162349
4.66438e-05
0.00017703
0.000202327
0.000195463
0.00014162
0.000223678
0.000249162
0.000333916
0.000365997
0.0003062
0.000326978
0.000390958
0.000414104
0.000420915
0.00046777
0.000382654
0.000512709
0.00050609
0.00051236
0.000583446
0.000584462
0.000630263
0.00065731
0.000625496
0.000634976
0.000626295
0.000554282
0.000579492
0.000504836
0.000456452
0.000416388
0.000362574
0.000339174
0.000326192
0.000314064
0.000325583
0.000317292
0.00032299
0.000339174
0.000105169
0.000810104
0.000127254
0.000558829
0.000520891
0.000431309
0.000792595
0.00112644
0.0010371
0.000159931
0.000470246
0.000331459
0.000485593
0.000100779
0.000618393
0.0006988
0.000376214
1.39382e-05
3.25561e-05
0.000135593
0.000175201
0.000364868
0.000217441
0.000131799
0.000196986
5.1468e-06
1.71306e-05
9.86657e-06
7.67666e-05
6.47136e-05
8.80663e-06
8.92471e-05
0.000120842
0.000233075
3.16057e-05
6.19854e-05
0
0
0
0
0
0
3.2776e-07
0
0
0
0
0
0
0
0
1.0894e-06
0
0
0
0
1.2374e-09
0
0
0
0
0
0
0
2.87743e-09
2.50852e-09
0
0
6.16527e-09
9.26496e-09
0
0
0
0
2.88015e-09
0
3.75146e-09
0
0
0
0
0
0
0
0
0
0
0
0
0
0
0
0
0
1.35203e-09
0
0
0
0
0
0
0
0
0.000502714
0.000779535
0.000847716
0.000874185
0.000532557
0.00130682
0.000856451
0.000574495
0.00111086
0.000124384
0.000114942
0.000123424
9.92348e-05
7.6364e-05
0.000139011
0.000123778
0.000105264
0.000151754
0.000130596
0.000175423
0.000184603
0.00017849
0.000221965
0.000141345
0.000168446
0.000219214
0.000144595
0
0
0
0
0
0
0
0.000278738
0.000290178
0.000330321
0
0
0
0
0.000278276
0.000181308
1.46542e-05
0
1.69485e-05
8.20409e-05
0.000138881
0.000102347
0.000218175
7.76016e-06
0.000154751
3.64086e-05
0.000154573
6.35628e-05
0.000339539
0.000260209
0.000256307
0.000161482
0.000164065
4.92531e-05
0.000104626
0.000207202
0.000247123
0.000110073
7.5225e-05
0.000228615
0.000233565
0
0
2.61187e-10
0
0
0
0
2.56716e-10
0
0
0
0
0
0
0
1.80903e-09
0
9.99376e-10
4.37941e-09
0
0
0
0
0
0
0
0
0
0
0
0
6.21067e-09
0
0
0
0
0
0
0
0
0
0
0
0
0
0.000167495
0.000214035
0.000166304
0.000145337
0.000194689
0.000100476
6.86175e-05
3.77951e-05
7.85263e-05
8.1971e-05
8.60049e-05
8.10799e-05
8.96661e-05
0.000104951
0.000103983
7.27019e-05
6.64661e-05
7.82255e-05
6.63177e-05
0.000219556
0.000217925
0.000284105
0.000260579
0.000295963
0.000338227
0.000333372
0.00035293
0.000149208
0.000169223
0.000212133
0.000194532
9.55679e-05
7.90482e-05
0.000161208
0.000109875
0.000129866
0.000221083
0.0002138
0.000146606
0.000490478
0.000641163
0.000551048
0.00083217
0.000610939
0.000346776
0.00101614
0.00113201
0.000846104
0.000962279
0.0010629
0.000867641
0.000585735
0.000699506
0.000466992
0.000453256
0.000491486
0.000480313
0.000537851
0.000493391
0.000610446
0.000541275
0.000403588
0.000423903
0.000420768
0.000429026
0.000452921
0.000441942
0.000650094
0.000515859
0.000511366
0.000490867
0.000493794
0.000485697
0.00050589
0.000495122
0.000842909
0.000868295
0.000816795
0.000730588
0.0008908
0.000800646
0.000875118
0.000925323
0.00066023
0.000779123
0.000549606
0.0006387
0.000551062
0.00049255
0.000500736
0.000465062
0.000453094
0.000474208
0.000462317
0.000428195
0.000447232
0.000473677
0.000379234
0.000398718
0.00046385
0.000463538
0.000438755
0.000419144
0.000469677
0.00047398
0.000406473
0.000379408
0.000387426
0.000417207
0.000400938
0.000418338
0.000431627
0.000466167
0.000466875
0.000499474
0.000543775
0.000583388
0.000587175
0.000669249
0.000623176
0.000651124
0.000717241
0.000748227
0.00072965
0.000783949
0.000829988
0.000862579
0.000835222
0.000913785
0.00079769
0.000657427
0.000628074
0.00087051
0.000798502
0.000579637
0.000527463
0.000336349
0.000485762
0.000278739
0.000347262
0.000557348
0.000254876
0.000321857
0.000526906
0.000474926
0.000528929
0.000373783
0.000361047
0.000192892
0.000262291
5.65384e-05
0.000197183
7.36249e-05
0.000150835
5.71173e-05
0.000128993
0.000155886
0.000137797
8.48383e-05
0.000124219
0.000104316
0.000111352
0.000107915
7.79553e-05
8.84784e-05
6.80056e-05
8.66501e-05
4.45627e-05
7.55091e-05
6.93934e-05
8.58475e-05
5.35766e-05
0.000189914
3.19524e-05
0.000123326
0.000127562
0.000182706
0.000162666
0.000242854
0.000198283
0.000188199
0.000232272
0.000270833
0.000309029
0.000368585
0.000380591
0.00033684
0.000350472
0.000431882
0.000397636
0.000439866
0.00044726
0.000483471
0.00053215
0.000551355
0.000602677
0.000593724
0.000634361
0.000611303
0.000618994
0.000574836
0.000553147
0.000477686
0.000500143
0.000428421
0.000410241
0.000386688
0.000384471
0.000392409
0.000388674
0.000366378
0.00041558
0.000413573
2.89215e-05
1.86178e-05
1.99227e-05
6.44951e-06
0.000452938
0.000892708
0.000422342
0.000511578
0.000628758
0.000664576
0.000405549
0.000420861
0.000186822
0.000130431
0.000511016
0.000604676
5.10319e-05
0.000421652
0.000663148
1.78289e-05
1.20546e-05
0
0
7.34508e-06
0
4.95696e-06
7.97059e-06
0
0
0
0
0
0
0
0
2.29016e-07
0
0
0
0
0
0
7.02207e-07
0
0
0
0
0
0
0
0
0
0
0
0
0
0
0
0
0
0
0
0
0
0
0
0
0
0
0
0
0
0
0
0
0
0
0
0
0
0
0
0
0
0
0
0
0
0
0
0
0
0
0
0
0
0
0
0
0
0
0
0
0
0
0
0
0
0
0
0
0
1.62726e-11
0
0
0
0
0.000824493
0.00109701
0.000919732
0.000582558
0.00020006
0.000697951
0.000593303
0.000549807
0.00137537
0.00123855
0.00130357
0.00122112
0.000264734
0.000506314
0.000510859
9.53477e-05
0.000103366
0.000189917
0.000107736
5.06343e-05
0.000138331
5.84159e-05
0.000175868
0.000106908
0.000180911
0.00016245
0.000147826
0.000175699
0.000160559
0
0
0
0
0.000251773
0.000249001
0.000307842
0
0
0.000280474
0.000161515
0
0
0
0
7.09449e-05
0.000202302
5.82259e-05
1.00799e-05
9.53497e-05
1.88419e-05
0.000145067
7.87125e-05
0.00016602
5.60496e-05
0.000180816
0.000141661
0.000110268
0.000104875
0.000313875
0.000200117
0.000246316
0.000177231
0.000141021
0.000189071
0.000215585
0.000209225
0.000196628
9.8994e-05
0.000148935
0
7.62683e-10
0
0
0
0
0
0
0
0
0
0
0
0
0
7.99089e-05
5.84626e-05
0
0
0
0
0
0
0
0
0
0
0
0
0
0
0
0
0
0
0
2.28032e-09
0
1.22819e-09
0
0
0
0
0
0
0
0
0
0
0
5.01131e-06
0
0
0
0
0
0
0.00014976
0.000154636
0.000191538
0.000211699
0.000141784
0.000143875
8.58675e-05
6.40069e-05
2.86725e-05
7.97673e-05
5.84959e-05
8.21338e-05
0.000111531
0.000108014
5.11649e-05
4.03913e-05
8.12505e-05
3.56982e-05
4.41817e-05
6.62493e-05
5.64243e-05
0.000330787
0.000381656
0.000361488
0.000243637
0.00026206
0.000285039
0.000299535
0.000317708
0.00018361
0.000223357
0.000234599
0.000261935
0.000108314
0.000159614
0.000196536
0.000178588
0.000226635
0.000206359
0.000235577
0.000263975
0.000216797
0.000313785
0.000754559
0.0013487
0.00101161
0.00137091
0.00136348
0.000999668
0.00116538
0.000928254
0.000499863
0.000511616
0.000728775
0.000452736
0.000487086
0.000489279
0.000522642
0.000527546
0.000516293
0.000576529
0.000659304
0.000458239
0.000426333
0.000438093
0.000463367
0.000474615
0.000451283
0.000671818
0.000532906
0.000535494
0.000479917
0.000493716
0.000515781
0.000495699
0.000514773
0.000876743
0.000896334
0.000765488
0.000845106
0.000901142
0.000773915
0.000942963
0.000870858
0.000755037
0.000644923
0.000566648
0.00062658
0.000563716
0.000517349
0.000516846
0.000491804
0.000486991
0.000482994
0.000452769
0.000479728
0.00048269
0.000488297
0.000404912
0.000398219
0.000460211
0.000462351
0.000438953
0.000446982
0.000466343
0.000483879
0.000403739
0.00041153
0.000423304
0.000424312
0.000350344
0.000361559
0.000417873
0.000443173
0.000488775
0.000493514
0.000499247
0.000535343
0.000650357
0.000609961
0.000649082
0.000709151
0.000693493
0.000718744
0.000724183
0.000819444
0.000746665
0.000799827
0.000788263
0.000891896
0.000848039
0.000934141
0.000912472
0.000974926
0.000962331
0.000745075
0.000768805
0.000981263
0.000836813
0.000390697
0.000303576
0.000322128
0.000310787
0.000355694
0.000474548
0.000206172
0.000541304
0.000375386
0.000478306
0.000322477
0.000333572
0.000188012
0.000210281
0.000122117
0.000131797
9.94148e-05
4.46495e-05
9.53562e-05
5.52652e-05
9.56228e-05
0.000114735
0.000123234
0.00015228
0.000129032
0.000135883
9.25633e-05
0.000110508
0.000139254
0.000116123
8.24456e-05
0.000119731
0.000114003
4.7736e-05
6.60616e-05
8.89561e-05
6.20053e-05
8.43247e-05
9.74055e-05
0.000167911
0.000134987
0.000174729
0.000146255
0.000205514
0.000299189
0.000242794
0.000235649
0.000271289
0.000312856
0.000337786
0.000384354
0.000370195
0.000355333
0.000353181
0.000438011
0.000414938
0.000464116
0.000508903
0.000524252
0.000577997
0.000581777
0.000609615
0.000588325
0.000611159
0.000559726
0.000566723
0.000490156
0.000502928
0.000434747
0.000429466
0.000384289
0.000411882
0.000411796
0.000440834
0.000478488
0.000474766
0.000501297
0.000529345
0
0
0
0
0
0
0
0.000376933
0
0.000545801
0.000324962
0.000191897
0.000343117
0.000125367
0.00037637
0.000310061
0.000341402
0.000298222
0.000654846
0.000525659
0.000504731
0
0
0
0
0
0
0
0
0
0
0
0
0
0
7.77434e-07
0
0
0
5.33929e-07
0
0
0
0
0
0
0
0
0
0
0
0
0
0
0
0
0
0
2.63544e-07
0
0
0
0
0
6.64635e-10
8.44207e-10
1.41116e-09
0
0
0
0
0
0
0
0
0
0
0
0
0
0
0
0
0
0
0
0
0
0
0
0
0
0
0
0
0
0
0
0
0
0
0
0
0
0
0
0
0
2.99945e-09
0
6.52616e-10
0
2.28135e-09
0
0
0
0.00066022
0.000935969
0.000956115
0.00114379
0.000946657
0.00108946
0.00106488
0.000481808
0.00102244
0.000701942
0.000427554
0.00105013
0.00144924
0.00117333
0.000961333
0.00123145
0.000918529
0.000770762
0.000824209
6.26281e-05
0.000111333
0.000147632
0.000124874
0.000128009
0.000141536
7.89078e-05
0.000145127