/*--------------------------------*- C++ -*----------------------------------*\
  =========                 |
  \\      /  F ield         | OpenFOAM: The Open Source CFD Toolbox
   \\    /   O peration     | Website:  https://openfoam.org
    \\  /    A nd           | Version:  8
     \\/     M anipulation  |
\*---------------------------------------------------------------------------*/
FoamFile
{
    version     2.0;
    format      ascii;
    class       surfaceScalarField;
    location    "18780";
    object      phi;
}
// * * * * * * * * * * * * * * * * * * * * * * * * * * * * * * * * * * * * * //

dimensions      [0 3 -1 0 0 0 0];

internalField   nonuniform List<scalar> 
788991
(
-0.0577787
-0.00353897
-0.0203426
-0.0372091
-0.0182972
-0.00579866
-0.0158856
0.0288272
-0.0470772
0.044326
-0.00529478
0.0490198
-0.0122407
-0.0601823
-0.0330331
-0.0476459
0.0440473
-0.0463931
-0.0558493
0.0292131
0.00573483
0.00546538
-0.000716874
0.0084711
-0.0126239
0.0229686
-0.0113696
0.040677
-0.0205382
0.0271221
0.00411765
0.023343
0.0330211
-0.0111223
0.0372786
0.0140128
-0.0167698
-0.0258698
-0.016724
0.00965765
-0.0184066
0.0285054
-0.00528027
-0.0325045
-0.0286518
0.0103835
0.0206793
0.0329181
-0.00373042
-0.02281
-0.0211763
0.0326871
-0.0755336
-0.0619979
-0.00132942
0.0332061
0.00571967
0.0129304
0.0205895
0.0486682
0.0345586
0.00744198
-0.0513806
0.00684668
-0.000597576
0.0432178
-0.0287102
-0.0453739
0.0344983
-0.0722086
-0.0669507
0.0159146
0.00417409
0.0276708
0.0360592
-0.031104
0.055935
-0.0247779
0.00511338
0.0341639
0.0431113
-0.0436871
0.0370214
-0.01493
0.00766988
-0.0237788
0.0276528
-0.0397673
-0.0293268
-0.0155258
0.0472198
-0.0122806
-0.0580127
-0.0465238
0.0176909
0.0672991
-0.00744761
0.0865486
-0.0655958
-0.0227239
0.0681307
-0.024142
-0.111042
-0.0857457
-0.0329059
0.0476663
-0.0398078
0.116343
-0.100567
0.0559314
-0.0132478
-0.0714134
-0.105303
-0.101762
-0.0933358
-0.0472634
-0.120727
-0.0783814
-0.0792794
0.105582
0.0606069
-0.130671
0.0631657
-0.0230284
-0.0584663
-0.107288
0.0380766
-0.0332848
-0.0442294
0.0695127
0.0483659
-0.0158829
-0.103666
-0.0316114
0.0749809
-0.0362248
0.0267712
0.0502217
0.0274632
0.0215434
0.0156837
0.00837905
0.0209535
0.0111792
-0.00390368
-0.019612
0.0242697
-0.00773737
0.022381
0.0132578
-0.010529
-0.033849
0.0156784
-0.0190682
0.0331049
0.0110248
-0.0250255
-0.0364499
-0.0687638
0.0199085
-0.032754
0.0593426
-0.0280129
-0.0537171
0.016923
-0.021183
0.0389267
-0.0205087
-0.0487342
0.0206294
-0.0189132
0.038344
-0.0126489
-0.0434311
-0.0228492
-0.0225356
-0.0364724
-0.00268756
-0.038475
-0.020457
-0.0231838
0.0242329
0.00178148
-0.0244311
0.0155681
-0.0178503
0.0152344
0.00423072
-0.0180536
-0.018474
-0.0161906
-0.0156075
0.00806053
-0.021211
0.0239782
-0.0227438
0.0193648
0.00857855
-0.0187429
0.0226678
-0.0280539
-0.0204656
0.00926433
-0.0167021
-0.0236057
-0.0276692
0.0199393
0.0285224
-0.0175664
-0.0352773
-0.0265322
0.00114724
-0.00764746
0.0520875
0.045421
0.00478905
0.0351904
0.0469841
0.0830259
0.00115282
0.080555
0.0895348
0.00307
-0.110596
0.0802451
-0.0235024
-0.126863
0.0364437
-0.0454448
0.116495
-0.0441176
-0.0835766
-0.0869835
-0.070162
-0.140249
0.0624882
-0.0817748
-0.129403
-0.0325237
0.0663701
-0.0518429
-0.0182321
-0.0423075
-0.0716482
0.0140321
-0.03327
-0.0591943
-0.0182734
-0.0235218
-0.0537447
0.0209283
-0.0150392
-0.0473706
0.0217078
-0.00512064
-0.0384931
0.018113
-0.00087771
-0.0252625
-0.0165877
0.00265623
-0.0221576
0.0208016
0.00838671
-0.0218376
-0.0223527
0.0144872
-0.0163939
0.0205306
0.0128227
0.0349532
0.00106864
-0.0288714
-0.00902913
0.0374094
-0.025619
-0.0348477
0.0165148
0.00365521
0.0504252
-0.0324633
0.0566898
-0.0647319
-0.0139126
-0.00765973
0.0311854
0.0434028
-0.0294776
0.0441838
-0.011469
-0.0343354
-0.104699
-0.0745942
-0.0134096
0.0586843
0.00828349
0.0617975
0.0375034
0.0207778
-0.0607058
-0.0038812
-0.00535078
0.0341451
-0.0506784
-0.0256197
-0.0278705
-0.0957238
-0.0926296
0.0274155
0.0133979
-0.0321504
0.0482905
0.0520787
-0.00354389
-0.0466827
-0.0944269
0.168123
0.0408635
0.144877
0.00796126
0.0120911
-0.0820023
0.0134096
-0.0217664
-0.0122804
-0.0247456
-0.0107062
-0.000733346
-0.0174744
-0.0314503
-0.035499
-0.0173046
-0.0383964
-0.0498257
0.0263842
-0.0585491
-0.0663945
-0.027946
-0.0472676
-0.0865524
-0.0427561
-0.00481277
-0.0910217
-0.0785127
0.0204944
-0.0821777
0.082651
0.0430451
-0.064116
0.0939499
0.027681
-0.0546431
0.0739942
0.0266492
-0.0421158
0.0540429
0.159882
-0.0497999
0.0315266
0.0379968
0.0387633
0.10306
0.118349
0.0433232
0.042869
0.06453
-0.0238224
0.031234
0.0288922
0.0216303
0.0245727
0.007155
0.0192774
0.0138436
-0.00832756
-0.022152
0.0310439
-0.00349955
-0.0269675
0.00727486
0.0021083
0.0264762
0.00245485
-0.00772452
-0.0316492
0.0203575
-0.0317662
0.0384754
0.0128975
-0.021205
-0.0279827
0.00871847
-0.0208938
0.0300125
-0.00100079
-0.0239083
0.0234639
-0.00396735
-0.0202818
-0.0137194
-0.0058095
-0.0155608
0.0107024
-0.0542621
-0.0318808
0.0191582
0.0646089
-0.042885
0.0324392
-0.0727133
-0.0288066
-0.0328785
0.0577932
-0.034442
-0.0325043
-0.0216321
0.0239195
0.0297492
-0.0292603
-0.0310544
-0.00734124
-0.0187588
-0.0131343
-0.00560059
-0.0266187
0.019883
-0.00886153
-0.0286189
0.0164557
-0.0281182
-0.0244581
0.00271252
-0.0531362
-0.0202295
-0.0316867
-0.0326245
-0.0796454
-0.0372635
0.0743395
-0.038445
0.00856425
0.00904868
-0.0498245
0.0766255
0.0826713
-0.0643966
0.115926
0.0186747
-0.10394
0.0994805
0.0087443
0.115286
0.0744531
-0.0181049
0.111058
0.00523415
-0.0362806
-0.0802552
-0.0764405
-0.0781559
0.0510338
-0.0989574
-0.125251
0.0289233
-0.0985171
-0.129503
0.00690144
0.0984792
-0.0616831
-0.0108511
-0.0471167
-0.0737845
-0.00894081
-0.0352252
-0.0583669
0.013486
-0.0247882
-0.0506517
0.0191525
-0.0167572
-0.0451622
-0.0188701
-0.00827588
-0.0348812
0.0167343
-0.00199342
-0.0254208
0.01816
0.00362519
-0.0211056
0.0209683
0.00988182
-0.0175865
-0.0212717
0.0202384
-0.0107355
-0.0215933
0.00973514
0.036567
-0.0268172
-0.00503465
0.0353506
0.0243493
0.0162329
0.0536547
0.0291161
0.00704793
0.0479082
-0.0286508
0.0573881
0.0231473
-0.0249319
0.0381583
-0.0614426
0.0363819
0.0266624
0.0292779
0.0586071
-0.0222093
0.0474446
-0.0321927
0.0203283
0.0304393
0.025197
0.0308451
-0.0913879
-0.0146274
-0.0129626
0.0819623
0.0300184
-0.0183318
0.0378359
0.0553762
0.0364513
0.0321408
0.0578468
-0.00644183
-0.120027
-0.0791318
-0.0371565
0.0805391
0.0368093
0.0240794
0.0721535
0.0246048
0.0177484
-0.0331699
-0.00566873
0.000620988
0.0242073
-0.0548865
-0.0296561
0.019785
-0.0821166
-0.0765781
0.0331527
0.0217635
-0.0178396
-0.080531
0.0489917
-0.0339483
0.0756754
0.0612235
-0.00968811
0.0983029
0.0310929
0.0527068
0.011441
0.0233669
0.0337278
-0.351001
-0.0589128
0.193203
-0.0442242
-0.154415
-0.0306429
0.0261818
-0.0888731
0.0780883
-0.0253258
-0.0169261
-0.0226335
-0.0231631
-0.0078087
-0.0206012
-0.0269426
-0.036923
-0.025799
-0.0376562
-0.0516208
-0.0246851
-0.0440784
-0.0707429
0.0375147
-0.0139947
-0.0844937
-0.0616276
0.00550911
-0.0830792
0.0749733
0.0238759
-0.0697741
-0.0769059
0.0189995
-0.0531163
0.0641089
0.0137651
-0.0469563
-0.0485454
0.00817898
-0.0350302
-0.0313789
-3.45753e-07
0
9.99874e-07
0
0
-3.91794e-06
-1.67234e-07
3.07165e-06
7.86998e-07
-7.63282e-07
3.14713e-07
-0.0106153
0.0149245
0
0
0
0.0127719
-0.0057804
0.0390686
-0.0312823
0.0063613
0.101668
0.0289924
0.0114072
0.139005
0.0898266
0.00390041
0.0889207
0.124401
0.00212426
0.0445523
0.0920364
0.0206989
0.0274915
0.0343646
-0.0229617
0.0214714
0.00599371
-0.0193079
0.0373923
0.00152192
0.0231214
0.0253099
0.0119855
-0.0262715
0.0241784
0.00851927
-0.0222982
-0.00368167
-0.00582066
-0.0186767
0.00285233
-0.024155
-0.0150366
-0.000197943
-0.0195491
0.0150147
-0.00626401
-0.0228609
-0.0155841
-0.00727876
-0.0231971
0.0129928
-0.00848655
-0.0177392
0.00860475
-0.0112791
-0.0168758
-0.010717
-0.0524588
-0.0301407
0.0192832
-0.0578229
-0.0411519
0.029766
-0.0281042
-0.0239732
-0.0804654
-0.0718127
0.032251
0.0345007
-0.0470735
-0.0501392
0.0303168
0.0143828
-0.00910321
-0.0219661
-0.0170084
-0.0111322
-0.025652
-0.0173554
-0.0211281
-0.0258849
-0.0113922
-0.0173321
-0.0292597
0.0160056
-0.05371
-0.0338095
0.0183768
-0.032064
0.014523
0.0133518
0.0390502
-0.0776082
-0.0423988
0.0317021
-0.0568244
-0.040623
0.0241831
-0.0534059
-0.0401732
0.0177741
-0.0461419
-0.0732021
-0.026782
0.0249523
0.0343995
-0.0631461
0.113913
0.030567
-0.0910409
0.13033
0.120942
-0.0967401
0.119129
0.0313847
-0.107597
0.0899369
0.0224125
0.0918937
0.0361887
0.00254138
0.0527446
-0.0255913
-0.0178377
-0.0215461
-0.0964463
-0.0495697
-0.00278235
-0.133048
-0.0969467
-0.0110017
-0.109205
-0.118718
0.0270121
-0.122808
-0.0712155
0.00744305
-0.0442819
-0.0626445
0.00298007
-0.0331581
-0.0418911
0.00929959
-0.0233129
-0.0441586
0.0145154
-0.0165479
-0.0372992
0.0155123
-0.00897592
-0.0302303
0.015222
-0.00141745
-0.0219224
0.0176649
0.00593954
-0.0152945
-0.019525
0.0128791
-0.0105867
0.0196621
0.0208956
-0.00905404
0.0216074
0.00580953
0.0352975
-0.0247984
-0.00361628
0.0316563
-0.0242189
0.0155749
0.0504173
-0.0237668
0.00764909
0.0429836
0.0246055
0.05182
0.022097
0.0196376
0.0332899
0.0484161
-0.0213668
0.0289449
0.0497676
-0.0190023
0.0456552
0.0278169
-0.0254099
0.0528802
0.0164695
0.0317412
0.0718842
0.0294645
0.0132593
0.036001
-0.0238846
-0.110726
0.0541659
-0.0241472
0.0581183
-0.00683139
-0.0296719
0.104698
0.0297823
-0.0576715
0.0894122
0.0489845
-0.0586296
-0.117928
-0.0723898
-0.0635715
0.0491205
-0.0448678
-0.0834153
0.0239998
-0.0200252
-0.0472256
-0.00857081
-0.00776312
-0.0257022
-0.0492246
-0.0374702
0.0278406
-0.0691178
-0.0868139
0.0523723
0.0419358
-0.0960681
-0.115951
0.0991453
-0.0341623
0.0999521
0.0312014
-0.0155727
-0.064362
0.0009905
0
0
0
0
0
-0.516876
0
-0.286026
-0.0103737
-0.190604
-0.0182105
0.0311696
-0.18738
0.110931
0
0
0
0
0
0
0
0
0
6.12325e-06
0
3.8423e-06
0
-2.03517e-05
-2.12494e-05
-1.06898e-05
0
1.2715e-05
-4.16543e-05
1.20078e-05
0
1.7749e-05
0
0
0
0
0
0
0
0
0
0
0
0
0
0
0
0
0
-0.0295559
-0.00539949
0.0261412
-0.0171951
-0.00368498
-0.0203308
-0.0231044
-0.0391851
-0.0247693
-0.0352255
-0.0551515
0.0281879
-0.0195298
-0.0730481
0.0554378
-0.0101428
-0.0757157
-0.0596018
0.00928862
-0.0717449
0.0651287
0.00691999
-0.0547669
0.0516651
-0.000683207
-0.0471678
-0.0432796
-0.00509701
-0.036748
0.0239605
-0.0102537
0.00702823
-0.0271808
0
0
0
0
0
0
0
0
0
2.99219e-06
0
0
0
0
0
0
0
0
0
0
0
0
0
0
0
0
0
0
0
0
0
0
0
0
0
-0.078291
0
0.0999244
0.0523688
-0.0186343
-0.0343231
0.0637696
0.0230181
0.00909683
0.104734
0.0634677
-0.00575909
0.0963021
0.101809
-0.0123474
0.0463701
0.0854191
0.0177744
0.0262916
0.0324143
0.0169745
0.0286572
0.0132995
-0.016958
0.0355088
0.0164066
-0.0203416
0.0312507
0.0141904
0.0238632
0.00754312
0.00979756
-0.0137855
0.00263467
-0.00919624
0.0209239
1.74504e-05
0
0
-4.73106e-05
-1.40147e-06
0
0
2.01955e-05
0
0
0
0
0
0
0
0
0
0
0
0
0
0
-0.0112274
-0.0201897
-0.000546017
-0.0147598
-0.0217888
-0.00314521
-0.012453
-0.0257727
0.00679529
-0.00964505
-0.0229243
0.00589716
-0.0122895
-0.0186644
0.00729269
-0.0107351
-0.0202731
-0.0153344
-0.0519098
-0.0309574
-0.0144588
-0.0400236
-0.0344321
0.00269309
-0.0722566
-0.0400506
0.0241647
-0.076482
-0.0518038
-0.0211465
-0.0463196
-0.0278047
-0.0114247
-0.0472645
-0.0320429
0.0100139
-0.00994941
-0.0228283
0.0169827
-0.0119709
-0.025698
-0.0158604
-0.0107481
-0.0307489
0.015339
-0.0372603
-0.0266497
0.00504244
-0.0418818
0.0876463
0.0318009
-0.0349781
0.0437141
-0.0461309
-0.0878716
-0.043273
0.0532092
-0.0317616
0.0892289
-0.0382508
0.0521756
-0.0796211
-0.0427506
0.0321921
-0.0938979
-0.0485452
0.0469882
-0.0607146
-0.0496478
-0.0222451
-0.0759778
-0.0448441
-0.032764
-0.0556729
-0.0738969
0.0247627
0.0500839
0.0448484
0.0754125
-0.119423
0.0456274
-0.0821706
-0.138348
0.137902
-0.100742
0.114363
0.0470301
0.081069
0.0521312
0.0433076
-0.03194
0.00295947
0.0257328
0.0100924
-0.0486291
0.00966796
0.0279854
-0.109435
-0.0240968
-0.0453876
-0.142903
-0.0621075
-0.0531437
-0.0902604
-0.083885
0.0531136
-0.115239
-0.0671937
0.0258923
-0.0372697
-0.0438415
-0.00447145
-0.0274154
-0.0356471
-0.00589514
-0.0206273
-0.0326482
0.0125504
-0.0154018
-0.0330562
-0.0121242
-0.00739544
-0.0249377
0.0119866
0.00236442
-0.0160331
-0.0137514
0.0101042
-0.0095339
0.016732
0.0145623
-0.00863671
-0.0208018
0.0188373
-0.00926731
-0.0222506
0.00444295
0.0329025
-0.0224209
-0.0046032
0.026959
0.022547
0.0177816
0.046877
-0.0195195
0.00950883
0.040488
-0.0181929
0.0486668
0.0246262
-0.0157733
0.0323428
0.0475416
-0.0220229
0.0305882
0.04894
-0.0187652
0.047713
0.0269246
-0.0278975
0.0519376
0.0198192
-0.0313216
0.0729216
0.0206628
-0.0312094
0.0862177
0.0418872
0.027346
0.0875081
0.0570847
0.057118
-0.0271723
0.0345111
-0.0330583
0.0991114
-0.0597273
0.0571329
0.0981406
0.0572737
0.087285
0.05507
-0.0380608
0.0995097
-0.0452398
-0.0535683
0.0555842
-0.0427011
0.102169
-0.0463499
0.061317
0.0546014
-0.0391327
0.0966179
-0.0402847
0.0702701
0.0622052
0.029079
-0.0720236
-0.0265205
0.0598121
0.0677576
-0.0147187
0.0505587
-0.0140061
0.0466068
0.0555784
-0.00377312
0.0410056
-0.00648978
-0.0428679
0.0438037
0.00283972
-0.00117459
0.0366719
-0.0430573
0.0406557
-0.00630114
-0.0723899
-0.133933
0.0919994
0.0129656
0.0241736
-0.0672626
0.0322659
0.0942535
-0.0159514
-0.0626641
0.109211
0.0261
0.0872525
0.124561
0.0445316
0.0792905
-0.122214
-0.0503833
0.0637438
0.0190598
-0.0367951
-0.0651009
0.0117453
-0.017616
-0.0324649
-0.00958898
-0.00517678
0.0247484
-0.0443396
-0.0441001
0.0393105
-0.0684267
-0.0872075
-0.0535558
0.108664
-0.0466563
0.105361
0.0396499
-0.0266182
0.0544679
0.0166726
-0.0180307
0.0386041
0
0
0
0
0
0
-0.297236
0
0
-0.0534746
0.115781
0.00297973
0.105147
0.042574
0.0211731
0
0
0
0
0
0
0
9.19071e-05
1.64761e-05
0
0
0
0
0
0
0
0
0
0
0
0
-5.7464e-05
0
0
0
0
0
-2.61631e-05
1.19278e-05
0
-2.91719e-05
0
1.47325e-05
0
0
0
-1.2388e-05
0
0
0
-9.74175e-07
-1.74897e-05
6.13959e-06
4.79093e-05
0.00017343
-0.000115033
-8.76866e-06
0
0.000210922
-0.000380475
0
5.57847e-07
0
7.80256e-05
0
0
0
0
0
0
0
0
0
0
0
0
0
0
0
0
0
0
0
0
0
0
0
0
-0.0277538
-0.00616063
-0.0198163
-0.0154428
-0.00327089
0.0190381
-0.0240952
-0.0398231
0.0245815
-0.0223814
-0.0572844
-0.0414514
-0.0173847
-0.0683962
-0.0465054
-0.00126323
-0.0644675
0.0543739
-0.00464237
-0.0555594
0.0447722
-0.022924
-0.022646
0.00645986
-0.0254013
-0.0104021
-0.0476895
0.0333961
-0.016311
-0.0395098
0.0249046
0.00479214
-0.0315473
0
0
0
-2.70799e-05
2.66012e-05
5.42983e-05
0
0
0
0
0
0
4.01798e-05
0
-1.47903e-05
0
0
0
0
0
0
0
0
0
0
0
0
0
0
0
-0.00161087
0.0854354
0.052285
0.0311111
-0.0335023
-0.0432797
0.0478121
0.000747471
0.0105516
0.116169
0.0316841
-0.0341061
0.09124
0.0791034
0.0243197
0.0445426
0.0663834
-0.0141575
0.0323386
0.024605
-0.0119656
0.0267603
0.0150609
-0.0170658
0.0347707
0.0166014
0.0163546
0.0139463
0.018474
0.0189394
0.00072699
0.00710809
-0.0115422
0.00544924
-0.00817481
-0.00138973
0
0
0
0
0
0
0
-5.02551e-07
0
2.80923e-07
0
-4.91128e-07
-7.47332e-08
0
0
0
0
0
0
0
0
0
0
0
0
0
0
0
0
0
0
0
0
0
0
0.00492576
0
0.0124051
-0.0247987
-0.0242097
-0.00850122
-0.02236
-0.027843
-0.00180025
-0.0151523
-0.0274618
0.00192909
-0.0125243
-0.0224403
-2.21609e-06
-0.00924365
-0.0207462
0.00621018
-0.00597567
-0.0201134
0.0114322
-0.0374631
-0.0329212
-0.00321794
-0.068008
-0.0324998
0.0214048
-0.0710063
-0.0495139
-0.0175587
-0.0723878
-0.0569907
0.0160315
-0.0445525
-0.0246274
0.0103278
-0.037391
-0.0304684
-0.00144709
-0.00218298
-0.0181979
0.012249
-0.000690099
-0.0221607
0.0175108
-0.0131562
-0.0247916
-0.0105979
-0.0250538
-0.0191971
-0.000743696
-0.0358849
-0.0963146
-0.0564486
-0.0459221
-0.0910663
-0.044377
-0.0496511
-0.0914523
-0.0423829
-0.0924648
-0.0434502
-0.0508966
-0.042544
-0.10406
0.0562575
-0.0377341
-0.105417
-0.0576569
-0.110358
-0.0505091
-0.0592344
-0.111049
-0.0495346
0.0724038
-0.0872087
-0.0377502
-0.0600497
-0.0637288
-0.0256378
-0.0482176
-0.0512274
-0.016008
0.0425911
-0.0462397
-0.00949481
0.0445438
0.00390119
0.0405767
-0.010728
-0.030751
0.0436049
-0.00343256
-0.0410385
-0.047191
-0.0994922
-0.0488188
-0.04862
-0.0951091
-0.0517124
0.0450129
-0.074124
-0.0493158
-0.0400286
-0.0961361
-0.0483933
-0.042653
-0.0568824
-0.0863732
0.029661
0.0619833
0.0641988
-0.0672242
0.135788
0.056296
-0.062361
0.126115
0.131444
-0.0711611
0.078371
0.0617051
0.0282463
0.0177633
0.0522149
0.0213228
-0.0198684
0.0403545
-0.0488391
-0.0715258
0.0233832
0.0622559
-0.12281
-0.0108407
-0.0910036
-0.14134
-0.0323223
0.0976127
-0.0612146
-0.0535754
-0.0553178
-0.0883659
-0.0512527
0.0259204
-0.0300032
-0.0289961
-0.000669177
-0.0242656
-0.0291254
0.00753368
-0.0181229
-0.0331599
-0.0105637
-0.01208
-0.0254279
0.0090357
-0.00309598
-0.0197078
-0.00812187
0.00481201
-0.0112386
0.0111082
0.00887751
-0.00862827
-0.0169855
0.0129122
-0.00797006
0.0217128
0.018108
-0.0064711
-0.0211245
0.00849018
0.0308242
-0.0179453
-0.00093896
0.0256878
0.016448
0.0209115
0.0451461
0.0135124
0.0148095
0.0383199
-0.0116689
0.0454333
0.0285928
-0.0138692
0.0322486
0.0525121
-0.0248663
0.030754
0.0524333
0.0192866
0.053705
0.0330695
-0.0297638
0.0574523
0.0285931
0.0296487
0.0729748
0.0319323
-0.0249076
0.0802816
0.0500994
-0.0233094
0.0284997
0.0563736
0.0897533
0.0815553
0.0537966
0.0319889
0.0963866
0.0544426
-0.0383723
0.0955628
0.0574
-0.0374008
0.0925967
0.0593271
-0.0313374
0.0826845
0.0628275
-0.0195065
0.0566577
0.0636638
-0.0058088
0.0379377
0.0496608
0.00584604
0.0311509
0.0420774
-0.0113649
0.0274438
0.0404253
0.0142437
0.0220427
0.0406466
0.0404386
0.0189236
0.0196789
0.0186616
0.0461112
0.0408935
-0.0269393
-0.0131335
0.0282142
0.0500717
0.0358664
0.0476504
-0.116126
-0.116506
-0.0368492
-0.0235202
-0.044187
-0.133021
0.0298724
0.042387
-0.0697941
-0.0613638
0.105984
-0.0109806
0.102321
0.121811
0.0105317
-0.0796733
0.135718
0.0441242
-0.0666419
-0.125781
-0.065148
0.0880614
0.00306227
-0.0123354
0.00104964
0.0105003
0.0336835
0.00332446
-0.00972278
0.0105367
0.0224216
-0.0422406
0.014875
-0.0535631
-0.0290533
0.0190196
0.0497037
0.047165
-0.0491715
-0.115913
0.024911
0.0259189
-0.0465147
-0.0089509
-0.0179691
-0.029811
0
0
0
0
0
0
0.0123932
0
0
-0.137668
0
0
-0.0655199
0
-0.129823
0
1.01726e-05
0.000131162
0
0
0
0
6.56419e-05
0
0
0
0
0
0
0
0
1.71482e-09
-5.99252e-07
0
0
0
0
0
0
0
0
0
0
-4.63563e-06
0
0
0
0
-1.97473e-05
0
0
-9.57879e-05
-0.00012435
-0.000136071
0
0
0
0
0
0
0
0
0
0
0
0
0
0
0
0
0
0
0
0
0
0
6.0133e-07
0
0
0
0
-0.0249416
-0.0154733
-0.0173832
-0.00642723
-0.00610689
0.0112137
-0.0129388
-0.0344309
0.0276292
-0.0186775
-0.051339
0.0380553
-0.00933033
-0.0548502
0.041543
-0.0129859
-0.0523519
-0.0318834
-0.0139473
-0.0424286
-0.0252058
-0.0315065
-0.0366017
0.0157386
-0.0300729
-0.0291948
-0.00534755
0.0299937
-0.0229224
-0.0386573
0.0219374
0.00484188
-0.0331029
-3.26009e-05
0
-9.27168e-06
6.45755e-05
-1.16133e-05
-1.14669e-06
0
0
0
0
0
0
0
0
0
0
0
0
0
0
0
0
0
0
0
0
0
0.0256003
0
0.123147
-0.0441158
0.0763157
0.00431927
0.00786525
0.0151985
-0.0150529
0.0870261
-0.00100525
-0.0359183
0.116511
-0.0451235
0.0344088
0.0754267
0.0705315
0.0228787
0.0392754
0.0557597
-0.0158962
0.0365518
0.0258614
-0.0136715
0.038643
0.0183514
0.0153165
0.0249603
0.0225121
-0.013424
0.0126935
0.0133966
-0.00838055
0.00477984
0.00396078
-0.0060732
-0.000574112
0.0066086
0.00864169
0
0
0
0
0
0
0
0
0
0
2.82831e-07
0
0
0
0
0
0
0
0
-0.00754363
0
0
0
0
0
0
0
0
0
0
-0.00937987
0
0.00282677
0
0
0
0
0
0
0
0
0
0
-0.00657483
0
-0.0347611
-0.030521
-0.0103955
-0.0250194
-0.0287933
0.000600101
-0.0174409
-0.0235207
-0.00144894
-0.0118679
-0.0201138
-0.00133964
-0.0436101
-0.0340237
-0.0438695
0.0160924
-0.00944913
-0.0187623
0.00620171
-0.00731882
-0.0158969
-0.00477484
-0.0548874
-0.0348673
-0.0119652
-0.0674147
-0.0444224
0.0124905
-0.0665356
-0.0565849
-0.00743923
-0.0797457
-0.0599521
-0.0206619
-0.0296115
-0.0228167
-0.000145514
-0.0446133
-0.033316
0.00354868
-0.00408454
-0.0147464
0.00812806
-0.00787888
-0.0186436
-0.00779402
-0.00670687
-0.0164217
0.00806249
-0.015021
-0.0173108
-0.00849696
-0.0241998
-0.02446
0.0352301
-0.0742832
0.0547867
-0.0422351
-0.0166059
0.0353266
0.0727756
0.0609727
-0.0652843
0.0652137
-0.0759454
-0.000608143
0.0661053
0.0516232
0.000715306
0.0385878
0.0508375
-0.0455689
0.0466867
-0.00563638
0.0462844
-0.0567401
0.0490359
0.0609458
-0.0100204
0.0611653
-0.0614044
0.0550464
-0.0718591
0.0767202
-0.0745447
-0.0233053
0.0619997
0.0734165
-0.0265332
0.01127
0.0465166
-0.0200848
0.0200317
-0.0494873
-0.00736191
0.0303873
0.0478939
-0.0406501
-0.0986924
-0.0517204
-0.0487938
-0.093243
-0.04446
-0.053566
-0.0931774
0.0414671
-0.0916931
-0.0468602
-0.0445618
-0.0482367
-0.113918
0.0622725
-0.0446802
-0.116028
0.049872
-0.124778
-0.0524311
0.0778339
-0.0976565
-0.0476602
0.06003
-0.0730943
-0.038446
0.0450404
-0.0588771
-0.0271188
0.0403453
-0.0539507
-0.019131
0.0426342
-0.0510154
-0.0116511
0.0479425
0.00403237
-0.0352393
0.0493569
-0.00342354
-0.0456217
0.0512118
-0.0504099
-0.099339
-0.0418984
-0.089332
-0.0428997
-0.0951322
0.0402231
-0.0969928
-0.0566216
-0.0418502
-0.0574603
-0.0523574
0.00597152
-0.0583709
-0.0664896
-0.0194372
0.00628918
0.0131013
0.0487828
0.0436193
-0.00922248
0.0504076
-0.052969
0.000593654
0.0459655
0.0631428
-0.00471075
0.0633386
0.0702413
-0.0396117
0.0638611
0.0691144
-0.0297872
0.0427128
0.076039
-0.0135862
0.0387473
0.0829206
0.0702066
-0.0160287
0.0624557
0.0816205
0.0854106
0.0784413
0.0454948
0.139549
0.0720996
-0.0452742
0.120769
0.0953432
-0.0344799
0.0404578
0.0622915
0.0135261
-0.00546121
0.0623515
-0.0647058
-0.0424921
0.0602496
-0.0741728
-0.109035
0.0311132
-0.099984
-0.134672
-0.00865113
0.12838
-0.118774
-0.0130987
-0.0966835
-0.040928
-0.038333
-0.0369637
-0.0612756
-0.0320934
0.0122763
-0.0264214
-0.0239413
-0.00439765
-0.0225488
-0.0345782
0.00782636
-0.0159286
0.00424108
-0.0273099
-0.00910665
-0.0201529
0.00596939
-0.00216613
-0.0151958
-0.00681477
0.00412533
-0.0089847
-0.0118476
0.00827152
-0.00793598
0.0164867
0.0117612
-0.00889129
0.019167
0.0178142
-0.0013961
0.016226
0.0121736
0.0296992
-0.011302
0.00355927
0.0262157
-0.00883898
0.0243302
0.0402782
0.0096437
0.0188297
0.0355808
-0.00781431
0.0442509
0.0276162
-0.0120988
0.0364852
0.0625229
-0.0243388
0.0320752
0.0560508
0.0164895
0.061436
0.039949
0.0271686
0.0624194
0.0359082
-0.0263489
0.0727103
0.0381981
-0.0229687
0.0270355
0.0504911
0.0839364
0.0734389
0.0423196
0.0285373
0.0908894
0.0538688
-0.0343314
0.0962414
0.0556109
-0.0353042
0.0915297
0.0606568
-0.0308802
0.0825325
0.0594931
0.0225715
0.0671869
0.0597532
-0.0107035
0.0413535
0.0562774
-0.00417596
0.0282116
0.0452626
-0.0161837
0.0243787
0.044347
0.0209306
0.0206959
0.0449636
-0.0233426
0.014586
0.0435568
-0.0278238
-0.0350548
0.0422797
-0.0295549
-0.169633
0.14814
-0.00088798
-0.126401
-0.0132437
0.0200676
-0.0132143
-0.137831
0.0345208
0.0827971
-0.0399726
0.127823
0.0826948
-0.0316553
-0.0818734
0.117562
0.0121464
0.0717747
0.133585
0.0536824
-0.0377645
0.0152215
-0.0129163
-0.0182421
0.0209745
0.0140071
0.0498735
-0.0153146
0.0700542
-0.0321604
-0.0611149
0.0253404
-0.0533481
-0.0592474
0.0252029
-0.0746904
0.00342258
0.01445
0.00114879
0.00479818
0.110796
0.188105
-0.150839
-0.0160873
0.147093
-0.0851103
-0.0147768
0.0322796
-0.0651651
0
0
0
0
0
0
0
0
0
0
0
0
-0.0291376
0
-0.0304645
0
0
0
0
0
0
0
0
0
0
0.00311842
0.00190147
0
0
0
0
0
0
0
0
0
0
0
0
0
0
0
0
0
0
0
-1.98035e-07
-4.17584e-08
-0.00026646
0
0
0
0
0
0
0
0
0
0
0
0
0
0
0
0
0
0
0
0
0
0
0
0
0
0
0
0
0
0
0
0
7.97825e-06
0
-3.58052e-05
0
0
0
-6.57276e-06
0
1.39986e-05
0.0745707
0.0607902
-0.062048
0.00278036
0.0653819
-0.0772637
0.0575855
-0.0274926
-0.0100414
-0.00747218
0.0117322
-0.00703177
0.00757932
-0.00525432
-0.018961
-0.0274653
0.0190436
-0.0132061
-0.0402523
-0.0288271
-0.0151491
-0.0399142
0.0171404
-0.0186216
-0.036271
0.0177959
-0.0216604
-0.0328267
-0.00990155
-0.0367847
-0.0164182
-0.0333735
-0.0302022
-0.00356212
0.0327599
-0.0319196
0.0069496
2.17295e-06
0
0
0
0
0
0
0
0
0
0
0
0
0
0
0
0
0
0
0
0.095182
0.102267
-0.0374827
0.0440861
0
0
0
0
0
0
-0.0361659
0.0540134
-0.0576284
0.00418041
-0.0174284
-0.0294149
0.0622404
0.000764918
0.0248332
0.0423742
0.0111457
0.0684124
0.0675145
-0.0212034
0.0372052
0.0421821
0.0121472
0.00515631
-0.000602117
-0.00147464
0.00534491
0.0348888
0.0194897
-0.0115775
0.0333288
0.0232322
-0.0125396
0.0214159
0.0121741
0.0057208
0.0191382
0.0153033
0.000230554
0.0115409
0.00744305
0
0
9.11039e-06
8.29485e-07
0
0
0
0
0
0
0
0
0
0
0
0
0
0
0
0
0
0
0
0
0
0
0
0
0
0
0
0
0
0
0
0
0
0
0
0
0
0
0
0
0
0
0
0
0
0
0
0
0
0
-0.0446044
-0.0460179
-0.0349441
-0.0164424
-0.0326877
-0.0291459
-0.00401153
-0.0217041
-0.0210952
0.00297129
-0.0161114
-0.0186538
0.00818923
-0.0165283
-0.0205334
-0.0110286
-0.0309391
-0.0353229
0.0101376
-0.0213288
-0.0199388
0.00314658
-0.0209268
-0.0163699
0.00481082
-0.0570171
-0.0433539
-0.00409409
-0.065242
-0.0551677
0.000613745
-0.078144
-0.0637233
-0.0106169
-0.0769693
-0.0612679
0.0151015
-0.0391786
-0.0310607
0.00450108
-0.0478733
-0.04404
-0.00662276
-0.0240085
-0.0184202
0.00757
-0.0144044
-0.019013
0.00473977
-0.00784428
-0.0192945
0.00374164
-0.0310372
-0.0353559
0.0086785
0.0286092
0.0498179
0.0458059
-0.00309103
0.0703669
0.0503071
0.000977648
0.0639422
-0.0653677
0.0359628
0.0845685
-0.0676155
-0.0112513
0.0411693
-0.0593962
-0.0193699
0.04808
0.0731599
-0.0154156
0.0538887
-0.0731352
-0.0021164
0.052978
-0.0501965
-0.0283642
0.0122872
-0.050948
-0.0161952
0.0216402
0.0496714
-0.0186782
0.0323447
-0.0588922
-0.0443339
-0.0991342
-0.0434937
-0.0520937
-0.0881911
0.0376444
-0.0564091
-0.0916308
-0.0368506
-0.0845861
-0.0504023
0.0336166
-0.0676784
-0.135381
0.0962383
0.0288667
-0.0526406
-0.098291
0.0382599
-0.0406565
-0.110181
-0.0644426
-0.0696643
-0.108029
0.0511973
-0.0831367
-0.0479821
0.0464385
-0.0659708
-0.0381919
0.0381793
-0.0601801
-0.0283762
0.039891
-0.0581036
-0.0203561
-0.045314
-0.0536426
-0.0117822
-0.0490553
0.00480756
-0.0380949
-0.0532029
-0.00366115
-0.0485001
0.0531641
-0.0873886
-0.0475263
0.0353142
-0.0572314
-0.0997639
0.0409799
-0.055853
-0.104704
0.0418371
-0.0943934
-0.0599871
0.037476
-0.0476624
-0.0875229
-0.0403789
-0.0554996
-0.0930335
0.0419335
0.00646238
0.00767877
0.0456717
-0.0445711
-0.000556699
0.0515728
-0.051979
-0.0160349
0.0609936
0.0523616
-0.00607382
0.045656
0.0688691
-0.00539789
0.0663914
-0.0749053
-0.0412096
0.0648663
0.0798184
-0.0474933
0.0390263
-0.0801626
-0.0158153
0.042503
0.0864886
-0.0143042
0.0676896
-0.0874921
-0.00629168
0.0570735
-0.021448
0.0692901
-0.0105338
0.0616046
0.0752446
0.0968338
0.0949297
0.0907147
-0.0245561
0.119779
0.0804986
-0.029679
-0.104672
0.065791
-0.0103342
0.00816621
0.0653074
0.0630457
-0.0243452
0.0814539
-0.10894
-0.0785669
0.0777501
0.123913
-0.129429
0.0320057
0.137328
-0.100063
-0.00535099
-0.104919
-0.0782387
0.00223954
0.0615937
-0.0337631
-0.0204775
-0.00583959
-0.0414887
-0.0272567
-0.00450993
-0.0286786
-0.0335953
0.0104948
-0.0234987
-0.011547
-0.0103004
-0.0402765
-0.00957375
-0.0136523
-0.00863865
-0.020226
0.00696412
-0.0021553
-0.0168491
0.0075821
0.00251138
-0.0117311
-0.0124119
0.00765514
-0.00740199
0.0162661
0.0134569
-0.00410621
-0.0116659
0.0137747
0.00149381
-0.010064
0.0141892
0.0294738
0.00756794
0.00107196
0.0246946
0.00929751
0.0243043
0.0383462
-0.00872324
0.0180579
0.0341325
0.00699974
0.0477998
0.0290771
-0.0104329
0.0411616
0.0643343
-0.0210091
0.0388454
0.0597889
-0.0145737
0.0628623
0.0430477
-0.0237893
0.0603883
0.0370498
-0.0298781
0.0307888
0.0276496
0.0707252
0.0559115
-0.0178474
0.087472
0.051485
-0.0293152
0.0906672
0.0559771
-0.0307742
0.0912136
0.0584111
0.0280591
0.0806261
0.0599399
-0.0225116
0.0693328
0.0552051
0.0132568
0.0504166
0.0545706
-0.000787143
0.0282953
0.0497469
0.0164228
0.0218831
0.0458679
0.0275578
0.0197867
0.0504266
-0.0320791
0.0156623
0.0515357
-0.0334672
-0.0378142
0.0495125
-0.220653
-2.89142e-06
0.0288594
-0.0292207
-0.003681
-0.213555
-0.074182
-0.106732
-0.0753449
0.0981339
0.0942476
0.19236
-0.210249
0.0522771
-0.102895
-0.0855871
0.103456
-0.0251436
0.0913013
0.109798
0.0326759
0.0479683
0.123031
0.0691716
-0.018105
-0.0823117
-0.0301267
-0.0114427
0.0285249
0.0552654
0.0335786
-0.0446685
0.0904514
-0.132761
-0.103182
0.0491086
0.11701
-0.0648533
-0.0156003
0.0434632
-0.0345145
-0.00928278
-0.00361222
-0.0401599
0.0154947
0.000469943
0.060227
0.0775901
-0.010445
0.0732145
0.133376
0.0335139
-0.120639
0.0566586
0
0
0
0
0
0
0
0
0
0
0.0038554
-0.00318078
-0.0315069
0
0
0
0
0
0
0
0
-0.0129827
0
-0.00263434
0
-0.0206552
0
0
0
0
4.74335e-06
0
-2.78452e-05
0
0
0
0
0
0
0
0
0
5.53537e-05
-9.0813e-05
0.000195795
0
-5.57817e-05
0
-0.000267491
0.000114901
-0.000500934
0
-0.000114998
0
0
0
0
7.43318e-06
0
-5.44459e-05
0
-8.91431e-06
-1.66173e-05
0
0
0
0
0
0
0
0
0
0
0
0
0
0
0
0
0
0
0
0
0
-3.87079e-06
0
5.76709e-06
0
0
0
-3.64278e-05
0
0
0
0
0
0
0
0
0.0728458
0.0663619
0.0451631
-0.00485152
0.0860696
0.0970824
-0.00371589
0.0674374
0.052708
0.0853618
-0.0301477
-0.0960387
0.0384571
0.0110681
-0.00959553
-0.00777394
-0.00809721
-0.0052171
-0.0102063
0.00809845
-0.0143956
-0.0187651
0.00113051
-0.0182664
-0.0185913
-0.00895207
-0.0210453
-0.022071
0.00611798
-0.0213176
-0.0241275
0.00740001
-0.0303508
-0.0279343
7.67454e-06
-0.0359027
-0.0135063
0.0329392
-0.0312198
-0.00372781
0
0
0
0
0
0
0
0
0
0
0
0.0902566
0.0804735
0.0279539
0.0496056
0
0
0
0
0
0
0.0645205
0.038267
-0.0324291
0.0341366
0
-0.0169762
-0.0115274
0.073037
0.0672308
-9.90609e-05
-0.0245979
0.0360991
0.0159781
-0.0160885
-0.0321531
0.0374625
0.0242749
0.0101528
0.000332977
-0.0164103
-0.0131801
0.0517042
0.0568802
-0.018699
0.0329184
0.0375643
-0.0138835
0.0152992
-0.00473581
-0.0175438
0.0218989
0.0199151
0.0108324
0.0234463
0.0160042
-0.00579308
0.011652
0.0219894
0.00495657
-0.00357306
0.017247
-7.38973e-08
0
0
7.00502e-07
0
-7.65672e-06
0
0
0
0
7.32339e-06
0
-9.38607e-07
0
8.26169e-06
0
0
0
0
0
0
0
6.741e-05
0
2.20664e-05
4.84067e-05
6.04689e-05
0.000148799
0
0
0
0
0
0
0
0
0
0
0
0
0
0
0
0.000156979
4.17496e-05
0
0
0
0
0
0
0
0
0
0
0
0
0
0.000197998
0
0
0
0
0.000159326
0
0
-0.0455565
-0.0423051
0.0324992
-0.013218
-0.0379945
-0.0349938