/*--------------------------------*- C++ -*----------------------------------*\
  =========                 |
  \\      /  F ield         | OpenFOAM: The Open Source CFD Toolbox
   \\    /   O peration     | Website:  https://openfoam.org
    \\  /    A nd           | Version:  8
     \\/     M anipulation  |
\*---------------------------------------------------------------------------*/
FoamFile
{
    version     2.0;
    format      ascii;
    class       volScalarField;
    location    "11760";
    object      Hclip;
}
// * * * * * * * * * * * * * * * * * * * * * * * * * * * * * * * * * * * * * //

dimensions      [0 1 0 0 0 0 0];

internalField   nonuniform List<scalar> 
526318
(
0.676436
0.639791
0.717948
0.624367
0.689956
0.647823
0.667353
0.580838
0.64602
0.516642
0.508833
0.621128
0.568289
0.609543
0.573333
0.596237
0.566989
0.761812
0.679151
0.720352
0.716619
0.672633
0.429645
0.669392
0.559327
0.424337
0.69129
0.694485
0.696596
0.712728
0.733896
0.781105
0.770069
0.64879
0.648037
0.618509
0.619727
0.717854
0.634976
0.578664
0.649608
0.622078
0.282591
0.33862
0.241349
0.290074
0.266611
0.386738
0.562687
0.468207
0.556341
0.557721
0.505059
0.4617
0.001
0.207612
0.206041
0.00713884
0.726989
0.738493
0.754223
0.70388
0.657506
0.777973
0.778848
0.736594
0.722928
0.722153
0.62394
0.615746
0.731792
0.511906
0.562104
0.456216
0.41429
0.406843
0.503784
0.494854
0.414055
0.453502
0.532676
0.530054
0.487677
0.441306
0.470367
0.544227
0.539076
0.514296
0.463118
0.538082
0.444732
0.392266
0.391375
0.321453
0.31414
0.315793
0.319844
0.313177
0.311528
0.314505
0.001
0.001
0.001
0.001
0.001
0.001
0.225962
0.0327397
0.346578
0.310525
0.357356
0.462879
0.694312
0.589694
0.698645
0.703143
0.778691
0.744033
0.790199
0.309082
0.310149
0.307961
0.319453
0.268399
0.311417
0.220555
0.266199
0.172932
0.223382
0.173629
0.169936
0.16005
0.135478
0.128981
0.154264
0.0997877
0.152926
0.103889
0.119367
0.066839
0.0715143
0.0929332
0.122159
0.110058
0.0673815
0.0651538
0.0826115
0.0686654
0.06643
0.072624
0.0852374
0.0736762
0.0781887
0.0756758
0.0746854
0.0435606
0.0734989
0.0789164
0.0425999
0.00111262
0.0782123
0.0276098
0.0858801
0.577196
0.673546
0.612818
0.59975
0.402795
0.469186
0.403303
0.401338
0.404265
0.404075
0.427217
0.403923
0.340268
0.307822
0.273566
0.220563
0.277327
0.316684
0.320502
0.316085
0.207124
0.257147
0.141505
0.152356
0.161755
0.152203
0.154761
0.158447
0.150854
0.15184
0.143548
0.134687
0.115023
0.132995
0.130699
0.106916
0.0829274
0.111488
0.0893503
0.089105
0.10119
0.102063
0.101077
0.0630366
0.0786787
0.115154
0.114411
0.557721
0.565996
0.606539
0.583024
0.572965
0.555252
0.563324
0.437395
0.478042
0.225647
0.205421
0.204341
0.323588
0.464873
0.334416
0.370679
0.376023
0.320494
0.298984
0.001
0.001
0.001
0.144154
0.001
0.001
0.001
0.001
0.001
0.001
0.773111
0.756883
0.806997
0.7981
0.765796
0.754422
0.665398
0.746356
0.592973
0.535936
0.537851
0.541157
0.540604
0.533055
0.5284
0.523641
0.439175
0.508767
0.322712
0.38293
0.308171
0.324187
0.00100536
0.001
0.001
0.00100202
0.001
0.001
0.001
0.001
0.321247
0.133399
0.366276
0.372325
0.484115
0.579071
0.707988
0.705945
0.748946
0.722391
0.786973
0.819749
0.28941
0.289691
0.250477
0.221891
0.118964
0.153434
0.0805514
0.0900404
0.081338
0.0757715
0.067095
0.0721631
0.001
0.0217118
0.0574473
0.097072
0.136674
0.110828
0.0862607
0.0732174
0.0108326
0.00100817
0.0502033
0.112833
0.0288648
0.065245
0.0646712
0.0314139
0.0306418
0.001
0.001
0.001
0.001
0.001
0.001
0.0728474
0.111861
0.0729345
0.125476
0.472375
0.435188
0.334284
0.420827
0.343579
0.395468
0.402631
0.396169
0.403232
0.404799
0.315463
0.227184
0.155874
0.140893
0.218357
0.157561
0.142405
0.255189
0.143681
0.196009
0.131722
0.137019
0.142545
0.135953
0.146461
0.146605
0.145618
0.146095
0.147063
0.14598
0.157258
0.147478
0.166644
0.164055
0.164866
0.140151
0.150544
0.134356
0.107954
0.117379
0.136894
0.163951
0.151419
0.135037
0.11515
0.138943
0.17889
0.191697
0.200251
0.149985
0.190691
0.20575
0.245071
0.20154
0.197455
0.234999
0.263045
0.386613
0.465384
0.377218
0.411261
0.486743
0.552098
0.459583
0.326719
0.440539
0.338708
0.356068
0.0917431
0.03993
0.0749657
0.0559261
0.172345
0.297752
0.226963
0.297824
0.294635
0.31638
0.294802
0.001
0.001
0.001
0.001
0.001
0.001
0.001
0.00100998
0.001
0.00100962
0.001
0.00100889
0.001
0.001
0.001
0.001
0.798562
0.789294
0.825799
0.815235
0.793104
0.765027
0.6891
0.604893
0.540257
0.553822
0.529359
0.527412
0.508442
0.509562
0.48802
0.485299
0.438042
0.482263
0.402796
0.346169
0.290916
0.24937
0.001
0.00107483
0.00107485
0.001
0.001
0.001
0.001
0.00107485
0.00107488
0.00107482
0.00100999
0.00100984
0.001
0.00100942
0.001
0.001
0.001
0.001
0.001
0.001
0.001
0.001
0.001
0.001
0.0230189
0.001
0.234418
0.393821
0.407895
0.496542
0.716657
0.613606
0.73375
0.729699
0.748438
0.776573
0.806329
0.826963
0.208697
0.208417
0.158875
0.188179
0.125136
0.0927192
0.0807637
0.0828751
0.0773286
0.0843223
0.035622
0.0283846
0.001
0.001
0.0446727
0.0176944
0.001
0.0392891
0.0350694
0.0527951
0.001
0.001
0.001
0.001
0.001
0.001
0.001
0.001
0.001
0.001
0.001
0.23453
0.197244
0.203916
0.208052
0.21882
0.329371
0.294653
0.279434
0.156132
0.185871
0.177331
0.181848
0.0851228
0.0226028
0.200785
0.315289
0.19945
0.206026
0.184484
0.268669
0.249778
0.316995
0.348812
0.280888
0.257701
0.293607
0.168913
0.139668
0.139449
0.138872
0.0566223
0.108117
0.0372473
0.001
0.001
0.0878313
0.087284
0.137805
0.135815
0.137281
0.137308
0.1325
0.140416
0.134892
0.149958
0.14506
0.160886
0.155938
0.159242
0.15452
0.184119
0.172293
0.198985
0.199317
0.149229
0.128775
0.195426
0.182177
0.168
0.191679
0.171963
0.159204
0.209493
0.189256
0.291092
0.297223
0.254348
0.286235
0.294725
0.265359
0.360091
0.330029
0.404624
0.415121
0.445824
0.354897
0.357425
0.36105
0.31926
0.302109
0.266566
0.362135
0.210679
0.185017
0.23946
0.260313
0.001
0.001
0.0689571
0.190937
0.223326
0.259387
0.16606
0.127047
0.0884315
0.0332901
0.001
0.001
0.001
0.001
0.001
0.00100068
0.001
0.001
0.00100979
0.001
0.001
0.001
0.001
0.001
0.001
0.001
0.001
0.001
0.001
0.001
0.001
0.00101
0.001
0.001
0.001
0.001
0.00117159
0.001
0.00107915
0.001
0.00117134
0.00117137
0.001
0.001
0.001
0.001
0.001
0.001
0.001
0.001
0.00100959
0.001
0.00100965
0.001
0.001
0.001
0.794638
0.802428
0.823857
0.816359
0.794817
0.720511
0.537356
0.627235
0.509593
0.50755
0.487735
0.490072
0.481809
0.481738
0.475782
0.47376
0.416748
0.39206
0.291499
0.329633
0.18976
0.228161
0.001
0.001
0.001
0.001
0.001
0.001
0.001
0.001
0.00102326
0.001
0.001
0.001
0.001
0.001
0.001
0.001
0.001
0.00100737
0.001
0.001
0.001
0.001
0.001
0.001
0.001
0.001
0.00101
0.001
0.001
0.001
0.001
0.001
0.001
0.001
0.209149
0.0382643
0.417024
0.374135
0.442666
0.546449
0.652198
0.732569
0.742111
0.73326
0.776815
0.805952
0.794772
0.787866
0.00116794
0.001
0.001
0.001
0.001
0.001
0.001
0.001
0.001
0.001
0.001
0.001
0.001
0.001
0.001
0.00101
0.001
0.187449
0.19001
0.184899
0.152204
0.07235
0.110685
0.0344612
0.025997
0.001
0.001
0.001
0.001
0.001
0.001
0.001
0.001
0.001
0.00760208
0.001
0.001
0.001
0.001
0.001
0.001
0.001
0.001
0.001
0.001
0.001
0.001
0.001
0.001
0.427104
0.396618
0.436222
0.442341
0.400901
0.353725
0.514379
0.539381
0.60431
0.61032
0.154037
0.19579
0.261967
0.337406
0.162856
0.109046
0.146148
0.148384
0.001
0.032058
0.0828536
0.001
0.186086
0.182853
0.186658
0.183222
0.200436
0.184322
0.197427
0.20922
0.0938613
0.0872607
0.001
0.0692487
0.064725
0.0226506
0.00100257
0.001
0.001
0.001
0.001
0.0211306
0.0831206
0.0184165
0.0831403
0.134824
0.138487
0.134478
0.138967
0.140121
0.158032
0.154073
0.167059
0.164883
0.186606
0.176995
0.206082
0.202495
0.20633
0.204323
0.212893
0.211024
0.247762
0.218686
0.188425
0.192488
0.248551
0.223238
0.231966
0.259221
0.304407
0.307484
0.309233
0.30356
0.332397
0.39096
0.447008
0.4726
0.478194
0.456406
0.601166
0.535466
0.663054
0.70113
0.699081
0.73826
0.79409
0.654995
0.741753
0.771408
0.839269
0.890542
0.919147
0.936057
0.963534
0.911828
0.968119
0.926614
1.00128
1.00296
1.05359
1.02145
1.08253
1.11238
1.104
1.04985
1.11755
1.14016
1.10724
1.10476
1.16562
1.14639
1.17787
1.11573
1.1189
1.17856
1.14897
1.10147
1.10423
1.13301
1.16513
0.161282
0.12417
0.296378
0.291313
0.262665
0.253998
0.253961
0.0182175
0.155821
0.001
0.001
0.001
0.001
0.001
0.001
0.001
0.0862828
0.001
0.001
0.001
0.001
0.001
0.001
0.001
0.00101
0.001
0.001
0.001
0.001
0.00101
0.001
0.001
0.001
0.001
0.00163262
0.001
0.001
0.001
0.001
0.001
0.001
0.001
0.001
0.00129741
0.001
0.001
0.001
0.001
0.001
0.001
0.001
0.001
0.001
0.00100829
0.001
0.001
0.001
0.00100928
0.00100997
0.001
0.001
0.001
0.001
0.001
0.001
0.00101
0.001
0.001
0.00102653
0.00106501
0.001
0.00102587
0.001
0.00101
0.00101
0.001
0.001
0.001
0.001
0.001
0.001
0.001
0.001
0.0010078
0.001
0.001
0.001
0.001
0.001
0.001
0.001
0.001
0.00101
0.001
0.001
0.781906
0.77163
0.743902
0.742684
0.659074
0.734334
0.551278
0.492824
0.480737
0.481153
0.481227
0.479064
0.420595
0.424768
0.268936
0.229962
0.188164
0.36556
0.358472
0.312003
0.308604
0.309201
0.001
0.001
0.00102181
0.00102079
0.001
0.001
0.001
0.001
0.00102119
0.001
0.001
0.00100893
0.001
0.001
0.001
0.001
0.001
0.001
0.001
0.001
0.001
0.001
0.00135846
0.00135861
0.001
0.001
0.001
0.001
0.0410906
0.001
0.204975
0.375768
0.405473
0.434658
0.514994
0.629989
0.697968
0.67257
0.717673
0.649282
0.703843
0.744236
0.698535
0.696325
0.0011686
0.001
0.00101
0.001
0.001
0.00119499
0.001
0.001
0.00119499
0.001
0.001
0.001
0.001
0.001
0.001
0.001
0.001
0.001
0.00101
0.001
0.001
0.001
0.001
0.001
0.00185961
0.00100952
0.16424
0.16102
0.0794558
0.0954902
0.001
0.001
0.001
0.001
0.001
0.00137595
0.001
0.001
0.001
0.001
0.001
0.001
0.001
0.001
0.00124629
0.00125604
0.001
0.001
0.001
0.001
0.001
0.001
0.001
0.001
0.001
0.001
0.00121873
0.001
0.646854
0.645812
0.473608
0.398217
0.384879
0.371845
0.646997
0.553076
0.803577
0.88305
0.778164
0.700158
0.893434
0.876058
0.944716
0.986867
1.01981
1.01893
1.04947
1.01943
1.07705
1.10354
1.10045
1.10043
1.11484
1.10279
1.10118
1.14788
1.0944
1.08877
0.199666
0.142486
0.290115
0.351741
0.139226
0.086132
0.139313
0.144393
0.001
0.0254988
0.001
0.0227717
0.001
0.181293
0.129478
0.186407
0.172582
0.18111
0.0799486
0.001
0.001
0.001
0.001
0.001
0.001
0.001
0.001
0.001
0.001
0.001
0.001
0.001
0.0333133
0.001
0.0814404
0.0317113
0.0728168
0.13487
0.163441
0.13765
0.175518
0.175357
0.191246
0.17956
0.213528
0.223551
0.215848
0.233278
0.241991
0.239781
0.271881
0.285715
0.270192
0.271088
0.269227
0.266729
0.27936
0.296668
0.345398
0.332308
0.303086
0.336012
0.328287
0.366541
0.391739
0.458228
0.491296
0.484195
0.496167
0.574603
0.64907
0.73217
0.737118
0.870156
0.745869
0.79087
0.940545
0.966116
0.96614
1.00155
1.0563
1.10036
1.11556
1.11562
1.14116
1.17066
1.19406
1.19603
1.19581
1.19638
1.19873
1.17881
1.11713
1.18275
1.14704
1.10204
1.10365
1.13413
1.16852
1.17828
1.10438
1.16574
1.12534
0.001
0.001
0.0119933
0.0859052
0.001
0.0473538
0.18278
0.114297
0.144285
0.001
0.001
0.001
0.001
0.00324775
0.001
0.001
0.001
0.001
0.001
0.00127308
0.00127282
0.001
0.001
0.001
0.00100999
0.001
0.001
0.001
0.001
0.0014143
0.00141079
0.001
0.001
0.001
0.00163246
0.001
0.001
0.001
0.001
0.001
0.00101
0.001
0.00129724
0.001
0.00101
0.001
0.001
0.001
0.001
0.001
0.001
0.00105214
0.001
0.001
0.001
0.001
0.001
0.001
0.001
0.001
0.001
0.001
0.001
0.001
0.001
0.001
0.001
0.001
0.001
0.001
0.001
0.001
0.001
0.001
0.00101
0.001
0.00100962
0.001
0.001
0.001
0.001
0.001
0.001
0.001
0.001
0.693877
0.689129
0.673124
0.681145
0.610061
0.672944
0.480248
0.546026
0.440402
0.439595
0.384143
0.366923
0.309901
0.31182
0.226421
0.119104
0.0970292
0.267429
0.309301
0.309664
0.312846
0.313209
0.00102108
0.001
0.00102676
0.001
0.001
0.001
0.001
0.001
0.00100548
0.001
0.001
0.001
0.001
0.001
0.001
0.00100999
0.001
0.001
0.001
0.001
0.001
0.001
0.001
0.00101
0.001
0.001
0.001
0.001
0.105882
0.001
0.247528
0.379112
0.353207
0.461432
0.627662
0.532077
0.607139
0.611395
0.598842
0.629718
0.686749
0.681265
0.684116
0.660153
0.001
0.001
0.001
0.001
0.001
0.001
0.001
0.001
0.001
0.001
0.001
0.001
0.001
0.001
0.001
0.001
0.001
0.001
0.001
0.00100999
0.001
0.001
0.00168891
0.001
0.00101
0.001
0.001
0.001
0.001
0.001
0.001
0.0365436
0.0369658
0.00104209
0.001
0.001
0.001
0.001
0.001
0.0823823
0.0218962
0.00187639
0.001
0.001
0.001
0.00100989
0.00127477
0.00127476
0.001
0.001
0.001
0.001
0.001
0.001
0.001
0.001
0.001
0.001
0.001
0.00100971
0.001
0.001
0.001
0.001
0.001
0.001
1.22386
1.23464
1.25778
1.2458
1.28199
1.26905
1.28877
1.28479
1.33527
1.3256
1.28591
1.33988
1.30818
1.35632
1.19525
1.14506
1.16456
1.21401
1.19905
1.16561
1.16573
1.22014
1.23095
1.19835
1.18247
1.23205
1.21997
1.2275
1.25116
1.10241
1.10141
1.10164
1.10119
1.12008
1.14239
0.693975
0.638405
0.531423
0.447977
0.357753
0.431251
0.632494
0.608664
0.851546
0.878516
0.763027
0.844136
0.88446
0.929918
0.980892
1.01827
1.01596
1.01834
1.01553
1.04697
1.05985
1.08689
1.07459
1.07884
1.08075
1.08972
1.06862
1.06934
0.258482
0.185081
0.13134
0.123648
0.186973
0.349947
0.334938
0.0634394
0.114618
0.001
0.001
1.20898
1.22855
1.24706
1.25672
1.25705
1.2689
1.27765
1.30097
1.28971
1.30068
1.30698
1.34577
1.37083
1.39486
1.39578
1.3962
1.4125
1.43766
0.001
0.001
0.00145356
0.110002
0.001
0.16715
0.0666321
0.001
0.00130857
0.001
0.00130862
0.00130855
0.001
0.001
0.001
0.001
0.001
0.001
0.001
0.001
0.001
0.001
0.00123975
0.001
0.0339571
0.001
0.113959
0.0687747
0.14862
0.112724
0.158667
0.179116
0.205579
0.225362
0.242441
0.238898
0.251205
0.246485
0.299097
0.293305
0.283375
0.280507
0.338609
0.306858
0.378847
0.338056
0.317725
0.366639
0.407684
0.396377
0.421403
0.456338
0.456343
0.404647
0.513598
0.540903
0.510841
0.505931
0.580448
0.674894
0.737332
0.80958
0.758184
0.772937
0.903372
0.96014
1.0065
0.9818
1.05474
1.07746
1.11967
1.14129
1.13032
1.14949
1.20547
1.1851
1.19786
1.20773
1.2003
1.1971
1.19795
1.19945
1.19824
1.19897
1.19772
0.001
0.001
0.00228492
0.001
0.001
0.001
0.001
0.001
0.001
0.001
0.001
0.001
0.001
0.001
0.00145351
0.001
0.001
0.001
0.001
0.00127253
0.001
0.001
0.001
0.001
0.001
0.001
0.00100999
0.001
0.00111639
0.00111636
0.00141112
0.001
0.00101558
0.001
0.001
0.001
0.001
0.001
0.001
0.001
0.00100984
0.001
0.00111628
0.001
0.001
0.001
0.00101
0.001
0.001
0.001
0.001
0.00241289
0.001
0.001
0.001
0.001
0.001
0.001
0.00100993
0.001
0.001
0.001
0.001
0.001
0.00105321
0.001
0.001
0.001
0.001
0.00105372
0.001
0.001
0.001
0.001
0.001
0.001
0.001
0.001
0.00101
0.001
0.001
0.001
0.001
0.001
0.001
0.001
0.001
0.001
0.001
0.0020416
0.001
0.001
0.001
0.001
0.00204156
1.38828
1.35742
1.3299
1.43135
1.46361
1.46214
0.671598
0.671078
0.661412
0.657605
0.579259
0.647447
0.475573
0.39765
0.326576
0.34383
0.310744
0.308996
0.309973
0.30985
0.187171
0.106637
0.195594
0.273197
0.273514
0.001
0.001
0.001
0.001
0.001
0.001
0.001
0.001
0.001
0.001
0.00100943
0.001
0.001
0.001
0.001
0.001
0.00100998
0.001
0.001
0.001
0.001
0.001
0.001
0.001
0.001
0.001
0.001
0.0804148
0.217535
0.33235
0.334901
0.649386
0.571302
0.585897
0.371166
0.457891
0.547768
0.597891
0.599661
0.603396
0.622275
0.645581
0.640466
0.001
0.00115072
0.001
0.001
0.001
0.001
0.00100904
0.001
0.001
0.001
0.001
0.001
0.001
0.001
0.001
0.001
0.001
0.00100504
0.001
0.001
0.001
0.001
0.001
0.001
0.001
0.001
0.001
0.001
0.001
0.001
0.00101
0.001
0.001
0.001
0.001
0.001
0.001
0.0367921
0.0694034
0.0590797
0.001
0.001
0.001
0.001
0.001
0.001
0.001
0.001
0.00820017
0.001
0.001
0.001
0.001
0.001
0.001
0.001
0.001
0.001
0.001
0.001
0.001
0.001
0.001
0.001
0.001
0.001
0.001
0.001
0.001
0.001
0.001
0.001
0.001
0.001
1.22767
1.24348
1.26228
1.28525
1.28389
1.29013
1.31971
1.30513
1.15532
1.15371
1.13794
1.15943
1.19227
1.15305
1.20171
1.17573
1.08813
1.07793
1.07364
1.10624
1.13627
1.10733
0.702535
0.622378
0.523786
0.605909
0.462531
0.364329
0.617217
0.621544
0.860211
0.862419
0.878999
0.775507
0.850598
0.965191
0.911905
0.854309
0.897972
0.995885
1.0102
0.998988
1.00596
1.01533
1.0365
1.06657
1.05741
1.06866
1.06427
1.06513
1.0651
1.06488
1.06517
0.109112
0.110537
0.242337
0.334723
0.114202
0.192335
0.343384
0.360328
0.103601
0.0425765
0.001
0.0218148
1.24181
1.20019
1.21483
1.2661
1.2601
1.26357
1.27723
1.29574
1.32099
1.32865
1.32832
1.33222
1.35825
1.39861
1.37321
1.39425
1.41493
1.46815
1.43963
1.2712
1.28061
1.29597
1.46486
1.46667
1.45873
0.00145336
0.00145332
0.00145339
0.001
0.001
0.001
0.001
0.001
0.001
0.001
0.001
0.001
0.001
0.00101
0.001
0.00100987
0.001
0.001
0.001
0.001
0.00185542
0.001
0.001
0.001
0.0541859
0.0832118
0.0113216
0.0551367
0.12084
0.0788106
0.203755
0.153009
0.217066
0.232093
0.243511
0.226987
0.27837
0.322226
0.361758
0.357643
0.367964
0.352604
0.379018
0.363293
0.407736
0.413321
0.440732
0.436122
0.412978
0.413652
0.536092
0.577909
0.482531
0.541535
0.591299
0.551842
0.653097
0.698863
0.79453
0.838692
0.812318
0.906766
0.958062
1.06227
1.04244
1.0996
1.08263
1.1753
1.17491
1.16844
1.19973
1.22469
1.22421
1.28082
1.24399
1.27474
1.2346
1.2357
1.27024
1.20323
1.23846
1.20012
0.001
0.001
0.001
0.001
0.001
0.001
0.001
0.001
0.00101
0.001
0.001
0.001
0.001
0.001
0.001
0.001
0.001
0.001
0.001
0.001
0.001
0.001
0.001
0.001
0.001
0.001
0.001
0.001
0.00111635
0.00111636
0.001
0.001
0.001
0.001
0.00101
0.001
0.0010004
0.001
0.001
0.001
0.001
0.001
0.00221368
0.001
0.001
0.001
0.001
0.001
0.00101615
0.001
0.001
0.00219966
0.001
0.001
0.001
0.00101611
0.0012667
0.001
0.00100983
0.001
0.001
0.001
0.00101
0.001
0.00105345
0.00105351
0.001
0.001
0.00105343
0.00105355
0.001
0.001
0.001
0.001
0.00154109
0.001
0.00154094
0.001
0.001
0.001
0.001
0.00100984
0.00101
0.00100994
0.001
0.001
0.001
0.001
0.001
0.001
0.001
0.001
0.001
0.001
0.00126664
0.001
0.00100958
0.00100997
0.001
0.001
0.001
0.001
0.00101
1.33907
1.36552
1.36178
1.35855
1.39511
1.50997
1.48831
1.48234
1.50929
1.45091
0.581894
0.567033
0.501697
0.504052
0.46297
0.497714
0.403834
0.358931
0.343728
0.313172
0.289014
0.281274
0.198954
0.204168
0.0740696
0.118481
0.115755
0.001
0.001
0.001
0.00101
0.001
0.001
0.001
0.0010384
0.0517009
0.001
0.001
0.001
0.001
0.001
0.001
0.001
0.00101
0.001
0.001
0.00102179
0.001
0.001
0.001
0.001
0.001
0.446391
0.447875
0.488541
0.194089
0.331331
0.333004
0.366815
0.493181
0.562417
0.522753
0.431205
0.511527
0.541342
0.541574
0.460788
0.493201
0.001
0.001
0.00115075
0.00101
0.001
0.001
0.00101
0.00118733
0.001
0.001
0.001
0.001
0.001
0.001
0.001
0.0010211
0.001
0.00102122
0.00102107
0.00101
0.001
0.001
0.001
0.001
0.001
0.00100577
0.001
0.001
0.001
0.001
0.00106614
0.001
0.00100563
0.001
0.001
0.001
0.001
0.001
0.001
0.001
0.001
0.001
0.001
0.001
0.00102106
0.055186
0.0662624
0.0755136
0.001
0.001
0.001
0.001
0.001
0.001
0.00147127
0.001
0.001
0.00147139
0.001
0.001
0.001
0.001
0.001
0.001
0.001
0.00103753
0.001
0.001
0.001
0.001
0.001
0.001
0.001
0.00117954
0.001
0.00103749
0.001
0.001
0.001
0.001
0.00101
0.001
0.001
0.00117952
1.23024
1.18348
1.26474
1.22673
1.2279
1.28862
1.26639
1.31385
1.29892
1.35182
1.30404
1.27071
1.34929
1.30219
1.1174
1.12232
1.10819
1.12603
1.13678
1.15264
1.15013
1.16073
1.06222
1.06548
1.08696
1.07021
1.09813
1.10952
0.701973
0.621404
0.552121
0.619106
0.416797
0.515179
0.622325
0.623937
0.854619
0.850802
0.851243
0.78068
0.940728
0.991661
0.900004
0.854613
0.99544
0.992743
1.00788
0.995561
1.03126
1.05298
1.0632
1.05904
1.05937
1.06254
1.064
1.06378
1.06365
1.06346
0.112391
0.105266
0.261166
0.349501
0.240179
0.170774
0.395932
0.342528
0.0748063
0.0987355
0.0691738
0.001
1.24088
1.27381
1.26085
1.28621
1.30345
1.29157
1.32693
1.34003
1.31262
1.32719
1.31721
1.32472
1.33361
1.35389
1.3761
1.39697
1.39916
1.44976
1.42676
1.47579
1.48272
1.34827
1.36216
1.48565
1.49107
0.001
0.001
0.001
0.001
0.001
0.001
0.001
0.001
0.00101
0.001
0.001
0.001
0.001
0.001
0.001
0.001
0.00185537
0.001
0.001
0.001
0.001
0.001
0.001
0.001
0.0699022
0.0699354
0.0376106
0.001
0.111579
0.146929
0.211
0.188868
0.219663
0.20282
0.328063
0.271848
0.377215
0.368929
0.395226
0.399125
0.377785
0.431229
0.477103
0.446284
0.435607
0.460788
0.510637
0.500463
0.479981
0.52195
0.609115
0.606254
0.602098
0.620224
0.746096
0.667983
0.83873
0.858659
0.864153
0.926812
1.00654
1.07904
1.09156
1.0978
1.14986
1.19186
1.23145
1.22884
1.26635
1.24181
1.2939
1.30597
1.30992
1.30645
1.30927
1.30745
1.27681
1.30754
1.27398
0.001
0.001
0.00714121
0.00102514
0.001
0.001
0.001
0.001
0.001
0.001
0.00101
0.00131913
0.00131965
0.00131845
0.00131917
0.00131831
0.00131725
0.001
0.00131575
0.00679907
0.00101138
0.001
0.001
0.00104723
0.001
0.0010472
0.00104723
0.001
0.001
0.00100217
0.001
0.001
0.001
0.001
0.00101
0.00103699
0.001
0.001
0.00100986
0.001
0.001
0.001
0.0018262
0.001
0.001
0.001
0.001
0.001
0.001
0.001
0.001
0.001
0.00100941
0.001
0.001
0.001
0.00100992
0.001
0.001
0.001
0.00101
0.001
0.001
0.001
0.001
0.001
0.001
0.0010008
0.001
0.001
0.001
0.00100949
0.001
0.001
0.001
0.001
0.001
0.001
0.001
0.001
0.001
0.001
0.00101
0.001
0.001
0.001
0.001
0.001
0.001
0.001
0.001
0.001
0.001
0.001
0.001
0.001
0.001
0.001
0.001
0.001
0.001
0.001
0.001
0.001
0.001
0.001
0.001
0.001
0.001
0.001
0.001
0.001
0.0010643
0.001
0.001
0.001
0.001
1.53833
1.51889
1.53993
1.51956
1.53667
1.5422
1.38114
1.37336
1.4431
1.41548
1.50016
1.51847
1.51177
1.39569
1.33445
0.443768
0.441053
0.444737
0.434701
0.447938
0.377548
0.418704
0.211759
0.26277
0.129059
0.1266
0.0769487
0.0753669
0.0733633
0.001
0.001
0.001
0.001
0.001
0.0726304
0.001
0.001
0.001
0.001
0.001
0.001
0.001
0.001
0.001
0.001
0.001
0.00101223
0.00101229
0.001
0.00101395
0.001
0.001
0.001
0.446502
0.446553
0.448076
0.447493
0.447092
0.160047
0.272676
0.218525
0.338866
0.397534
0.423052
0.351909
0.437416
0.388138
0.389237
0.373544
0.001
0.00111087
0.001
0.001
0.001
0.001
0.001
0.00101466
0.001
0.001
0.00101357
0.001
0.001
0.001
0.00102059
0.001
0.001
0.001
0.001
0.001
0.001
0.001
0.001
0.001
0.001
0.00100955
0.001
0.001
0.001
0.001
0.001
0.001
0.001
0.001
0.001
0.001
0.001066
0.001
0.00106586
0.001
0.001
0.001
0.001
0.001
0.00100037
0.001
0.001
0.001
0.001
0.001
0.00101
0.001
0.001
0.001
0.001
0.001
0.001
0.0539814
0.001
0.001
0.001
0.001
0.001
0.001
0.001
0.001
0.001
0.00100956
0.001
0.001
0.001
0.001
0.001
0.001
0.001
0.001
0.001
0.001
0.001
0.001
0.001
0.001
0.001
0.001
0.001
0.001
0.001
0.001
0.001
0.001
0.00183271
0.00183014
0.001
0.001
0.001
0.001
0.00100972
0.001
1.20191
1.18062
1.1923
1.19281
1.20683
1.20937
1.22834
1.2809
1.25745
1.27752
1.34978
1.30685
1.26035
1.11143
1.10669
1.13849
1.12233
1.15073
1.14961
1.17651
1.15936
1.0635
1.06974
1.09044
1.07736
1.0912
1.10057
0.740657
0.660983
0.589875
0.622615
0.569622
0.476127
0.658809
0.627319
0.857993
0.853424
0.812409
0.858229
0.95
0.998753
0.860115
0.90414
0.999344
0.99798
1.01781
0.999656
1.04178
1.05944
1.05755
1.06592
1.05336
1.05943
1.05938
1.06287
1.0558
1.05608
0.0962091
0.162369
0.348047
0.322145
0.23905
0.327011
0.348413
0.417446
0.0941699
0.0865233
0.0804308
0.001
0.001
0.001
0.001
1.30832
1.31273
1.34077
1.33395
1.35645
1.36317
1.36642
1.36892
1.39871
1.38212
1.39123
1.35847
1.39232
1.39995
1.4267
1.44372
1.4645
1.45755
1.51393
1.51086
1.53012
1.50939
1.42007
1.42421
1.54362
1.54183
0.001
0.001
0.00101
0.001
0.001
0.00123652
0.00123639
0.001
0.001
0.001
0.001
0.00203558
0.00108102
0.001
0.001
0.001
0.00100232
0.001
0.001
0.001
0.001
0.001
0.001
0.001
0.001
0.0186551
0.0851781
0.001
0.186107
0.132536
0.203325
0.202493
0.294802
0.233941
0.356738
0.389924
0.382146
0.389457
0.510077
0.472991
0.441758
0.499669
0.523079
0.521398
0.515487
0.506566
0.518466
0.519812
0.601129
0.643095
0.678638
0.639464
0.679084
0.706554
0.844893
0.782124
0.876157
0.860359
0.942766
1.01613
1.10363
1.09629
1.13447
1.16833
1.24607
1.23737
1.25827
1.26519
1.29225
1.29976
1.32083
1.31005
1.32481
1.31923
1.30917
1.3214
1.30685
1.30912
0.001
0.001
0.00101
0.001
0.001
0.001
0.001
0.001
0.001
0.00131953
0.001
0.001
0.001
0.00131984
0.0013192
0.00131886
0.00131988
0.00131785
0.0013189
0.001
0.001
0.00100968
0.001
0.001
0.001
0.00100179
0.001
0.001
0.001
0.001
0.001
0.00101
0.001
0.001
0.00100863
0.00103699
0.001
0.001
0.001
0.0036053
0.001
0.001
0.001
0.00100967
0.001
0.001
0.001
0.00100983
0.001
0.001
0.00100647
0.001
0.00100976
0.001
0.001
0.001
0.001
0.001
0.0036995
0.001
0.001
0.001
0.001
0.001
0.00122285
0.00122275
0.00122277
0.001
0.001
0.001
0.001
0.001
0.001
0.001
0.001
0.001
0.001
0.001
0.001
0.001
0.001
0.001
0.001
0.001
0.001
0.001
0.001
0.001
0.001
0.001
0.001
0.001
0.001
0.001
0.001
0.001
0.001
0.001
0.001
0.001
0.001
0.001
0.001
0.001
0.001
0.001
0.00101
0.001
0.00133501
0.001
0.00114421
0.001
0.001
0.00114247
0.001
0.001
1.55126
1.57752
1.59129
1.54596
1.54442
1.52671
1.5414
1.41974
1.4498
1.46585
1.48436
1.46602
1.51787
1.55661
1.39637
1.41361
1.3374
1.3777
1.36607
0.439641
0.435905
0.341887
0.304238
0.40192
0.334397
0.342255
0.211245
0.239907
0.100842
0.074836
0.0741843
0.0725463
0.0536903
0.001
0.001
0.001
0.105026
0.001
0.001
0.001
0.00104728
0.001
0.001
0.001
0.001
0.001
0.001
0.001
0.001
0.001
0.00101
0.001
0.001
0.00101426
0.001
0.001
0.001
0.402715
0.447272
0.422421
0.399455
0.167753
0.162362
0.186113
0.259245
0.374199
0.375255
0.327866
0.374138
0.374365
0.00100999
0.001
0.001
0.001
0.001
0.001
0.00133055
0.00133062
0.001
0.001
0.00101
0.00100946
0.001
0.001
0.00100846
0.001
0.0010099
0.00374138
0.001
0.001
0.001
0.001
0.001
0.001
0.001
0.00106644
0.001
0.001
0.00111489
0.001
0.001
0.001
0.001
0.001
0.001
0.001
0.001
0.001
0.001
0.001
0.001
0.001
0.001
0.001
0.001
0.001
0.001
0.001
0.001
0.001
0.001
0.00200009
0.001
0.001
0.001
0.001
0.001
0.001
0.001
0.001
0.001
0.001
0.001
0.001
0.001
0.001
0.001
0.00105126
0.001
0.001
0.001
0.00107607
0.001
0.001
0.001
0.001
0.001
0.001
0.001
0.001
0.001
0.001
0.001
0.001
0.001
0.001
0.001
0.001
0.001
0.001
0.001
0.001
0.001
0.001
0.001
0.001
0.001
0.00127158
0.00101
0.001
0.001
0.001
0.001
0.00100999
0.001
0.001
1.1961
1.17878
1.24681
1.20307
1.2162
1.2281
1.25159
1.22939
1.25063
1.30664
1.2532
1.34038
1.30092
1.36522
1.08876
1.11278
1.1081
1.13285
1.11275
1.13973
1.17545
1.13175
1.06083
1.06909
1.07499
1.07893
1.08146
1.08287
0.79518
0.715198
0.607068
0.62189
0.524607
0.617282
0.63719
0.684334
0.860729
0.858742
0.86329
0.83329
0.955781
1.00131
0.917257
0.87165
1.00232
1.00429
1.00734
1.03018
1.04789
1.04332
1.04671
1.06939
1.06524
1.0573
1.05384
1.05651
1.05785
1.0599
0.180676
0.0912185
0.352276
0.354103
0.262661
0.360785
0.360998
0.451936
0.081648
0.0828887
0.0596201
0.0367845
0.001
0.08439
1.32407
1.33987
1.36222
1.39265
1.39092
1.40592
1.42529
1.4284
1.43995
1.42467
1.43533
1.45494
1.47661
1.49205
1.49066
1.50459
1.52005
1.54888
1.55102
1.55339
1.56199
1.43885
1.42727
1.58253
1.6082
0.001
0.001
0.001
0.001
0.001
0.001
0.001
0.001
0.001
0.00203549
0.001
0.001
0.001
0.001
0.001
0.00105423
0.00105423
0.001
0.001
0.001
0.001
0.001
0.001
0.001
0.001
0.016073
0.0197928
0.11073
0.16849
0.135033
0.216433
0.161982
0.350816
0.279595
0.388088
0.383098
0.400152
0.459799
0.587294
0.592573
0.535037
0.562749
0.592942
0.540381
0.651331
0.578366
0.552544
0.589554
0.722934
0.73443
0.799663
0.850921
0.734313
0.825059
0.972603
0.921724
0.992017
0.960469
1.15227
1.11755
1.18289
1.19939
1.27117
1.28285
1.34471
1.31186
1.3593
1.34079
1.35902
1.39541
1.36677
1.39735
1.40459
1.3662
1.35378
1.39547
1.39272
1.36364
0.001
0.001
0.00101
0.001
0.001
0.001
0.001
0.001
0.001
0.00107572
0.001
0.001
0.001
0.001
0.001
0.001
0.00100968
0.00132133
0.001
0.001
0.00131738
0.00100993
0.001
0.001
0.00123531
0.001
0.001
0.001
0.001
0.001
0.00152918
0.00100984
0.001
0.001
0.001
0.001
0.001
0.00100967
0.001
0.001
0.001
0.001
0.001
0.001
0.001
0.001
0.00100931
0.00101483
0.00101441
0.001
0.001
0.001
0.001
0.00117493
0.001
0.001
0.00117484
0.001
0.001
0.001
0.00100996
0.00133494
0.001
0.00114249
0.001
0.001
0.001
0.001
0.00101
0.001
0.001
0.001
0.001
0.001
0.001
0.001
0.001
0.001
0.001
0.001
0.001
0.001
0.001
0.001
0.001
0.001
0.001
0.001
0.001
0.001
0.001
0.001
0.001
0.001
0.001
0.001
0.001
0.001
0.001
0.001
0.001
0.001
0.001
0.001
0.001
0.001
0.001
0.001
0.001
0.001
0.001
0.001
0.001
0.001
0.001
0.001
0.001
0.00114421
0.001
0.001
0.001
0.00114239
0.001
0.001
1.61064
1.59126
1.61127
1.57117
1.56897
1.58908
1.58826
1.56052
1.582
1.44406
1.46125
1.4591
1.45556
1.53989
1.57355
1.59109
1.49346
1.3723
1.40832
1.38172
1.37687
1.36918
1.42006
1.3007
0.203895
0.304111
0.20488
0.244288
0.247619
0.154157
0.149363
0.154286
0.154339
0.154974
0.131232
0.0460107
0.026037
0.001
0.001
0.0453678
0.167819
0.001
0.001
0.00105591
0.001
0.001
0.00100999
0.001
0.001014
0.00100155
0.001
0.001
0.00112713
0.001
0.001
0.001
0.00112713
0.001
0.00100853
0.001
0.00100507
0.311461
0.234584
0.212719
0.299508
0.162383
0.189769
0.323941
0.255542
0.300623
0.374722
0.372191
0.00110605
0.001
0.001
0.00115258
0.001
0.001
0.00133048
0.00133083
0.001
0.001
0.00100995
0.001
0.001
0.001
0.001
0.001
0.00394728
0.00394451
0.001
0.001
0.00391411
0.001
0.00200012
0.001
0.001
0.001
0.001
0.00345162
0.001
0.00111492
0.00347092
0.001
0.001
0.001
0.001
0.001
0.001
0.001
0.001
0.001
0.001
0.001
0.001
0.00101
0.001
0.001
0.001
0.001
0.001
0.00117539
0.001
0.001
0.001
0.00101131
0.001
0.001
0.001
0.001
0.001
0.001
0.001
0.001
0.001
0.001
0.001
0.001
0.001
0.001
0.001
0.001
0.001
0.001
0.001
0.001
0.001
0.001
0.00105125
0.00105126
0.001
0.001
0.001
0.001
0.001
0.001
0.001
0.001
0.00159649
0.001
0.001
0.001
0.001
0.001
0.001
0.00159649
0.001
0.001
0.001
0.001
0.001
0.001
0.001
0.001
0.001
0.001
0.001
0.001
0.001
0.00101
0.00101
0.001
0.00101
0.001
0.001
0.001
0.001
0.001
0.001
0.001
1.15229
1.15293
1.14712
1.2003
1.18082
1.19922
1.17974
1.21554
1.22968
1.26948
1.26593
1.26845
1.3083
1.27295
1.36413
1.08274
1.08653
1.09015
1.0946
1.09547
1.09394
1.10311
1.12299
1.11214
1.06286
1.06777
1.0793
1.08253
1.08345
0.767221
0.839362
0.646419
0.638502
0.558006
0.657224
0.719072
0.65947
0.866709
0.882893
0.889619
0.872236
0.999787
0.966471
0.929882
0.961158
1.01396
1.00562
1.03874
1.06255
1.06633
1.08498
1.07439
1.04915
1.06095
1.06759
1.06692
1.07674
1.06214
0.17845
0.0872381
0.364442
0.358029
0.266069
0.362092
0.458541
0.361323
0.0996064
0.0944599
0.0661735
0.121611
0.138966
0.113661