/*--------------------------------*- C++ -*----------------------------------*\
  =========                 |
  \\      /  F ield         | OpenFOAM: The Open Source CFD Toolbox
   \\    /   O peration     | Website:  https://openfoam.org
    \\  /    A nd           | Version:  8
     \\/     M anipulation  |
\*---------------------------------------------------------------------------*/
FoamFile
{
    version     2.0;
    format      ascii;
    class       surfaceScalarField;
    location    "11760";
    object      phi;
}
// * * * * * * * * * * * * * * * * * * * * * * * * * * * * * * * * * * * * * //

dimensions      [0 3 -1 0 0 0 0];

internalField   nonuniform List<scalar> 
788991
(
-0.0332704
0.00453606
-0.0012946
-0.0011808
-0.0157194
-0.026947
0.0397527
-0.0150794
-0.0523264
0.0197726
-0.0531433
0.00122776
-0.00872532
-0.0504793
-0.0328275
-0.00785145
0.035957
0.00116728
0.008279
0.0277352
0.0215418
-0.00311147
-0.0498969
0.0348515
-0.0102364
0.0486806
-0.00938718
0.0340117
-0.0106943
0.0362426
0.0117229
0.0336842
0.0362966
-0.000244736
0.0542732
-0.0134135
-0.0267549
-0.0267268
-0.0206046
-0.0115972
-0.0303863
0.0185994
0.0207017
-0.00391351
0.0308848
-0.00983356
-0.038927
0.0108904
0.0124908
-0.0736376
0.0189429
-0.0148717
0.0231382
0.0454383
-0.0414412
0.0165656
-0.000531921
0.00814364
0.00315189
0.016806
0.00408046
0.0106785
0.0147108
-0.0434053
0.0151014
-0.0491156
0.0159187
-0.012598
-0.026598
-0.00766291
0.00109917
0.00952033
0.0484511
-0.00480283
0.0397415
0.019404
-0.0642879
-0.0292687
-0.0234475
0.0702636
0.0244669
-0.0123916
0.0231307
-0.0445979
-0.000281066
-0.0270092
0.054749
-0.0336664
-0.0423753
-0.00158324
0.00712083
0.0164628
-0.0194811
-0.0479603
0.0147028
-0.021797
0.000945056
0.0184814
-0.0417801
-0.0596234
-0.0643061
-0.0263083
-0.0268966
-0.0330573
-0.0889496
-0.0596217
-0.092014
-0.00031583
-0.014457
0.0586741
0.00569126
-0.0543384
0.00562647
-0.0254965
-0.0226218
0.00391933
-0.00840013
-0.0262696
-0.0139843
0.0127723
0.0162221
-0.0224164
0.0355376
0.0148016
-0.0302514
-0.0223625
0.00430452
-0.00966262
-0.00900199
0.00935026
0
0
0
0
0
0
0.00130983
0
0.0234433
-0.053191
0.0254075
-0.00271003
0.0105697
0.0467385
0.0013446
-0.0314298
0.0535031
-0.000331862
0.054965
0.0149279
0.0069471
-0.0375263
-0.0113791
-0.01038
0.034048
-0.00694436
-0.0425973
-0.00310971
-0.0160986
-0.00319169
-0.000561352
0.000418307
-0.0093839
-0.027495
0.010828
-0.0153322
-0.0030743
0.00381021
-0.0175016
0.0132911
-0.0154079
0.0226526
0.00781188
-0.0482655
-0.0166524
-0.00905741
-0.0369169
0.026026
-0.0520589
-0.0529828
-0.0423595
0.0423826
0.0122887
-0.00679831
0.0476201
-0.00808396
0.0222187
-0.0356475
-0.0425653
0.00115517
0.0103752
-0.00344823
-0.0504068
-0.0406213
-0.00200886
-0.0061312
0.000868271
-0.044907
-0.0445842
0.0327797
-0.00649335
-0.0542759
-0.0389536
-0.0520181
-0.072637
-0.0512241
0.0993003
0.00795547
-0.0612629
0.0181263
-0.0681402
-0.0153487
0.0162605
-0.00753464
0.0254101
0.0265278
0.00172531
0.0361843
0.0306136
0.0251037
-0.0190682
0.00131068
0.0267057
0.0202224
-0.0924634
-0.00545262
0.00612233
-0.0481451
-0.0788656
-0.0119305
0.0111936
-0.0392213
-0.0270451
0.0084539
-0.0246884
0.0403573
-0.0195648
-0.00599343
-0.0078217
-0.0119905
0.0100718
-0.00889322
0.00526038
-0.00702152
-0.00319226
-0.0107047
-0.0122743
-0.0357601
-0.014322
-0.0450429
0.0348515
-0.0230434
-0.0678307
0.0336428
-0.0610769
-0.0554734
0.0420596
-0.038935
-0.0444939
-0.0341103
-0.0177522
0.00887189
0.0186153
-0.00303474
0.0086912
-0.018223
-0.0152627
-0.0729572
0.00515708
-0.00309426
-0.00448161
-0.0066087
-0.0367082
-0.0914708
0.0235492
-0.0239221
0.0080421
-0.0297738
0.0162777
0.0605942
-0.0614405
-0.00243645
-0.0434071
0.00591944
-0.0388113
-0.0162781
0.037852
-0.0227487
0.0507628
-0.03546
0.0060722
-0.0181825
-0.0205278
-0.0134895
0.014146
0.0372403
-0.011871
-0.0701648
0.0462343
0.0814522
0.0148104
-0.012229
0.0162007
-0.00356168
0.0155758
-0.0425424
-0.0087748
-0.0152115
0.0107137
-0.0128151
0
0
-0.00435651
0
0.0742461
0
0
0
0
0
0
0
0
-0.0403566
-0.0284379
-0.0250277
-0.0374893
-0.00606346
-0.015746
-0.0465606
-0.0463617
-0.0179878
-0.019382
-0.0467794
0.0437481
0.0626842
-0.0471783
-0.0643244
0.032384
-0.0290616
-0.0672243
0.0151137
-0.0238396
-0.020639
0.0028798
-0.0100676
0.0137301
-0.0161529
-0.0268856
0.00642566
-0.00301093
-0.0178769
0.0143631
-0.00358553
-0.00530511
0.00555237
0
0
0
0
0
0
0
0
-0.0180104
0
0
0.0215433
0.0119102
0.0061945
0.042718
0.023236
0.0503018
0.0510782
0.00643308
-0.0401873
0.0545267
0.0132826
-0.0316717
0.0127731
0.0207332
0.0180571
-0.0357955
0.00808663
-0.00523933
0.00288632
-0.00784034
0.00499451
0.00141195
-0.0166133
0.000865523
-0.00517516
-0.0215953
0.0114664
0.00964366
-0.0340469
0.00158267
-0.00605715
-0.0307493
-0.0174742
0.00583714
-0.00229587
-0.0250111
0.0406069
-0.0223721
-0.00293745
0.0860364
0.0308874
0.000716416
0.0124676
-0.0890762
-0.0206944
0.0667382
-0.0103792
-0.0184919
-0.0108815
-0.0160521
0.0390889
-0.00379333
-0.0147879
-0.0537688
0.00346242
0.0123323
0.0327115
-0.0639186
0.0905625
-0.0342284
-0.135682
0
-0.00206809
0
0
0
0
0
-0.0130366
0.0352223
-0.0327861
0.0247167
0.0591602
0.0330136
0.0358962
0.0105246
0.0596617
0.00759812
0.0109822
-0.00746964
0.0463839
0.0348845
-0.0178067
0.0398284
-0.0294568
-0.103289
0.024883
-0.0380014
-0.0287674
-0.0715338
0.0171954
0.0117886
-0.0316894
0.0444493
0.0114211
-0.0140347
0.0202418
0.00521221
0.00523564
-0.0080238
-0.00184097
-0.00302464
0.0014716
-0.0133537
0.0151079
-0.0215021
-0.0213306
-0.0560059
0.0319911
-0.0214811
-0.0471268
0.0348207
-0.0103234
-0.0543523
-0.00792126
0.0127204
-0.0582762
0.0131698
0.002891
-0.0410089
-0.00402595
-0.0588027
-0.0671232
-0.00044472
-0.0712274
-0.0649154
-0.0314793
-0.0124585
0.0183899
-0.0674282
-0.0421033
-0.0511733
-0.0604685
0.0373297
0.0703151
0.0630099
-0.0464343
0.000704177
0.0807231
-0.0437445
0.015069
-0.0457053
0.0499752
-0.00502032
-0.074575
0.0382853
-0.0623673
0.0875582
-0.0423168
-0.0477405
-0.00912045
-0.0173842
0.00242691
-0.0281096
-0.0212764
-0.0510123
0.0015047
0.0578842
0.0345486
0.015298
0.0132965
-0.00674977
-0.021333
0.0251659
-0.00396041
-0.0274585
-0.00770156
-0.00310119
-0.0132317
-0.00559492
-0.0327099
0.0279665
-0.010321
-0.0549929
0.0183341
-0.0386829
-0.121708
-0.00878545
0.0106506
0.0505354
0.0158229
0.0165783
0.0405856
-0.00959486
9.2191e-05
0.0343643
-0.00702422
-0.0377306
-0.0096873
0
0
0
-0.0471615
0
0
-0.0541488
0
0
0
0
0
0
0
0
0
0
0
0
0
0
0
0
-0.042424
-0.0359367
-0.016516
-0.0156347
-0.0313737
0.0131211
-0.00870357
-0.0413246
-0.0237422
0.00711843
-0.0441129
-0.0367428
0.00949781
-0.0297555
0.0360235
0.0138551
-0.0221698
-0.0170672
-0.00705243
-0.0139667
0.00291394
-0.0124321
-0.0185922
-0.000498727
-0.0114332
-0.0142252
0.000980398
-0.00381232
-0.00747741
0.0021756
-0.00516479
-0.0117051
-0.00942019
4.87882e-05
0
1.97518e-05
0
0
-1.1486e-05
2.78935e-05
-6.66526e-05
2.42318e-05
3.40708e-05
-4.20711e-06
0
0
0
0
0
0
0
0
0
0
0
0
0
0
0
0
0
0
0
-0.0229967
0
-0.0299365
0.0511806
0.0484138
-0.0331062
0.0509162
0.0195747
-0.0332401
0.0310515
0.0119224
0.0169977
0.0363821
0.0214549
0.0011522
-0.01545
0.0142685
0.00334376
-0.0272702
-0.00427845
0.0135763
-0.00648304
-0.02284
0.00521029
-0.00198654
0.0041206
0.00842522
-0.0141157
-0.0359003
-0.0177114
-0.0304139
-0.000335912
0.0230258
0.00603363
0.00351388
-0.0214461
-0.004713
0.0554156
0.0316421
0
0
0
-0.00842791
-0.0325254
0.0135909
0
0.00132498
-0.0562671
-0.0280855
0.0218374
-0.0161421
0
0
0
0
-0.0510203
-0.0003063
0
0
0
0
0
0
0
0
0
0
0.0134533
-0.025824
-0.0779995
-0.0268446
-0.029849
0.00733153
-0.0273409
0.0267834
0.0469162
0.013252
-0.053932
0.0196951
0.0589146
-0.0443662
-0.0140272
-0.0139921
-0.0190166
0.0572644
-0.067782
0.026619
0.02347
-0.00573907
0.0190746
0.0286944
0.0174992
3.25132e-05
0.0340837
0.0497332
0.0104233
0.0549432
0.0716653
-0.0316056
0.0537122
-0.0792542
-0.11514
0.0455917
-0.0719003
-0.0264347
-0.0567383
-0.00271028
0.00565345
-0.00653957
0.0067483
0.000648003
-0.0261746
0.00571574
-0.0118061
-0.0412938
0
-0.00853619
-0.0430816
0.0205636
-0.0267076
0.0198751
-0.0490201
-0.0257272
-0.0442372
0.00556804
-0.00866925
-0.0335017
0.0146466
-0.00892769
-0.00248152
0.0387
-0.0159949
-0.0395185
0.0228268
-0.00287046
-0.0436341
0.033918
0.040714
-0.0255098
0.00655031
0.0639172
-0.0384119
0.00952255
0.0317062
-0.0535189
0.0453726
-0.0328405
0.0768734
-0.0420567
-0.0853677
-0.00153345
-0.0635955
0.00487716
0.0462733
-0.0299973
-0.0691855
0.0135696
0.0354867
-0.0042383
-0.0261429
0.0525718
-0.0557955
-0.0326104
-0.00663767
-0.0769338
-0.044254
-0.0324139
-0.0369765
-0.0501657
-0.00774623
-0.0321704
-0.0571393
0.012775
-0.0580318
-0.00170146
0.0119421
-0.0168817
-0.01746
0.00562731
0.0117421
-0.0020469
-0.0054967
0.00890251
-0.023795
-0.070867
-0.00246247
0.0314437
0.0321571
-0.0454122
-0.0625884
-0.0139668
0.0230895
3.79278e-05
-0.0530941
0
0
-0.00336819
-0.0173604
-0.0779422
0.0221139
-0.0218236
0.0254153
-0.0664891
0.0601302
-0.0828986
0.0235563
-0.0121028
0.0423226
0
0
0
0
0
0
0
0
0
0
0
0
0
0
0
0
0
0
0
0
0
0
0
0
0
0
0
0
0
0
0
0
0
-3.35163e-05
0
-1.6347e-05
0
-2.63985e-05
-1.29902e-06
-1.3351e-05
1.68067e-05
1.26415e-05
-5.03117e-05
0
0
1.22409e-05
0
0
0
0
0
0
0
0
0
0
0
0
0
0
0
0
0
-0.033174
-0.0208915
0.00239627
-0.0089447
-0.0279564
0.0211215
0.0250694
-0.0211974
-0.00621414
-0.00482718
-0.0269274
0.0263928
0.0191095
0.00230501
-0.0139732
-0.017702
-0.0119518
0.00452945
-0.0119785
0.00300811
-0.0149568
-0.0130144
-0.0012719
-0.00640398
-0.0118963
-0.00222641
0.00911443
-0.015814
-0.00964748
-2.00686e-05
-0.00529222
-0.0107451
-0.0140705
0
1.82912e-05
0
0
0
0
0
0
0
1.86214e-05
0
0
0
5.3821e-05
-0.000140299
0
0
0
0
0
0
0
0
0
0
0
0
0
0
0
0
0
0
0
0
0
0
0
0
0
0
0
0
0
0
0
0
0
0
0
0.0811764
0.0311482
0.0014947
0.0497985
0.0796732
0.012798
0.0312644
0.0346012
-0.0118776
0.0124371
0.0377522
0.00192108
0.0107696
0.0257354
-0.026937
-0.0120353
0.0175132
0.0285798
-0.0179626
0.0132771
-0.0294512
2.18248e-05
0
0
-5.92275e-05
-2.22513e-06
0
0
2.57746e-05
0
0
0
0
0
0
0
0
0
0
0
0
0
0
-0.0184577
0.00888362
-0.00728874
-0.0115809
-0.023352
-0.0130994
0.0154372
0.00971945
0.0115102
0.00575463
-0.0352719
-0.0218113
-0.0180944
-0.00736537
0
0
0
0
0
0
0
-0.0240956
0
0
0.0149118
0
0.00537897
-0.0611034
0.00348743
0
0
0
0
0
0
0
0
0
0
0
0
0
0
0
0
0
0
0
0.0388892
-0.0303459
0.027001
0.0406811
-0.00439513
0.0659514
0.0710557
0.0233005
0.0187202
0.0415382
-0.032337
0.0537851
0.0238742
0.031099
0.014267
0.089538
0.0455628
0.0897016
-0.00451027
0.034213
0.0281357
-0.00395345
0.0125094
0.0244128
0.0419402
0
-0.00167636
-0.00881158
0.0222278
-0.00776296
-0.025661
-0.0180667
0.0493575
0.0301522
-0.0170008
0.00073034
0.075893
-0.0388076
0.0498307
-0.106079
-0.0463559
0.0558755
0.101734
-0.0748857
0.0596961
0.101811
0.0314982
-0.00972042
0.0087
-0.0520375
-0.0437997
0.00530549
0
-0.0473981
0
0
0
0
0
-0.0189105
0.0141137
0.00271332
-0.012906
0.00179999
0.00699864
-0.039454
0.00442913
-0.0319349
-0.0319682
0.0456172
-0.0610785
-0.0858756
-0.00679742
-0.024183
-0.0200629
0.0242582
-0.0213564
0.00946098
-0.0614307
-0.0132149
-0.00413583
0.0267183
-0.0288457
-0.0468908
-0.0361463
-0.027382
-0.0715202
-0.0640236
-0.0791044
-0.0207649
-0.0546288
-0.0714602
-0.0188588
0.061191
-0.0235144
0.0193879
-0.0567207
-0.0279243
0.0163376
-0.037661
-0.00673806
-0.0746977
-0.0554088
-0.0449686
-0.0665064
0.000214517
-0.0301078
-0.027986
-0.0308845
-0.047448
-0.0440489
-0.00314865
-0.00434106
0.0167911
0.0156627
-0.0149744
0.0242815
0.0221629
-0.0336113
0.0235505
-0.0277001
-0.0569685
0.0215159
-0.00592338
0.0485008
-0.0599208
0.0572766
-0.0588042
-0.0084982
-0.00875943
-0.0508539
0.00370922
-0.0701505
-0.0166877
0.0588125
-0.0329745
0.0594426
-0.0344386
0.0088505
0.0639826
-0.0386658
0.0657455
0.035284
0.0204958
0.0679281
-0.0480647
0.0713969
0.0189443
0.015775
-0.065854
0.023653
0.0672722
0.0445467
0.0186323
0.0699462
0.0148675
0.0615179
0.0812754
0.0546106
0.0670252
0.033415
0.0656743
-0.100709
0.0879703
0.0645354
0.0733555
0.0350947
-0.108999
0.103374
-0.0697874
-0.000548887
0.013323
-0.0358426
0.023705
-0.00549953
0.0126605
-0.000858969
-0.0592409
0.00421117
0.0395844
-0.00800216
0.000819497
-0.0149699
0
-0.00512553
0
-0.0191687
-0.0163433
0
-0.00519577
0
0
-0.0654107
0
0.102278
-0.0387541
-0.0733375
0
-0.00160204
0
0
0
0
0
0
0
0
0
0
0
0
0
0
0
0
0
0
0
0
0
2.71136e-05
7.83748e-05
0
0
0
0
0
0
0
0
0
0
0
0
0
-2.4342e-05
-9.06298e-05
0
0
0
0
0
0
0
0
0
0
0
0
-7.10414e-05
0
0
0
0
0
0
0
0
0
0
0
0
0
0
0
0
0
0
1.09581e-05
-0.000139782
0
-0.000172721
-8.25101e-05
0
-0.000136516
-0.000328164
0
0
0
0
0
0
0
0
0
0
0
0
0
0
0
0
0
0
0
0
0
0
0
0
0
0
0
0
0
0
-0.00683264
-0.010663
0.0145795
0.012562
-0.028707
-0.0177694
0.0141563
0.00624661
-0.0133085
0.00119554
0.00817012
0.0113804
-0.0177997
0.00705483
0.0124759
-0.00356014
0.0164959
-0.0275442
-0.0113453
0.00261218
-0.00444815
-0.00496175
-0.000609152
0.00381799
0.0146755
-0.0121427
0.00989975
-0.000891888
-0.0120713
-0.00343313
-0.0055711
0.00476319
-0.00390867
0
0
0
-9.96242e-05
0.000205632
0.000508136
0
0
0
0.00019246
0
0
0.000301566
0
3.3573e-05
0
0
0
0
0
0
0
0
0
0
0
0
0
0
0
0
0
0
4.96353e-05
4.80356e-05
1.96665e-05
0
-4.69634e-05
0
0
0
0
0.0547546
0
-0.00125571
0.0576655
0.0388677
0.0175635
0.0423203
0.0573514
0.03045
0.0225246
0.0610138
0.0236024
-0.00255323
0.0498195
-0.0250409
0.00401811
0.0475118
-0.0532603
-0.0120582
0.044046
0.0429311
-0.0147048
0.0280376
0.0310212
0.000254521
0
0
0.000275663
0
-3.8105e-05
0
-9.03278e-07
0
5.3243e-07
0
-1.13761e-06
-1.69939e-08
0
0
0
0
0
0
-3.53044e-05
0
0
0
0
0
0
0
0
0
0
0
0
0
0
0
0.00375644
0
0.00925329
-0.0191943
-0.0281965
-0.00427585
0.0270778
-0.0125219
-0.00182111
-0.04062
-0.0169498
0
0
0
0
0
-5.64566e-05
3.47736e-05
0
0
0
0
0
0
0
0
0
0
0
0
-0.000205248
2.99138e-06
-1.968e-05
0
0
0
0
0
0
0
0
0
0
0
0
0
0
0
-1.15425e-05
0
-1.19379e-05
0.0537364
0.042804
-0.0410402
0.0366064
0.0287848
-0.000308856
0.0487361
0.0567701
0.0204618
0.0328753
0.069135
-0.0231721
0.0692833
0.0316069
0.0201543
0.0682664
0.0356093
-0.0328292
0.0292588
0.0667444
-0.0471231
0.0387262
0.0779206
0.0372219
0.0242337
0.072416
-0.0485145
-0.00594149
0.0665449
-0.0777746
-0.0228917
0.0732165
0.0976265
-0.0268205
0.0744653
0.102608
0.0786755
0.106605
-0.0693065
-0.0232709
0.101606
0.0813671
-0.0198145
-0.0993623
0.0573089
0.0649637
-0.066973
0.0171013
0.025679
0.0137503
0.0315304
-0.0213586
-0.0366538
-0.00327282
0.00936787
0.0562999
-0.00026851
-0.0261824
0.0119042
0.0524566
0
0
-0.0169915
0.0327926
0.0356047
-0.0185345
-0.0183063
0.0438504
-0.0608183
-0.00655795
-0.0107275
-0.0384533
-0.0441426
-0.0166643
0
0
0
-0.0522984
0
0
0
0
0
0
0
0
0
0
0
0
-0.0105829
0
-0.0155386
0
-0.016658
-0.0295128
-0.0416098
0.000778229
-0.0306688
-0.0128916
-0.0438504
-0.00125987
-0.0551019
-0.0452959
0.00699401
-0.0355238
-0.0144197
-0.0428621
-0.0353947
0.0522871
-0.0386465
-0.0492836
-0.0571639
0.00441581
-0.0167219
0.0386311
0.0205435
-0.0259641
-0.0845431
-0.00696206
0.0349429
-0.0518426
-0.0136865
0.0574588
0.0745049
-0.0437991
0.0151372
0.0838829
-0.00567833
0.0503037
-0.0719798
0.0232051
-0.00900756
-0.0766488
-0.0240348
-0.0105383
-0.00508608
-0.0194906
0.0147714
0.0460286
-0.0097817
-0.0088183
0.017103
-0.00865839
-0.0315208
-0.0302797
-0.0403017
-0.00854049
0.0184626
-0.0651082
-0.0213731
0.0365013
-0.0522852
-0.0325489
-0.0687931
-0.080449
-0.0445106
-0.0569791
-0.0625362
-0.0191221
0.0680095
-0.0549124
-0.00974015
0.0744031
-0.0513555
0.00115546
0.0727071
-0.0506305
0.0171896
0.0716262
-0.0174701
0.0274492
0.0737617
0.016677
0.0519199
0.0706001
0.0343332
0.076578
-0.0619673
0.0343893
0.0881528
0.060645
0.0232698
0.0940703
0.0876491
0.0578208
0.0238501
0.073701
0.100164
0.0837413
-0.0623949
-0.0180329
0.0767335
0.0910937
0.0630498
0.0934232
-0.0138025
0
0
0.0275105
-0.00118188
-0.00453829
-0.0678509
-0.062413
0.0201461
0.0558267
0.0616427
-0.0181695
0.0150783
0
-0.0482744
0
0
0
0
0
0.00521284
-0.00746736
0
0
0
0
0
0
-6.97505e-05
0.000136447
0.000120184
0
6.19002e-05
0
0
0
0
0
0
0
0
0
0
-6.25126e-05
0.000264255
-0.000325608
0
0
0
-1.48028e-05
0
8.93268e-05
0
-3.09266e-05
0
0
0
0
0
0
0
0
4.83001e-06
-4.34837e-05
0
0
0
0
-0.000105199
0
0
0
0
0
0
0
0
-1.81701e-07
-9.72778e-07
0
0
0
0
0
0
0
0
0
0
0
0
0
0
0
-8.68216e-05
0
0
0
0
0
0
0
0
0
0
0
0
0
0
0
0
0
0
0
0
0
0
0
0
0
0
0
7.91653e-07
0
0
0
0
0.00950669
-0.0189044
0.0147502
0.0175388
-0.00693792
-0.0134593
-0.0130329
0.0172067
-0.0180639
0.00277793
0.0114095
-0.0205994
-0.00433253
0.0135569
-0.0204975
-0.00494661
0.0081651
0.0213132
-0.0136379
0.000362133
0.00984968
-0.00113876
0.00660342
0.00735709
-0.0109277
-0.00626087
-0.00895041
-8.07719e-05
-0.0132043
-0.00700297
-0.0129994
-0.00970473
0.000485077
-3.69423e-05
0
-0.000111113
7.78065e-05
-0.000327067
-0.000241411
0
0
0
0
0
0
0
0
0
0
0
0
0
0
0
0
0
0
0
0
0
0
0
0
-6.81732e-05
0
0
0
0
0
0
0
0
0
0
0
-0.00920698
0
-0.0205294
0.028224
-0.0372209
0.00833761
0.0128832
0.0420308
0.0373778
0.0201082
0.0398709
-0.0464662
-0.00666539
0.0399304
0.0335716
-0.00651982
0.0563071
0.0595375
-0.0243026
0.00755739
0.029559
-0.0202721
0.0336234
-0.0330173
0
0
0
0
0
0
0
0
0
0
3.93211e-07
0
0
0
0
0
0
0
0
-0.00554525
0
0
0
0
0
0
0
0
0
0
-0.00651681
0
0.00202049
0
0
0
0
0
0
0
0
0
0
-0.00451182
0
-0.0305987
-0.0313583
-0.022178
0
-0.0177017
-0.00199337
0
0
0
-2.1708e-05
0
0
-0.0399206
-0.00804878
-0.0464705
-0.00431128
0
0
0
0
0
0
-1.47206e-05
-2.25997e-05
3.03451e-06
0
-8.04635e-06
0
-4.14991e-05
0
0
0
0
0
0
3.71902e-07
0
-1.28869e-05
0
0
0
0
0
0
0
0
0
0
0
0
0
0
0.0367374
0.00722489
0.032045
-0.0193847
0.0187788
-0.038821
0.0412743
0.0476658
0.010674
0.0076244
-0.0603858
0.0548629
-0.00859622
-0.057587
0.00917019
0.0461243
-0.00643045
0.0701165
0.0823742
-0.0560714
0.0697047
-0.0148615
0.0605449
-0.0441964
0.0607781
0.0719125
-0.0145776
0.0562442
-0.0362428
0.0530048
-0.0685579
0.0555162
-0.0337873
-0.0219688
0.0446811
0.0513132
-0.0266541
0.079129
0.107625
-0.0201137
0.0835801
-0.102705
-0.00203056
0.0829378
0.0789325
0.0609138
0.0185989
-0.0577322
0.0414172
0.0207898
-0.018652
0.0204303
0.0369381
0.00111215
0.00997398
0.0618932
-0.0362089
0.0732272
0.0291835
0.0346404
0.067946
0.0101975
0.0618105
0.0319175
0.0783995
0.0498945
0.006071
0.0742612
0.0712858
-0.0143956
0.0737788
0.0931059
-0.0282329
0.0770713
0.113121
-0.0242372
0.0816521
0.105351
-0.01335
0.0840873
0.0952934
0.0820674
-0.0283417
0.109433
0.0834186
-0.018357
0.110093
-0.0203475
-0.0543645
-0.120594
0.0047929
-0.0221705
-0.0180532
-0.0399804
-0.0237931
-0.0427305
-0.047139
0.0259426
-0.0255357
0.0273581
0
-0.019894
0
0.024054
0.0290423
0.0789735
0.0448464
0.0127826
0.0646818
-0.037382
0.0170502
0.0457843
0.0252323
0.0133684
0.0461319
0.0241731
0.0147244
0.0426822
0.0168217
0.0398183
0.0515786
0.0135252
0.047098
0.0512957
0.00786706
0.0604969
0.0279582
0.0400633
-0.00184683
0
1.64602e-05
2.57786e-05
0
0.0466871
0
-0.0145933
0.0139145
-0.0224819
-0.0355744
0.014418
-0.00349601
1.39604e-05
0
-1.06128e-05
2.22384e-05
-1.41353e-05
-7.31802e-06
0
-4.37076e-05
0
0
0
0
0
0
0
0
0
0
0
0
0
-0.0365604
5.03399e-05
7.47788e-05
-0.00520003
0
0.000375953
-0.00912343
0.00851445
-0.0553154
-0.000430601
0.051002
-0.0660105
0.00428302
-0.0621814
-0.038155
0.00755066
-0.089468
-0.0470608
0.0481277
-0.0063963
0.0054307
0.0465874
-0.0235028
0.0459565
0.0705862
0.0043213
0.0645171
0.0237777
0.0726746
-0.0607313
-0.00882753
0.0698508
-0.0579504
-0.00835786
0.0478762
0.095391
-0.0249282
0.0688452
-0.0840875
0.0265011
-0.0266632
-0.0726478
-0.0159989
-0.0203636
-0.00375214
-0.0351375
-0.0105434
0.0321466
-0.0603932
-0.0559485
-0.0165187
-0.060818
-0.0642908
0.0335496
-0.073386
-0.0550789
0.0365296
-0.0493463
-0.0548456
-0.0892382
-0.0942778
-0.0560049
-0.0537602
-0.0826693
-0.0468597
0.0629477
-0.0858773
-0.0311524
0.0697745
-0.0680935
-0.0183712
0.0768397
-0.0545895
0.0122749
-0.0776238
-0.0545283
0.0251682
0.0810686
-0.0238378
0.0182675
-0.0683268
0.00520294
0.034237
-0.0591643
0.0243096
0.0617
0.0541921
0.0274299
0.0724407
-0.048632
0.0248766
0.0763992
-0.0477282
-0.0475589
0.0757507
0
-0.00243285
0.0239258
0
0
0
0
-0.0279006
0
0
-0.0665508
0
0
0
0
0
0
0
0
1.6103e-05
0
8.49949e-05
0
0.00887071
0
0
6.26055e-05
0
-0.000108646
0
-0.000187363
0
-6.89353e-05
0
0
0
0
0
0
0
0
3.86639e-05
5.46314e-05
-1.84524e-05
-0.000207719
0
-0.000238599
5.77229e-06
-2.85615e-05
9.06185e-06
0
0
0
0
0
0
0
0
0
0
0
0
-4.35822e-05
0
-0.000115903
0
0
0
0
0
0
0
0
0
0
0.003194
0.00201867
0
0
0
0
0
0
0
0
0
0
0
0
0
0
0
0
0
0
0
-8.17334e-06
1.07262e-05
0
0
0
0
-0.000102909
2.27927e-05
0
0
0
0
0
0
0
0
0
0
0
0
0
0
0
0
0
0
0
0
0
0
0
0
0
0
0
9.61117e-06
0
-4.14173e-05
0
0
0
-9.73293e-06
0
1.68765e-05
0.0188381
0.00403241
-0.0763583
-0.0712305
0.0310621
-0.00506792
0.0414844
0.0162467
0.0114828
-0.00167304
-0.0169404
0.019026
0.0154575
0.0185762
0.00466207
0.0113936
-0.0122839
0.00403462
0.0134272
0.00487939
0.00504729
0.00409171
-0.0159166
-0.0046349
-0.00156877
0.00155902
-0.0110282
-0.00611926
-0.00398349
-0.0127535
0.0113374
-0.031545
-0.0134499
-0.00661708
-0.0200645
0.00389601
0.000260905
-0.000168977
0
0
0
0
0
0
0
0
0
0
0
0
0
0
0
0
0
0
0
0
0
0
0
0
0
0
0
0
0
0
0
0
0
0
0
0
0
0
0
0
-0.0214008
0.0693143
0.00451609
0.00994308
-0.00929793
-0.00108665
-0.0107703
-0.00205125
-0.00670737
0.00164754
-0.0226455
0.0130849
0.0387268
0.0093551
0.0260511
0.0384112
-0.0122018
0.00972669
-0.0311504
-0.00963583
0.0188039
0.0312556
0.00250324
0.000791504
0
0
9.3992e-06
7.14709e-07
0
0
0
0
0
0
0
0
0
0
0
0
0
0
0
0
0
0
0
0
0
0
0
0
0
0
0
0
0
0
0
0
0
0
0
0
0
0
0
0
0
0
0
0
0
0
0
0
0
0
0.00663559
0.00308858
-0.0341972
0.00630813
-0.00280426
-0.00678032
0
0
0
0
0
0
0
0
0
0
0.000306381
0
-0.0025755
0
0
0
0
0
0
0
0
0
0
0
0
0
0
0
0
0
0
0
0
0
0
0
0
0
0
0
0
0
0
0
0
0
0
0
0
-0.00255873
0.0253174
0.0263871
-0.0446064
0.0209791
0.0289609
-0.0443004
0.00624576
-0.0503861
-0.0205482
0.035277
-0.0664965
-0.01432
0.0746719
-0.0834066
-0.0231437
0.0657188
0.092472
-0.016406
0.0617926
-0.0741585
-0.0103667
0.0452854
-0.0355067
-0.0231678
0.088035
-0.111175
-0.00605928
0.0917332
0.091453
-0.017562
0.08554
-0.0999565
0.0550801
-0.00348572
-0.0948898
0.0365758
-0.0174566
0.0328536
0.0247437
0.00710514
-0.018633
-0.030082
0.0363682
0.0584716
0.0770764
0.0466371
0.02961
0.0820909
0.0591966
-0.0313024
0.11453
0.0725826
-0.00310221
-0.0823285
0.064503
-0.00146783
0.0730339
-0.0306159
0.0762508
0.111976
-0.0412147
0.0789245
0.128877
-0.0301188
0.0883374
0.119986
-0.013008
0.0832178
-0.0978294
-0.0163374
0.0821798
-0.0935276
0.0827537
-0.0186062
-0.109675
0.10088
-0.00379318
0.0894075
0.0296277
-0.00914523
-0.0102921
0.0499418
-0.0618036
0.0560889
-0.00239682
-0.0423188
-0.0181195
-0.0196686
-0.00359354
0.077045
0.0329558
0.027011
-0.048968
0
-0.0645312
0.0608733
0.0311299
0.0284741
0.0632652
-0.0286389
0.0258616
0.0540684
-0.0227292
0.0224911
0.0172877
0.0427824
0.0274791
0.0384424
0.0085576
0.0352672
0.0462263
-0.0112309
0.0414308
0.0543911
0.00973526
0.033204
0.0556606
-0.000567287
0.0362633
0.0406499
-0.00343942
0.0247135
0.0254965
0.0119785
0.0284253
0.0347933
0.0374591
0.00290935
0.0265616
0.0364799
0.0150391
0.00439364
-2.68623e-05
3.34938e-05
6.82114e-05
-6.74423e-05
0
3.6409e-05
0
-0.00285482
0
0
0
0
-0.000111838
0
0
0
0
0
0
0
0
0
0
0
0
0
0
0
3.80595e-05
3.17105e-05
0
-2.46936e-05
0
0
0
0
-0.0254251
-0.00847518
-0.0227953
0.14853
0.0135511
0.00366736
-0.0643978
-0.0360407
0.0730536
0.0241905
-0.0816504
-0.000914609
0.0536721
-0.0049533
-0.0225978
0.0547455
0.00661616
0.0361471
0.0433733
-0.00500521
-0.0570542
0.0253453
-0.0253375
-0.0822734
-0.0296597
0.0476228
0.0671934
-0.0770731
0.0411449
0.0677325
-0.0417467
0.0325735
-0.0881065
-0.0581402
0.0350611
0.0908762
-0.00469469
-0.0486412
-0.0710837
-0.0545181
-0.0480718
-0.0166908
-0.0591542
-0.0278922
-0.046802
-0.078512
-0.0776288
0.00190491
-0.0838038
-0.0954475
0.0377743
-0.0522208
-0.0651032
-0.0942973
-0.0986159
0.0144931
-0.0953208
-0.0709727
0.048922
-0.0919199
-0.0491159
0.0543885
-0.0853425
-0.0309155
-0.0664062
-0.0631622
-0.00509969
0.0745661
-0.0578416
0.0195059
-0.0756217
-0.0558409
0.0168323
0.0683787
-0.0238149
0.00603972
0.0451696
0.00582385
0.025457
0.039313
0.0229051
0.054116
-0.0363095
0.0296243
0.0688137
-0.0355146
-0.0333701
0.0715627
0
0
0
0
0
0
0
0
0
0
0
0
0
0
0
0
0
0
0
0
0
0
-0.000143631
0
0
0
0
0
0
-3.28501e-06
0
0
0
0
0
0
0
0
0
0
0
0
3.04808e-05
-2.05994e-05
-2.20554e-05
0
3.21419e-06
0
0
0
0
0
0
0
0
0
0
0
0
0
0
0
0
0
0.00391969
-0.00329499
-7.13018e-05
0
0
0
0
0
3.79763e-05
0
8.98836e-05
-0.000539721
0
-0.00192471
0
-0.00768529
0
0
-2.29173e-05
-6.00638e-05
5.86761e-06
0
-3.09178e-05
0
0
0
0
0
0
0
0
0
-5.05942e-05
1.95745e-05
-0.000119021
0
1.48939e-05
0
-2.92998e-05
-7.52746e-05
2.66439e-05
0
4.05718e-05
0
0
0
0
1.00618e-05
0
-6.44229e-05
0
-1.55225e-05
-2.36264e-05
0
0
0
0
0
0
0
0
0
0
0
0
0
0
0
0
0
0
0
0
0
-5.72325e-06
0
7.49874e-06
0
0
0
-4.39686e-05
0
0
0
0
0
0
0
0
0.00527
0.016533
0.00779761
-0.00492559
0.028342
0.0523014
0.0186662
0.00349633
-0.000182267
-0.00642024
0.0015929
-0.00215113
0.0413026
0.0165086
0.00466575
0.00832298
-0.0141158
0.00433449
-0.0247069
0.0323949
-0.000511846
0.010802
0.0149298
0.00339492
0.00524011
-0.00489955
-0.000208754
0.00671939
-0.00945316
-0.00268518
0.00335133
0.0153192
-0.00678562
0.00212931
0.00377648
-0.0301281
0.0122716
-0.025391
-0.0237177
-0.0111445
0
0
0
0
0
0
0
0
0
0
0
8.37564e-06
0.0498531
-0.0265898
1.92028e-05
0
0
0
0
0
0
0
-1.08063e-05
0
0
0
0
-4.28359e-07
0
8.38725e-07
0
4.09414e-07
0
0
0
0
0
0
0.0261406
0.00657038
0.00681278
0.0108198
-0.0177705
0.0389198
0.0207522
-0.0273987
0.000111602
0.0441387
0.02019
0.0225015
-0.0128267
-0.020022
0.0113706
-0.0237506
-0.0152918
-0.00107971
0.0105171
0.0213967
0.0194722
-0.00754395
0.00741779
0.00305096
2.06e-08
0
0
7.54114e-07
0
-7.91211e-06
0
0
0
0
4.51782e-10
0
-1.37035e-06
0
1.37365e-06
0
0
0
0
0
0
0
8.24912e-05
0
1.62728e-05
-5.40363e-05
2.02268e-05
3.56683e-05
0
0
0
0
0
0
0
0
0
0
0
0
0
0
0
0
-8.41291e-06
6.16803e-05
0
0
0
0
0
0
0
0
0
0
0
0
0
0
0
0
0
-2.0313e-05
0
2.89863e-05
-0.00238103
-0.021857
0.0354797
-0.0276976
-0.00920749
0.00262995
0
0
0
0
0
0
0
1.23987e-05
0
-1.4831e-05
0
3.20273e-05
5.38008e-08
0
0
0
0
0
0
0
0
0
0
2.71141e-05
-1.37184e-05
0
0
0
0
0
0
0
0
0
0
1.8304e-05
1.10001e-05
3.82926e-06
0
3.95002e-05
0
0
0
0
0
0
0
0
0
-8.15829e-06
0
2.81302e-05
-0.016018
0.0342439
-0.0253291
-0.0222731
-0.00520446
-0.0537765
-0.0720878
-0.0144061
0.0353359
-0.0649779
-0.0551706
0.0308797
-0.0116209
0.0179847
-0.01205
0.0265318
0.0147758
0.00227745
0.0493644
0.0484507
-0.0288909
0.074317
0.10839
-0.0203354
0.0739534
0.0936454
0.00721112
0.0655918
0.0512266
0.0136896
0.0555942
0.0365687
-0.00332031
0.0955722
-0.0941803
-0.020128
0.0934048
-0.109498
-0.0330495
0.0874244
0.111599
0.0473552
-0.0473073
-0.11658
-0.00737666
-0.0377236
0.0336136
0.0117205
0.00661962
0.0146062
-0.0552365
0.0237685
0.0544937
0.0521881
-0.0238583
0.095505
0.0430238
-0.0403675
-0.109034
0.0755202
-0.0327039
0.103707
0.0634853
-0.0347394
-0.105626
-0.0436381
0.0757139
-0.118936
-0.0376089
0.0770153
-0.121447
-0.0138026
0.0798316
0.096186
0.000369509
0.0912018
0.0826504
0.000233662
0.0775768
-0.0876455
0.0944758
0.00932714
0.080575
0.0531315
0.00656753
-0.0872377
-0.0317736
-0.0332327
-0.00679917
0.0105157
-0.0434007
0.0379631
-0.0536151
-0.0320957
-0.0600319
-0.0397912
0.0130865
-0.0769758
0.0605189
-0.0319412
0.0372995
0
0.0480668
-0.0277866
0.0273728
0.0315946
0.0409379
0.0124822
0.0274608
0.0347935
-0.00708326
-0.00340679
0.0292719
0.0370955
0.0269596
0.0226018
-0.00749624
0.047025
0.0421592
0.0023489
0.0500359
0.0501549
-0.00547201
0.0433843
0.0514293
0.00231181
0.0357338
0.041457
-0.010427
0.0268785
0.0261058
0.0119379
0.0211145
0.0068658
0.0120683
0.0370234
0.0502838
0.00825551
0.0190459
0.0216483
-0.0238764
-5.37419e-05
0
0
0
0
0
0
0
0
0
0
0
0
0
0
0
0
0
0
0
0
0
0
0
-9.51093e-06
0
-4.6437e-05
0
-2.49872e-05
0
0
0
0
0.00229832
0
0
-0.00967913
-0.00426286
-0.0307376
0
-0.0301398
-0.04894
0.0107614
-0.0201706
-0.0446956
0.0146699
0.0988228
0.0520429
0.042463
0.0166365
0.0223341
0.0415662
0.00461118
0.0468137
0.0353113
-0.0225477
-0.0801379
0.0116054
-0.0412702
0.0957864
0.106054
-0.0324193
0.0325091
-0.0799421
-0.066824
0.0679567
-0.0518202
0.0155991
0.0893342
-0.052699
0.0291467
-0.100898
-0.0177666
-0.0726205
-0.0732084
-0.0752269
-0.0830822
-0.0345529
-0.0826304
-0.0502322
-0.0589506
-0.0991903
-0.110766
0.00988732
-0.110646
-0.0939004
0.00588664
-0.108561
-0.0893155
0.0326804
-0.0994414
-0.0654265
0.0475982
-0.0905989
-0.0489829
0.0537869
-0.0778824
-0.0196643
0.0655814
-0.0617393
-0.00440395
0.0669433
-0.0535168
0.00508647
-0.0579398
-0.0376333
0.000502852
0.0385485
-0.0105204
0.00172357
0.0228136
0.0173547
0.0199766
0.0160668
0.0315648
0.0404682
-0.012034
-0.0123251
0.0516159
0
0.00253942
0.00186152
0
0
-7.2617e-07
7.59655e-07
0
0
0
0
0
0
0
0
0
3.38773e-05
-2.1371e-05
0.000264348
4.40505e-05
-0.000182963
8.38347e-05
2.97959e-05
9.74135e-05
-3.61197e-05
0
0.000112295
4.33665e-05
0.00821858
-0.0172993
-0.0348862
0
0
0
1.36455e-05
0
2.95307e-05
-9.09702e-05
1.64035e-05
1.84427e-05
-0.00363884
-6.13104e-05
0
0
0
0
0
0
0
0
0
0
0
-1.34516e-06
4.37802e-07
0
0
0
0
0
0
-0.00197031
0
0.0192519
0
0.0104313
0
0
0
0
0
0
0
0
-3.10111e-05
0
0
0
0
0
0
0
0
0
0
0
-3.49797e-05
0
0
0
0
0
0
0
0
0
0
0
0
-8.30915e-06
0
0
0
0
0
0
0
0
0
0
0
0
0
-7.77474e-05
0
0
0
0
0
0
0
0
0
0
0
0
0
0
0
0
0
0
0
0
0
0
0
0
0
0
0
0
0
0
0
0
0
0
0
0
0
0
0
0
0
0
0
0
0
0
0
0
0
-1.18012e-06
3.34975e-11
0
0
0
0
0
0
0.020303
0.00399394
0.0133162
-0.00332203
-0.00639957
-0.0288842
-0.0176806
0.00393585
0.0379573
-0.00342122
0.0247816
0.0249428
0.00653122
0.0361119
-0.0153137
-0.00028359
-0.0219249
0.0998749
0.0207431
0.0173653
-0.0246852
0.0278518
-0.00234349
0.0236986
0.0241101
-0.00707682
0.0382766
0.014071
0.0193477
0.0388076
0.00358829
-0.00510151
0.0104925
-0.0120939
-0.00157424
0.00695917
-0.00970844
-0.00870573
-0.00783168
0.0433618
0.0202665
-0.000494125
-0.0196302
-0.0410182
0
0
0
0
0
0
0
0.00386227
-0.0416587
0
0
0
0
0
0
0
0
0
0
0
0
0
0
0
0
8.05144e-05
-1.0464e-05
-0.000217117
0
-8.16171e-05
-2.63289e-07
0
0
0
0
0
0.015327
0.0453327
0.0278485
-0.00115652
0.00508921
0.0232051
0.00331441
-0.0454482
0.0143091
0.0465118
-0.0187455
-0.012335
-0.00779956