/*--------------------------------*- C++ -*----------------------------------*\
  =========                 |
  \\      /  F ield         | OpenFOAM: The Open Source CFD Toolbox
   \\    /   O peration     | Website:  https://openfoam.org
    \\  /    A nd           | Version:  8
     \\/     M anipulation  |
\*---------------------------------------------------------------------------*/
FoamFile
{
    version     2.0;
    format      ascii;
    class       volScalarField;
    location    "10860";
    object      nut;
}
// * * * * * * * * * * * * * * * * * * * * * * * * * * * * * * * * * * * * * //

dimensions      [0 2 -1 0 0 0 0];

internalField   nonuniform List<scalar> 
526318
(
0.00014809
0.000111285
6.78842e-05
8.8812e-05
5.4154e-05
0.000144308
0.000170686
0.000132377
0.000142649
0.000152098
4.74085e-05
8.54596e-05
3.04527e-05
0.000193971
0.000120077
0.000119499
4.40281e-05
7.73708e-05
0.000127403
0.000121204
0.000115635
7.54469e-05
0.000140935
0.000166808
0.000109476
0.000128624
9.36663e-05
0.00028821
0.000105225
0.000106733
0.000101789
5.0473e-05
0.000146347
7.65508e-05
3.66054e-05
3.42518e-05
4.34278e-05
0.000120464
9.91766e-05
7.39211e-05
0.000141535
0.000112942
3.2104e-05
6.19084e-05
0.000137416
8.57579e-05
0.000106021
5.45751e-05
0.000147498
0.000242884
2.53678e-05
7.92214e-05
6.83017e-05
0.00011799
0
9.79615e-05
4.83038e-05
0
0.000234883
0.000159014
5.55649e-05
0.000109733
3.32478e-05
0.000105605
0.00014106
9.53504e-05
0.000236998
5.86045e-05
0.000173187
0.000182518
5.56434e-05
1.3503e-05
8.97357e-05
0.000196372
5.09197e-05
0.000156041
0.000193436
0.000208001
0.000191427
0.00017313
0.00020633
0.000221552
0.000198087
0.000199554
0.000211822
9.50343e-05
3.21934e-05
0.000130044
2.45941e-05
0.000103157
1.87111e-05
8.5594e-05
0.000102476
7.83968e-05
0.000118303
6.54349e-05
8.77035e-05
4.26236e-05
6.9151e-05
1.20536e-05
0
0
0
0
0
0
0.000119401
2.66408e-05
0.000138398
0.000102712
7.03077e-05
0.000134601
0.000171825
0.000127245
5.84248e-05
0.000236774
0.000167773
0.000152558
9.58139e-05
5.46027e-05
8.70763e-06
1.44782e-05
4.60522e-05
3.05252e-05
1.22342e-05
1.2815e-05
3.44319e-05
1.37421e-05
3.23089e-05
6.97948e-06
3.04558e-05
3.2498e-05
1.27705e-05
9.99627e-06
1.79988e-05
1.13664e-05
1.71098e-05
2.00309e-05
1.93172e-05
9.30899e-06
2.68117e-05
2.68492e-05
5.0204e-05
4.11969e-05
2.68342e-06
2.30959e-05
9.85923e-06
1.89349e-05
1.40487e-05
3.65278e-05
1.32554e-05
7.03962e-05
2.71392e-05
5.1539e-05
1.70457e-05
9.86098e-06
1.5284e-05
3.49959e-05
1.56058e-05
0
1.50888e-05
6.36321e-07
7.7165e-06
0.000137009
0.000164262
0.000162675
0.000205861
0.000162937
0.000107905
3.56816e-05
0.000177599
0.000148295
0.000179319
0.000211077
0.000210952
0.000128582
0.000109891
3.96094e-05
5.55454e-05
6.20572e-05
1.1824e-05
5.18566e-05
1.50565e-05
4.86192e-05
2.58183e-05
9.35947e-06
1.374e-05
1.37485e-05
3.08488e-05
1.97064e-05
1.83235e-05
1.29466e-05
5.78409e-05
5.49579e-05
4.3874e-05
4.96089e-05
5.10586e-05
5.04098e-05
2.85383e-05
2.95979e-05
4.2413e-05
2.28305e-05
7.30376e-06
3.72477e-05
2.9719e-05
2.16992e-05
1.62739e-05
2.94878e-05
1.65759e-05
1.74727e-05
9.13359e-05
3.29036e-05
0.00012445
5.19079e-05
0.000170898
2.78368e-05
0.000102312
3.2506e-05
7.31347e-05
0.000136994
0.00011561
7.94396e-05
0.000165095
5.05792e-05
0.00012314
4.94377e-05
0.000123641
4.89952e-06
6.8282e-05
0
0
0
0.000323331
0
0
0
0
0
0
9.38844e-05
0.000209933
0.000174372
0.000166814
9.64299e-05
0.000169531
0.000251039
0.000133044
0.000163556
0.000182786
0.000221833
0.000134627
5.65945e-05
8.17716e-05
9.03893e-05
9.21618e-05
9.66701e-05
4.42988e-05
6.93326e-05
7.18265e-05
4.90675e-05
8.19889e-06
0
0
0
0
0
0
0
0
0.000169329
0.000110088
0.000143921
0.00013275
7.42454e-05
0.000139956
6.46249e-05
0.000147491
0.00012772
5.57799e-05
0.000177789
0.000110865
4.06795e-05
1.65001e-05
1.08907e-05
9.93799e-06
2.33393e-05
2.53994e-05
1.57102e-05
1.15036e-05
1.04346e-05
1.47734e-05
3.29812e-05
3.55565e-05
0
3.27061e-06
8.42074e-06
2.28566e-05
6.60493e-05
4.4428e-05
2.82199e-05
3.11343e-05
0
0
2.00132e-05
6.39908e-05
8.26473e-06
2.3094e-05
5.36041e-05
5.14047e-05
2.38726e-05
0
0
0
0
0
0
2.98434e-05
5.94304e-05
1.25061e-05
7.10213e-05
9.76581e-05
0.000126585
0.000122732
0.000150051
9.14408e-05
0.000224824
0.000199023
6.66648e-05
0.000173999
0.00014875
0.000290523
0.000119483
7.84463e-05
4.47456e-05
2.15919e-05
4.27511e-05
3.55998e-05
3.45468e-05
4.59505e-05
5.24584e-05
1.85602e-05
1.11113e-05
2.90321e-05
1.31833e-05
2.11128e-05
2.60684e-05
3.81879e-05
1.96121e-05
3.63497e-05
2.23447e-05
2.68803e-05
2.72512e-05
2.70258e-05
2.97224e-05
0.000103623
4.34047e-05
0.000116369
4.76579e-05
5.74565e-06
4.64889e-05
1.39121e-05
9.09944e-05
7.99474e-05
1.41241e-05
3.26681e-05
7.27561e-05
0.000156447
9.79316e-05
0.000115543
8.17971e-05
0.000102508
9.02578e-06
7.8946e-05
9.86909e-05
4.4673e-05
5.64509e-05
5.05905e-05
2.51143e-05
8.63942e-05
9.039e-06
0.000100752
0.0001542
3.56301e-05
0.000182699
0.000128281
4.96717e-05
5.51459e-05
3.70371e-05
6.79277e-05
2.65738e-05
6.93777e-05
6.85419e-06
7.95794e-05
3.11895e-05
2.37235e-05
6.45509e-05
0.0001023
4.2235e-05
8.59275e-05
0
0
0
0
0
0
0
0
0
0
0
0
0
0
0
0
0.00012533
0.000154932
0.000156932
0.000101119
0.000108476
0.000190832
8.5556e-05
0.000203243
4.42405e-05
0.000160379
6.11566e-05
2.25377e-05
7.06009e-05
3.66911e-05
2.71093e-05
5.5468e-05
7.90679e-05
4.89399e-05
2.9093e-05
4.61587e-05
3.84737e-05
2.5739e-05
0
2.16591e-09
2.70346e-09
0
0
0
0
0
1.36019e-09
1.89069e-09
0
0
0
0
0
0
0
0
0
0
0
0
0
0
1.54272e-05
0
0.000167319
0.00020641
5.93175e-05
0.000148564
0.000114988
7.89735e-05
0.000147326
8.03746e-05
0.000134604
1.4423e-05
0.000155051
2.4846e-05
2.40736e-06
1.17216e-05
3.05706e-05
3.30837e-05
4.30625e-06
2.16766e-05
8.65461e-06
6.68214e-06
1.17901e-05
2.77106e-05
2.48599e-05
8.39925e-06
0
0
1.5763e-05
2.54539e-06
0
1.04438e-05
1.50362e-05
3.00356e-05
0
0
0
0
0
0
0
0
0
0
0
6.0015e-05
5.49246e-05
5.53543e-05
0.00012022
3.51315e-05
1.62348e-05
1.01824e-05
6.80047e-05
5.24266e-05
0.000175783
9.59428e-05
4.5035e-05
7.86545e-05
5.48938e-06
5.24231e-05
0.000132031
0.000142605
7.83389e-05
0.000146488
0.000196974
6.6862e-05
0.000247045
0.000215056
0.000172238
0.000161242
0.000238299
0.000152939
9.18809e-05
9.98578e-05
2.38982e-05
9.25492e-06
4.35783e-05
8.35053e-06
0
0
4.12879e-06
7.03862e-06
3.50256e-05
1.34506e-05
3.22721e-05
4.31647e-05
7.66804e-06
5.73003e-05
2.44474e-05
5.85444e-05
4.18015e-05
4.05083e-05
4.93573e-05
6.21347e-05
6.45067e-05
3.56375e-05
7.79813e-05
4.29273e-05
9.59626e-05
4.00615e-05
4.64821e-05
9.53817e-05
5.51056e-05
8.32996e-05
2.44069e-06
5.27921e-05
6.62592e-05
6.32141e-05
4.63603e-05
8.82972e-05
6.5935e-05
2.48035e-05
6.1955e-05
2.53086e-05
0.000116678
9.09661e-05
0.000103708
0.000101321
0.00013107
0.000139455
1.55423e-05
4.71262e-05
4.53275e-05
1.86383e-05
2.5861e-05
8.89614e-05
6.13409e-05
0.000122684
5.52339e-05
4.73048e-05
1.87057e-05
0
0
2.83654e-05
8.98328e-05
5.55072e-05
0.000169797
7.06543e-05
0.000149507
6.22648e-05
2.58512e-05
0
0
0
0
0
0
0
0
0
0
0
0
0
0
0
0
0
0
0
0
0
0
0
0
0
0
2.34721e-09
0
5.78888e-11
0
1.01788e-09
2.54404e-09
0
0
0
0
0
0
0
0
0
0
0
0
0
0
0.00012428
0.000136356
0.000223184
4.77716e-05
6.20966e-05
0.000152509
0.000110629
6.64278e-05
4.31588e-05
0.000103229
8.88739e-05
8.28958e-05
9.41114e-05
4.87739e-05
8.57759e-05
4.58112e-05
2.8186e-05
3.68839e-05
3.37876e-05
2.16117e-05
3.65678e-06
3.2983e-05
0
0
0
0
0
0
0
0
0
0
0
0
0
0
0
0
0
0
0
0
0
0
0
0
0
0
0
0
0
0
0
0
0
0
0.000113873
2.53168e-05
0.000115505
0.000219166
0.000139083
0.000113365
0.000170561
8.84506e-05
9.40192e-05
0.000197967
0.000156233
0.000156307
7.59064e-05
0.000197857
8.44161e-10
0
0
0
0
0
0
0
0
0
0
0
0
0
0
0
0
3.90462e-05
3.61793e-05
2.93146e-05
8.6208e-06
1.92582e-05
3.38809e-05
3.9755e-06
5.41126e-06
0
0
0
0
0
0
0
0
0
4.73087e-07
0
0
0
0
0
0
0
0
0
0
0
0
0
0
0.000161163
0.000131909
0.000112833
0.000134799
7.20223e-05
7.26983e-05
0.000191477
0.000176104
0.000180465
0.000194772
5.74994e-05
3.73292e-05
7.96448e-05
1.01786e-05
9.36409e-05
8.20999e-05
3.50848e-05
9.97074e-05
0
6.74726e-06
6.97571e-05
0
3.13278e-05
0.000152931
3.924e-05
0.000166504
0.000216796
0.000114667
0.000194188
0.000135443
0.000105385
7.80567e-05
0
5.03039e-06
8.4427e-06
1.91539e-06
0
0
0
0
0
6.2569e-06
2.25192e-05
2.47576e-06
1.82703e-05
5.35329e-05
3.05433e-06
1.84652e-05
2.57353e-05
9.68372e-06
6.71228e-05
3.66648e-05
6.55127e-05
8.99636e-05
4.74474e-05
6.6962e-05
8.40351e-05
1.27219e-05
7.26661e-05
4.77138e-05
4.30848e-05
8.77899e-05
5.36908e-05
6.0626e-05
5.27638e-05
6.29664e-05
8.63039e-05
7.6238e-05
2.98858e-05
6.79815e-05
7.04422e-05
0.000162238
6.49059e-05
0.000129149
0.00010811
0.0001933
0.000173266
0.000169158
0.000169371
9.30037e-05
0.000157578
0.00018671
0.000197739
0.00022483
0.000195992
0.000201071
0.000233745
0.000229186
0.000215114
0.000205971
0.00023003
0.000204315
0.000179473
0.000180111
0.000201453
0.000259
0.000219442
0.000297845
0.000166667
0.000179854
0.000295926
0.000345438
0.000205404
0.000326083
0.000189682
0.000349297
0.000222991
0.000322284
0.000275807
0.000347941
0.000265908
0.00029014
0.000309582
0.000324961
0.000281749
0.000277507
0.000317986
0.000322186
0.000320205
0.000272703
0.000292742
4.12666e-05
3.10204e-05
9.53354e-06
2.53896e-05
1.5534e-05
4.91849e-05
3.45767e-05
1.02434e-05
2.2438e-05
0
0
0
0
0
0
0
1.8204e-05
0
0
0
0
0
0
0
0
0
0
0
0
0
0
0
0
0
4.05923e-09
0
0
0
0
0
0
0
0
3.15989e-09
0
0
0
0
0
0
0
0
0
0
0
0
0
0
5.60324e-10
6.89256e-11
0
0
8.65517e-11
0
0
0
0
0
2.57469e-10
1.1529e-09
0
7.79326e-10
0
0
0
0
0
0
0
0
0
0
0
0
0
0
0
0
0
0
0
0
2.34611e-09
0
0
0.000157366
5.42024e-05
4.26892e-05
0.00021351
9.97519e-05
0.000120245
0.000100784
4.09947e-05
0.000107889
7.2324e-05
5.30695e-05
8.06883e-05
5.48904e-05
6.2692e-05
4.3048e-05
4.28957e-05
1.7644e-05
5.03857e-05
4.71248e-05
4.78681e-05
4.40593e-05
6.27649e-05
0
0
9.84982e-10
7.17316e-10
0
0
0
0
1.68432e-09
0
0
0
0
0
0
0
0
0
0
0
0
0
3.86719e-09
3.17097e-09
0
0
0
0
6.46487e-06
0
1.77821e-05
0.000156848
0.000177567
0.000162261
0.00019922
0.000150272
0.000207481
0.00024058
0.00022593
0.000239024
0.000202628
0.000175625
0.000186854
7.95245e-05
9.33481e-10
0
0
0
0
3.64343e-11
0
0
1.63496e-11
0
0
0
0
0
0
0
0
0
0
0
0
0
0
0
2.83705e-07
0
1.21775e-05
2.58705e-05
2.08799e-05
2.75677e-05
0
0
0
0
0
1.90747e-09
0
0
0
0
0
0
0
0
1.3082e-08
1.42344e-08
0
0
0
0
0
0
0
0
0
0
4.02363e-10
0
0.000174316
0.000231231
0.000131762
0.000120347
0.000106548
0.000109953
0.000152471
0.000236968
0.000288277
0.000179937
0.000170989
0.000257697
0.000182438
0.000315388
0.000300189
0.000169875
0.000244493
0.000371991
0.000324916
0.000380928
0.000377687
0.000363017
0.000388888
0.000378236
0.000289404
0.000298096
0.000317696
0.000328581
0.000373477
0.000371314
5.80065e-05
3.58491e-05
9.55809e-05
7.58211e-05
3.54973e-05
2.4828e-05
4.77411e-05
6.77954e-05
0
1.14194e-06
0
1.17261e-05
0
0.000194021
9.98535e-05
0.00020105
0.00017954
9.66971e-05
3.72086e-05
0
0
0
0
0
0
0
0
0
0
0
0
0
1.68856e-05
0
9.0967e-06
6.17768e-06
2.09111e-05
3.68002e-05
3.15029e-05
2.14254e-05
3.27185e-05
5.79956e-05
4.11304e-05
4.47268e-05
1.39994e-05
3.66705e-05
5.71599e-05
4.49325e-05
9.66793e-05
7.55459e-05
5.44549e-05
8.71324e-05
6.53662e-05
0.000103611
0.000112018
9.79616e-05
0.000140429
8.45367e-05
7.34384e-05
0.000117743
0.000152231
0.000122906
7.05028e-05
0.000145606
0.000198118
0.000111989
0.000107105
0.000238659
0.000214715
0.000145611
0.000234007
0.000194443
0.000242813
0.000158771
0.000210241
0.00027768
0.000243977
0.000175598
0.000216377
0.000216407
0.000210398
0.00025753
0.000210274
0.000276369
0.000222744
0.000302745
0.00023809
0.000313793
0.00025486
0.000252216
0.000340389
0.000299294
0.000316431
0.00029146
0.000225198
0.000285498
0.000250289
0.000209155
0.000268662
0.00019649
0.000271596
0.000170266
0.000183396
0
0
0
1.53995e-05
0
3.37622e-05
0.000103661
9.31489e-05
0.000141755
0
0
0
0
9.03543e-07
0
0
0
0
0
5.42205e-09
4.13692e-09
0
0
0
0
0
0
0
0
1.00314e-09
8.64331e-09
0
0
0
4.93236e-09
0
0
0
0
0
0
0
3.47409e-09
0
0
0
0
0
0
0
0
2.85437e-11
0
0
0
0
0
0
0
0
0
0
0
0
0
0
1.50761e-09
0
0
0
0
0
0
0
0
0
0
0
0
0
0
0
0
0
0
0.000155922
9.85336e-05
6.35599e-05
0.000150729
9.81343e-06
9.17871e-05
3.20578e-05
0.00011386
3.46621e-05
0.000106938
5.98432e-05
1.19354e-05
3.0191e-05
4.02852e-06
6.61339e-05
6.13886e-06
4.04877e-05
4.70037e-05
2.59894e-05
1.63648e-05
2.45362e-05
1.46842e-05
5.59622e-10
0
2.72109e-11
0
0
0
0
0
0
0
0
0
0
0
0
0
0
0
0
0
0
0
0
0
0
0
0
0
4.60241e-05
0
6.471e-05
0.000117766
5.95025e-05
0.000117828
0.000189299
0.000179187
0.000183928
0.00020204
0.000193596
0.000193661
0.000124545
5.99952e-05
0.000112589
0.000192661
0
0
0
0
0
0
0
0
0
0
0
0
0
0
0
0
0
0
0
0
0
0
2.33438e-07
0
0
0
0
0
0
0
0
6.18696e-06
1.68036e-05
0
0
0
0
0
0
1.87484e-05
3.15994e-06
0
0
0
0
0
4.38267e-10
7.02184e-10
0
0
0
0
0
0
0
0
0
0
0
0
0
0
0
0
0
0
0.000117593
9.70859e-05
0.000165568
0.000146513
0.000107937
0.000114807
0.000133147
2.03078e-05
0.000135877
9.13876e-05
0.000161067
5.90629e-05
0.000117389
0.000108039
0.00012771
0.000200742
0.000123292
0.000102826
9.58602e-05
0.000125933
0.000117531
6.82068e-05
3.97152e-05
0.000142675
0.000122494
0.000155125
5.69802e-05
0.000163905
0.000153347
0.000288935
0.000256735
0.000211107
0.000300028
0.00030597
0.000194343
0.000132273
0.000183061
8.51211e-05
0.000144676
0.000103506
9.17665e-05
0.000169387
0.000104638
0.000301431
0.000161956
0.000250983
0.000130293
0.000267157
0.000166898
0.000287179
0.000187369
0.000342017
0.000321366
0.000399568
0.000411782
0.000432382
0.000463363
0.000456734
0.000450929
0.000313398
0.00031798
0.000425883
0.000402754
0.000103491
5.31486e-05
0.000105549
4.0851e-05
7.74217e-05
0.00013598
3.90564e-05
2.13995e-05
6.42361e-05
0
0
9.17346e-05
9.83894e-05
9.51204e-05
9.62531e-05
0.000103378
0.000147806
8.99957e-05
0.000162986
0.000125405
0.000145149
0.000123322
8.39015e-05
5.9634e-05
6.53175e-05
4.57539e-05
0.000146293
6.55594e-05
0.000100108
0
0
1.25202e-09
6.06229e-05
0
7.38982e-05
0.000138378
0
8.3047e-10
0
2.27676e-09
3.50793e-09
0
0
0
0
0
0
0
0
0
0
2.65987e-09
0
5.25682e-06
0
6.63158e-05
2.25458e-05
5.82933e-05
5.11992e-05
1.83887e-05
3.64377e-05
1.26515e-05
3.43346e-05
4.33332e-05
2.32039e-05
7.40143e-05
7.21271e-05
6.93642e-05
8.94063e-05
0.000112857
6.72604e-05
9.25483e-05
8.19629e-05
0.000145905
9.7028e-05
0.000135713
0.00010663
0.000104128
0.000143913
0.000170391
6.46457e-05
8.2299e-05
0.000144416
0.000147855
0.000155382
0.000181876
0.000141712
0.000184144
0.000184433
0.000279484
0.000185327
0.000215024
0.000314327
0.000299972
0.000180583
0.000285442
0.000194814
0.000274221
0.000217124
0.00025378
0.000272881
0.000254135
0.000285341
0.000288719
0.000213601
0.000200608
0.00019257
0.000269241
0.000272224
0.000123326
0.000142463
0.00014091
0.000226643
0.000132338
0
0
5.18543e-07
0
0
0
0
0
0
0
0
0
0
0
3.69761e-09
0
0
0
0
8.63483e-09
0
0
0
0
0
0
0
0
8.98102e-10
1.00637e-09
1.09959e-08
0
2.99853e-10
0
0
0
0
0
0
0
0
0
3.29131e-09
0
0
0
0
0
0
0
0
2.7793e-07
0
0
0
0
0
0
0
0
0
0
0
0
6.99633e-10
0
0
0
0
2.49766e-09
0
0
0
0
0
0
0
0
0
0
0
0
0
0
0
0
0
0
0
2.42938e-09
0
0
0
0
2.78928e-09
8.17728e-05
0.000201082
0.000224937
0.000117384
0.000182487
0.00010769
5.64992e-05
0.000121044
5.49359e-05
2.06545e-05
7.39887e-05
0.00011091
3.57731e-05
7.061e-05
5.53418e-05
3.563e-05
4.1772e-05
4.19266e-05
3.5846e-05
3.78661e-05
3.96844e-05
8.28968e-06
3.55439e-05
4.73786e-06
2.02835e-05
0
0
0
0
0
0
0
0
0
0
0
0
0
0
0
0
0
0
0
0
0
0
0
0
0
0
0
9.96107e-05
6.56114e-05
5.06816e-05
4.87227e-05
8.86564e-05
5.67347e-05
0.000108402
7.18585e-05
8.66097e-05
0.000156808
4.03082e-05
9.34093e-05
0.000169459
8.46527e-05
7.2855e-05
0.000112446
0
2.83547e-10
0
0
0
0
0
0
0
0
0
0
0
0
0
0
0
0
0
0
0
0
0
0
0
0
0
0
0
0
0
0
0
0
0
0
0
6.53263e-06
4.84842e-06
1.93064e-05
0
0
0
0
0
0
0
0
0
0
0
0
0
0
0
0
0
0
0
0
0
0
0
0
0
0
0
0
0
0
0
0
0
0
8.15711e-05
0.000144446
0.000244562
0.00021813
7.19825e-05
3.60944e-05
0.000348407
0.000123817
0.000188975
0.000202488
0.000162889
0.000185453
0.000163331
0.000127092
5.3482e-05
0.000112875
0.000220259
0.0002955
0.000332226
0.000208035
0.00023081
0.000310322
0.000116621
0.000141009
0.000123789
0.00011109
0.000120865
3.39134e-05
0.000111583
0.000183683
0.000305903
0.000209556
0.000232794
0.000207205
0.000149686
0.000212325
0.000252982
0.000197735
0.000300894
0.000304768
0.000297015
0.000351848
0.000407917
0.000379182
0.000457522
0.00043873
0.000440871
0.000461934
0.000505193
0.000346494
0.000371233
0.000471994
0.000429192
5.36718e-05
2.50796e-05
4.88563e-05
9.87138e-05
1.739e-05
5.06829e-05
5.28249e-06
0.000101798
5.53818e-05
1.10481e-05
0
2.62794e-06
2.81742e-05
3.1434e-05
0.000125609
6.3297e-05
0.000118627
0.000149792
9.88214e-05
0.000169793
0.000104391
9.22788e-05
0.000120154
0.000124719
3.607e-05
2.69834e-05
6.04911e-05
1.84268e-05
0.000173156
0.000152369
8.19145e-05
9.22701e-05
0.000133574
7.49002e-05
0.000140804
0.000141333
0.000109664
1.96115e-09
4.76821e-09
2.60122e-09
0
0
0
0
0
0
0
0
0
0
2.18564e-09
0
1.02412e-09
0
0
0
0
3.02271e-09
0
0
0
9.41614e-06
2.89461e-05
2.03201e-06
3.12683e-05
2.28625e-05
1.86424e-05
9.38194e-05
7.70793e-06
5.79552e-05
4.65845e-05
1.20626e-05
9.90684e-05
0.000134512
8.48477e-05
0.00018538
0.000101928
0.000104651
0.000153049
0.000168353
0.000124374
0.000125351
0.000163371
0.000152394
0.000221829
0.000177831
0.000133083
0.000173629
0.00014072
0.000145347
0.000200777
0.00024204
0.000131577
0.000299213
0.000181712
0.000312416
0.000328712
0.000237599
0.00032972
0.000186429
0.000338049
0.000230246
0.000276844
0.000332919
0.000340164
0.000306118
0.000299209
0.000300127
0.000240399
0.000277324
0.000134191
0.000160428
0.000128411
0.000162469
5.05496e-05
8.87537e-05
0.000104357
0.00016839
2.60552e-05
0
0
0
0
0
0
0
0
0
0
0
0
0
0
0
0
0
0
0
0
0
0
0
0
0
0
2.05772e-09
0
2.25066e-09
5.79786e-10
0
0
0
0
0
0
0
0
0
0
0
0
2.82906e-07
0
0
0
0
0
2.18581e-09
0
0
1.3211e-07
0
0
0
9.12582e-10
1.31969e-09
0
0
0
0
0
0
0
1.22027e-09
1.90954e-09
0
0
1.59785e-09
4.71356e-10
0
0
0
0
3.26929e-09
0
4.52025e-09
0
0
0
0
0
0
0
0
0
0
0
0
0
0
0
0
0
1.49438e-09
0
0
0
0
0
0
0
0
0.000311998
0.000228208
0.000156677
0.000139232
0.000141249
0.000287892
0.000157411
0.000156608
9.92843e-05
0.000137905
8.67099e-05
6.91528e-05
6.04575e-05
3.09578e-05
6.80629e-05
2.6328e-05
4.11322e-05
2.83365e-05
3.76404e-05
2.68811e-05
4.85765e-05
2.92719e-05
7.14652e-05
6.87557e-05
9.29598e-06
2.85556e-05
3.1862e-05
0
0
0
0
0
0
0
1.02785e-09
2.26656e-05
0
0
0
0
0
0
0
0
0
0
2.3355e-11
0
0
0
0
0
8.19318e-05
1.26283e-05
6.7496e-05
2.82934e-05
1.85088e-05
7.31355e-05
7.69274e-05
9.66867e-05
8.10645e-05
1.80402e-05
0.000136989
0.000142092
0.000100218
9.93405e-05
0.00010888
2.31307e-05
0
0
2.6695e-10
0
0
0
0
5.62459e-11
0
0
0
6.23423e-09
0
0
0
1.76022e-09
0
3.2106e-09
5.31083e-09
0
0
0
0
0
0
0
0
0
0
0
5.39269e-10
0
0
0
0
0
0
0
0
0
0
0
0
0
0
2.25729e-05
1.62982e-05
2.83872e-05
0
0
0
0
0
0
6.06355e-10
0
0
1.17472e-09
0
0
0
0
0
0
0
6.85112e-10
0
0
0
0
0
0
0
8.33191e-10
0
1.04952e-09
0
0
0
0
0
0
0
1.11124e-09
0.000146893
0.000103276
0.000196847
6.52361e-05
0.000170147
0.000349715
0.000277221
0.000165046
0.000353863
7.91094e-05
0.000274829
0.000144366
0.000105192
2.6595e-05
0.000263239
0.000253686
0.000181044
0.000245459
0.000150502
0.000178842
0.000168649
0.000175341
0.000250221
0.000335707
0.000245808
0.000356406
0.000306662
0.000286357
0.000124654
0.000153981
0.000186894
7.64007e-05
4.49692e-05
9.80041e-05
0.000181474
0.000102654
0.000220321
0.000211828
0.000115669
0.00022924
0.000287775
0.000321208
0.000340995
0.000292585
0.000398604
0.000329455
0.00041653
0.000354995
0.000350493
0.000451959
0.000351675
0.000434557
0.000403383
0.000455484
0.000418733
0.000365292
0.000437835
0.000524361
4.3851e-05
1.54208e-05
3.94293e-05
5.00176e-05
4.7603e-05
4.15421e-05
0.000101152
5.62762e-05
4.30443e-05
3.65877e-05
2.06594e-05
0
0.000113423
0.000148019
0.000110247
0.00013046
0.000157978
0.00016037
0.000183285
0.000155775
0.000141085
7.85022e-05
0.000140943
0.000113422
0.000104843
9.27385e-05
8.61044e-05
6.17995e-05
0.00012225
0.000173686
9.82112e-05
0.000193561
0.000181925
0.000117923
0.000153379
0.000192757
7.86038e-05
0
0
0
0
0
0
0
0
0
0
0
0
0
0
0
0
3.05131e-09
0
0
0
0
0
0
0
1.26505e-05
1.7729e-05
1.06075e-05
0
3.48881e-05
9.3471e-05
5.06348e-05
1.96487e-05
6.30801e-05
7.25432e-05
0.000108158
0.000100589
0.00020091
0.000129738
0.000236174
0.0001506
0.000240711
0.000225839
0.000173623
0.000215149
0.000205565
0.000205622
0.000249309
0.000212075
0.000216098
0.000230594
0.000276533
0.000211236
0.000266169
0.000250268
0.000289525
0.000298852
0.000315614
0.000371077
0.000353866
0.0002546
0.000374729
0.000309997
0.000385297
0.000371694
0.000390144
0.000382678
0.000336108
0.00035826
0.000305879
0.000258398
0.000108001
0.000159775
8.21577e-05
4.26318e-05
0.000180105
6.06536e-05
8.71874e-05
0.000173646
0.00023073
0
0
3.69819e-06
4.35373e-11
0
0
0
0
0
0
0
3.47709e-09
8.28502e-10
5.06651e-09
9.31156e-09
5.40841e-09
1.78827e-09
0
6.55644e-09
2.01836e-06
0
0
0
1.41553e-09
0
1.53927e-09
1.47069e-09
0
0
0
0
0
0
0
0
3.86642e-11
0
0
0
0
0
0
2.65962e-07
0
0
0
0
0
0
0
0
0
0
0
0
0
0
0
0
0
0
0
0
0
0
0
0
0
0
0
0
0
0
0
0
0
0
0
0
0
0
0
0
0
0
0
0
0
0
0
0
0
0
0
0
0
0
0
0
0
0
0
0
0
0
0
0
0
0
0
0
0
3.74666e-11
0
0
0
0
0.000196684
0.000102567
8.01352e-05
0.000300676
0.000136018
6.72039e-05
0.000254434
0.000216572
8.46656e-05
0.000191887
0.000218734
0.000324856
0.000398016
0.000349487
0.000338714
6.31038e-05
8.23658e-05
1.18405e-05
3.97194e-05
2.40446e-05
5.55283e-05
5.74585e-05
4.67647e-05
3.90248e-05
4.71199e-05
3.39359e-05
1.44761e-05
3.82412e-05
1.16164e-05
0
0
0
0
0
4.882e-05
0
0
0
0
0
0
0
0
0
0
0
2.45574e-09
1.11716e-09
0
9.92381e-10
0
0
0
5.71159e-05
8.74178e-05
2.16432e-05
3.55193e-05
7.48787e-05
5.55531e-05
9.86506e-05
0.000115627
4.16383e-05
3.95256e-05
3.88664e-05
0.00014465
0.000160618
9.48548e-05
0.000100917
6.13827e-05
0
8.89014e-10
0
0
0
0
0
3.78935e-11
0
0
4.06676e-11
0
0
0
0
0
0
0
0
0
0
0
0
0
0
0
0
0
0
0
0
0
0
0
0
0
1.3299e-09
0
2.08821e-09
0
0
0
0
0
0
0
0
0
0
0
0
0
0
0
0
0
0
3.50555e-05
0
0
0
0
0
0
0
0
0
0
0
0
0
0
0
0
0
0
0
0
0
0
0
0
0
0
0
0
0
0
0
0
4.25425e-09
5.78145e-09
0
0
0
0
0
0
0.000339931
0.00021445
0.000175199
0.000600401
0.000357911
0.000503554
0.000167432
0.000764924
0.000480195
0.000149187
0.000290174
0.000270196
0.000270752
0.000292701
0.000281622
0.00027848
0.000248428
0.00027181
0.000228976
0.00016812
0.000220885
0.000368516
0.000318547
0.000316488
0.000336292
0.000365997
0.000323788
0.000131678
0.000256081
7.82588e-05
8.78684e-05
9.33455e-05
0.000131739
4.6476e-05
4.60495e-05
0.000293909
0.000243459
0.000344663
0.000221171
0.000375475
0.000385476
0.000370771
0.000366796
0.000364229
0.000431377
0.000460619
0.000307108
0.000308101
0.000374318
0.000426812
0.000305081
0.000422637
0.000417589
0.000393854
0.000432581
0.000444426
0.000478302
3.1502e-05
1.33427e-05
0.000104207
5.14451e-05
3.24381e-05
6.41315e-05
4.73008e-05
0.000151223
1.37343e-05
3.19985e-05
1.1354e-05
0
0
0
0
0.000231263
0.000196612
0.000237605
0.000170147
0.000169398
0.000230818
0.000283216
0.000206766
0.000164351
0.000183769
0.000110977
0.000118266
9.69837e-05
0.000192015
0.000150132
0.000102184
0.000131595
0.000177146
0.000135643
0.000137884
0.000143177
0.000109365
0.000210076
0.000136425
7.0904e-05
0.000102676
0
0
0
0
0
1.99333e-09
3.56005e-09
0
0
0
0
3.84282e-09
1.40887e-09
0
0
0
0
0
0
0
0
0
0
0
0
1.58103e-06
2.9732e-05
0
6.63046e-05
8.32525e-05
3.97021e-05
0.000120121
0.000144505
2.18199e-05
0.000148335
0.000189059
0.000204782
0.000186285
0.000230812
0.000269421
0.000239544
0.000279624
0.00019945
0.000191703
0.000257598
0.000302113
0.000334941
0.000269054
0.000287199
0.000262287
0.000354736
0.000339731
0.000386633
0.000379835
0.000450384
0.000296519
0.000399575
0.00036628
0.000426688
0.000399406
0.000453601
0.000489913
0.000450703
0.000471829
0.000407472
0.000381394
0.000318145
0.000273264
6.72786e-05
0.000169706
0.000113149
7.05258e-05
0.000193612
0.000122972
0.000170931
0.000294008
0.000259561
0.00031982
0
0
0
0
0
0
0
0
0
3.52114e-09
0
0
0
9.05632e-09
3.91849e-09
8.21553e-09
4.22675e-09
2.84813e-09
1.87709e-08
0
0
0
0
0
0
0
0
0
0
0
0
0
0
0
0
1.24371e-11
0
0
0
5.93246e-07
0
0
0
0
0
0
0
0
0
0
0
0
0
0
0
0
0
0
2.4472e-07
0
0
0
0
0
8.09762e-10
5.50903e-10
1.41247e-09
0
0
0
0
0
0
0
0
0
0
0
0
0
0
0
0
0
0
0
0
0
0
0
0
0
0
0
0
0
0
0
0
0
0
0
0
0
0
0
0
0
2.59986e-09
0
7.59418e-10
0
0
2.18243e-10
0
0
0.000155818
6.39537e-05
0.000177242
0.000158413
0.000163352
0.000260013
0.000114862
0.000193537
0.000334215
0.000383427
0.000264983
0.000138466
0.000327056
0.000272088
0.000318752
0.000175246
0.000156904
0.000165204
0.000188244
2.39135e-05
8.24638e-05
5.19308e-05
4.98629e-05
6.57316e-05
4.58623e-05
5.11392e-05
2.33348e-05
6.06351e-05
2.20512e-05
4.1299e-05
4.82335e-05
2.66647e-05
1.28536e-05
0
0
0
7.63016e-05
0
0
0
5.81416e-09
0
0
0
0
0
0
0
0
0
0
0
0
3.59692e-09
0
0
0
1.38676e-05
6.01009e-05
4.8085e-05
6.58268e-05
5.19845e-05
0.000142734
0.000114849
0.000123885
1.84229e-05
0.000118336
7.40869e-05
0.000141285
8.30051e-05
0
0
0
0
0
0
3.77229e-09
2.8532e-09
0
0
0
0
0
0
0
0
0
6.07954e-08
0
0
0
0
0
0
0
5.35193e-10
0
0
5.96816e-09
0
0
0
0
0
0
0
0
0
0
0
0
0
0
0
0
0
0
0
0
0
0
2.37573e-09
0
0
0
0
0
0
0
0
0
0
0
0
0
0
0
4.70421e-11
0
0
0
1.73885e-09
0
0
0
0
0
0
0
0
0
0
0
0
0
0
0
0
0
0
0
0
0
0
0
0
0
1.42828e-09
0
0
0
0
0
0
0
0
0.000296562
0.000521115
0.000754934
0.000674694
0.000550368
0.000391722
0.000304142
0.000145451
0.000338547
0.000142095
8.4862e-05
0.000130339
0.000197909
0.000179927
0.000340366
0.000321102
0.000301378
0.000317224
0.000264957
0.00027223
0.000307379
0.000324446
0.000444536
0.000371598
0.000360986
0.00040726
0.000443755
0.000410457
0.000151395
0.000177729
8.12199e-05
5.76951e-05
0.000142395
0.000159345
3.89154e-05
0.000124958
0.000313338
0.000402344
0.000281335
0.000344468
0.000389412
0.000386539
0.000324366
0.000371562
0.000315024
0.000393272
0.000248632
0.000349467
0.000408341
0.000181141
0.000268181
0.000472914
0.000509374
0.000304156
0.000453428
0.000458359
0.000426558
0.00044447
1.25219e-05
1.80537e-05
5.7924e-05
6.15029e-05
8.04062e-05
7.4484e-05
5.64835e-05
6.84968e-05
1.62681e-05
1.36245e-05
1.67983e-05
1.16127e-05
0
2.55698e-05
0.000272243
0.000157438
0.000191159
0.000287023
0.000324374
0.000222354
0.000256434
0.000169145
0.000237453
0.000187015
0.00016119
9.49015e-05
0.0001905
0.000206072
0.000202656
0.000111979
0.000186384
0.000191118
8.67833e-05
7.58691e-05
0.000100907
0.000208966
0.000175498
0.000104393
0.000122926
0
0
0
0
0
0
0
0
0
4.24789e-09
0
0
0
0
0
3.65736e-11
4.4854e-11
0
0
0
0
0
0
0
0
7.17069e-06
4.98063e-06
5.25788e-05
0.000125383
9.47923e-05
5.22664e-05
4.19018e-05
0.000139211
0.000158841
0.000192327
0.000203516
0.000229462
0.000232713
0.000303474
0.000304488
0.000326171
0.000338499
0.000261471
0.000260614
0.000270846
0.000341514
0.000386732
0.00029667
0.000387901
0.000421507
0.000366505
0.000458605
0.000406784
0.000478691
0.000420011
0.000526263
0.00053492
0.000545366
0.00061013
0.000574013
0.000564326
0.000550571
0.000467347
0.000496072
0.000346722
0.00034327
0.000137462
0.000167962
0.000130927
0.000187671
0.00014824
0.000254609
0.000302415
0.000213807
0.000243777
0.000343254
0.000332134
0.000243009
0
0
0
0
0
0
0
0
0
2.87222e-10
0
0
0
0
0
0
0
2.69225e-08
0
0
2.48598e-08
0
0
0
1.79352e-09
0
0
0
0
0
8.49371e-10
0
0
0
0
0
0
0
0
0
0
0
0
0
0
0
1.15887e-09
1.93442e-09
1.88266e-09
0
0
0
0
1.02135e-09
0
0
1.21992e-09
0
0
0
0
2.51571e-09
0
2.60588e-10
0
0
0
0
0
0
0
0
0
0
0
0
0
0
0
0
0
0
0
0
0
0
0
0
0
0
0
0
0
0
0
0
0
0
0
0
0
0
0
0
0
0
0
0
0
0
0
0
0
0
0
0
0
8.30362e-10
0
0
0
5.24385e-11
0
0
0.000121437
9.93032e-05
0.000186556
0.000105713
0.000217183
0.000139867
0.000137504
0.000158278
0.000241981
0.000253122
0.000308724
0.000163166
0.000313411
0.000118073
0.000146547
0.000191375
0.000182029
0.000101721
0.000244648
0.00038516
0.000121407
0.00010364
0.000246808
6.29655e-05
3.54265e-05
3.04792e-05
5.98819e-05
3.91849e-05
2.47577e-05
5.33949e-05
6.02555e-05
5.79459e-05
1.90423e-05
2.93993e-05
8.2549e-05
2.75925e-05
1.98223e-06
0
0
5.51462e-05
0.000138332
0
0
1.61258e-09
0
0
0
0
6.46263e-11
0
0
0
4.08215e-11
0
0
0
4.28816e-10
0
0
0
0
1.52583e-05
3.26035e-05
4.42103e-05
0.000159551
6.9787e-05
0.000120416
0.000144522
0.000102412
4.28906e-05
0.000160069
0.000114051
1.3917e-09
0
0
6.05295e-10
0
0
9.80335e-10
3.28232e-10
0
0
0
0
0
0
0
0
1.59016e-07
5.37821e-07
0
0
8.56813e-08
0
2.25449e-09
0
0
0
0
1.4889e-07
0
1.94142e-09
2.57018e-07
0
0
0
0
0
0
0
0
0
0
0
0
0
0
0
0
0
0
5.96125e-09
0
0
0
3.44338e-09
0
0
0
0
0
0
0
0
0
0
0
0
0
0
0
0
0
0
0
0
0
0
4.45043e-10
1.0623e-09
0
0
0
0
0
0
0
0
9.92438e-10
0
0
0
0
0
0
6.71231e-10
0
0
0
0
0
0
0
0
0
0
0
0
0
0
1.40211e-09
0
0
0
0
0
0
0
0
0
9.72031e-05
0.000417474
0.000150273
0.000133868
0.000257931
0.000318735
0.000124144
6.97774e-05
5.45512e-05
0.000136095
8.48547e-05
0.000156894
0.000128029
0.000142727
0.000217983
0.000358636
0.000395624
0.000363876
0.000341876
0.000351444
0.000290624
0.000319721
0.000222997
0.000300523
0.000474077
0.00040663
0.000449163
0.000448499
0.000418607
0.000154477
0.000276572
0.000129671
0.000115514
0.000213156
9.06755e-05
0.000192551
0.000165889
0.000376318
0.00027215
0.000292629
0.00034048
0.000265714
0.000278299
0.000291461
0.000185101
0.000257804
0.00017581
0.000254557
0.000211204
0.000368009
0.00026123
0.000404052
0.000423063
0.000222487
0.00020326
0.000517424
0.000398138
0.000376413
2.90608e-05
3.36991e-05
0.000191508
0.000126662
6.63085e-05
2.85612e-05
4.77943e-05
8.09262e-05
2.16861e-05
2.30878e-05
9.32081e-06
3.29561e-05
6.22342e-05
5.86229e-05
0.000338156
0.000218588
0.00029955
0.000265408
0.000216469
0.000264279
0.000303962
0.000176818
0.000210002
0.000163408
0.000175511
0.000219099
0.000164724
0.000210432
0.000199453
0.000111734
0.000136895
0.000107158
0.00017794
0.000158484
0.000217593
0.000187296
5.92339e-05
9.37143e-05
1.7467e-09
2.46711e-09
3.41941e-09
0
0
0
0
0
0
0
0
0
0
0
0
0
0
0
0
8.77604e-10
1.06683e-09
0
0
0
0
5.89716e-05
3.84685e-05
4.72372e-05
0.000155116
0.00011206
5.12921e-05
0.00015741
0.000192771
0.000189633
0.000244104
0.000261005
0.000382489
0.000368788
0.000484012
0.000416996
0.000422162
0.000420424
0.000364068
0.000346089
0.000417247
0.000370232
0.000500687
0.000394693
0.000464865
0.000448027
0.000430957