/*--------------------------------*- C++ -*----------------------------------*\
  =========                 |
  \\      /  F ield         | OpenFOAM: The Open Source CFD Toolbox
   \\    /   O peration     | Website:  https://openfoam.org
    \\  /    A nd           | Version:  8
     \\/     M anipulation  |
\*---------------------------------------------------------------------------*/
FoamFile
{
    version     2.0;
    format      ascii;
    class       surfaceScalarField;
    location    "10860";
    object      phi;
}
// * * * * * * * * * * * * * * * * * * * * * * * * * * * * * * * * * * * * * //

dimensions      [0 3 -1 0 0 0 0];

internalField   nonuniform List<scalar> 
788991
(
-0.030847
0.00665062
-0.0452897
-0.0109825
0.00517076
-0.020654
0.0201706
0.0162655
-0.0277753
0.0487194
-0.037519
0.0145345
-0.00715963
-0.0441063
-0.0303776
-0.0175731
0.0254185
-0.00463255
-0.00683641
0.0150924
0.011053
0.028185
-0.00710973
0.0108565
-0.0216321
0.0283056
0.0124931
0.0299498
-0.00889316
0.0441635
0.0121792
0.0178418
0.040586
-0.0114724
0.0618333
-0.00173246
-0.0262169
-0.0266524
-0.0320266
0.000788309
-0.0417916
0.00904723
0.0106856
-0.0335258
0.0166429
0.0174552
-0.00258596
0.00295392
0.0205082
-0.0210003
0.0107541
0.00592874
-0.0103507
0.0144759
0.00769936
0.0426337
-0.00650813
0.0125604
0.0342151
0.0208475
-0.00456748
0.0456004
0.0111214
-0.0332551
0.0338942
-0.0668191
0.000791334
-0.0190541
-0.0128442
0.0191004
0.0308996
0.00259924
0.0491853
-0.00868761
0.0814101
0
0.0117933
-0.00770923
-0.0191794
0.0659961
0.0195762
-0.01323
0.0161907
-0.0244832
-0.00710447
-0.0286657
0.0503566
-0.0258055
-0.0365152
-0.000605327
0.0291596
0.0237512
-0.0256969
-0.0501785
0.00701594
-0.00545693
0.0124102
0.0228841
-0.0450459
-0.0494255
-0.0751792
-0.041013
-0.0274836
-0.0518233
-0.0802184
-0.0627734
-0.0791413
0.00450057
-0.0259578
0.0831205
-0.0138125
-0.0756684
-0.00457762
-0.0121134
-0.0201554
0.00304573
-0.0249601
-0.0141109
-0.018826
0.0166618
-0.0145603
-0.00767921
0.0355148
0.02849
-0.0353076
-0.0198856
-0.0181409
-0.0048482
-0.0248622
-0.000886284
0
0
0
0
0
0
0.0154294
0
0.0445341
-0.132863
0.00675662
0.0575568
0.00769671
0.0448273
-0.00539123
-0.0458601
0.0424995
-0.00930253
0.0495696
0.0336849
0.00932973
-0.0372155
-0.00765626
-0.0220763
0.0369852
-0.0159437
-0.0108316
0.0202135
0.0121448
0.0166654
-0.0210075
-0.00591767
0.0147911
0.00172776
0.0127184
-0.00900454
-0.00258617
0.00441356
0.0132779
0.00150546
0.00726217
-0.0181512
-0.00610452
-0.0102706
-0.0271068
0.00312008
-0.011834
-0.0128456
-0.00180076
-0.00215725
-0.00734098
-0.00487163
-0.0341003
-0.00746243
0.0111974
-0.0225891
-0.0212856
0.000467195
0.0186781
-0.0126931
0.0141749
-0.0236429
-0.0165001
-0.0233261
0.00640811
-0.0446088
0.00088559
-0.037146
-0.056576
-0.00321128
0.0283643
-0.0107285
-0.0364119
-0.0805919
-0.024089
-0.00427826
0.0302067
0.0168851
-0.0468378
0.0118299
-0.0226533
-0.00362381
0.0224655
0.065231
0.00937182
0.0400854
-0.00955693
0.0576748
0.0828579
0.0423636
0.0101645
0.0140382
0.0331727
0.000657839
-0.0972183
0.0124354
0.0131081
-0.0939979
-0.0788868
-0.0180922
-0.000818185
-0.0748304
-0.0164064
0.0298711
-0.00950944
0.00321883
-0.00795904
-0.00910201
-0.0158071
-0.00511961
0.0128002
-0.0241622
-0.00434496
-0.0155641
0.0224882
0.00733104
-0.0256936
0.00822898
0.000553568
-0.023874
0.0079527
0.0123175
-0.00511176
0.0218336
0.0442685
-0.0122738
-0.0249072
0.0155286
-0.0204825
0.0017986
-0.0496069
-0.0617693
0.0071104
-0.0432634
-0.025433
-0.0191306
-0.020834
0.00329595
0.0470854
-0.0172128
-0.0160086
-0.0110306
-0.0317582
-0.0130701
0.00954521
-0.0263955
-0.00659565
-2.50051e-05
-0.0361348
-0.00543218
-0.0290467
0.00886247
0.0434561
0.00156471
0.00746105
-0.0212209
-0.0375402
0.0307751
0.0375166
0.0295755
-0.000135324
-0.0156015
-0.00512669
0.00309939
0.0462715
0.0683427
-0.0658571
-0.0736947
0.0837915
0.0925309
-0.0180121
-0.00230064
-0.0155352
0.00967244
-0.0164097
-0.0135588
0.00135031
-0.0650362
0.0190473
0
0
0
-0.0461773
0
0.187614
0
0
0
0
0
0
0
0
-0.0365161
-0.0330201
-0.0115696
-0.0417889
-0.0358082
-0.0102324
-0.0296609
-0.0505885
-0.00785382
-0.00928071
-0.0503695
0.0325697
0.03382
-0.0572033
-0.060922
0.0475257
-0.0418013
-0.067169
0.0259457
-0.0128216
-0.0232482
-0.0122467
-0.00983534
0.0287067
-0.0214932
-0.0217311
-0.00453593
-0.0172044
-0.0387816
0.0204693
-0.0145044
-0.0214708
-0.00414485
0
0
0
0
0
0
0
0
-0.0363954
0
0
0.0281719
0.0536091
-0.0323996
0.06057
0.0260352
0.0674452
0.054511
0.00547997
-0.0346531
0.0348581
0.0149208
-0.0240206
0.00272319
0.0143365
0.015918
-0.0133422
0.0149884
0.00838199
-0.0093567
-0.0163167
-0.0127304
-0.00814819
0.00403276
-0.000928266
-0.000537896
0.0174246
-0.000672868
-0.0264334
-0.0232634
-0.00671675
-0.0189431
0.0168952
-0.00188822
-0.0119392
0.0621141
-0.00454956
-0.0197676
0.000259217
0.0103065
-0.00599351
-0.0130431
-0.0177693
-0.0242076
-0.0016277
-0.0517675
0.0381659
-0.00565772
-0.0127103
0
-0.0185743
0.0415043
-0.0241109
0.0165329
-0.0523089
-0.019965
0.0215491
0.0322506
-0.101103
0.0903488
-0.0254511
-0.181918
0
0
0
0
0
0
0
0.0215613
-0.0118079
-0.023559
-0.0832814
-0.0388242
0.0475471
0.0449025
0.0140467
0.03634
0.0402183
0.0190181
0.02682
0.0520562
0.0239543
-0.000631334
0.0625538
-0.0282807
-0.112022
0.0326534
-0.0389447
-0.0833857
-0.10058
0.0381521
0.0234503
-0.0394874
0.0167649
0.0132827
-0.0178009
-0.0103703
-0.0105029
-0.0175347
0.00371686
0.00939342
-0.0188337
-0.0260682
-0.00289109
-0.0200858
-0.00659658
0.00266304
0.00268704
-0.0174048
-0.0100138
0.00684753
0.00808923
-0.0279253
-0.0178478
-0.0194163
-0.0381079
0.0232067
0.0223095
0.00943298
-0.0106209
-0.00863462
0.0434754
0.0105512
-0.00518022
0.0224601
-0.0443898
-0.00801612
0.0100395
-0.101082
-0.0281571
-0.0131463
0.0415552
-0.0314077
-0.0858204
-0.00631081
0.0180025
-0.012181
0.0645688
0.0384283
-0.019616
0.0224637
-0.0394022
-0.0358444
-0.0888348
-0.0777536
-0.0545741
-0.0367246
-0.0913562
0.030209
-0.0408652
0.0341991
-0.0165517
0.012846
0.0258008
0.0471896
0.0610856
0.0320201
-0.00750056
-0.0107627
-0.00405885
0.0235747
0.0423588
0.0137416
-0.0049354
0.00227685
0.000700781
-0.045254
-0.00486679
0.0634683
0.0213137
-0.0180082
0.0135788
-0.0213956
-0.0563065
0.00608168
-0.0329586
-0.152066
-0.035618
0.0248863
-0.051516
-0.0063221
-0.0250184
0.00453747
-0.0121522
-0.0306087
0.0164149
-0.0028148
-0.0434581
0.0130206
0
0
0
-0.0833379
0
0
-0.0400861
0
0
0
0
0
0
0
0
0
0
0
0
0
0
0
0
-0.0427434
-0.025765
-0.000851811
-0.0149139
-0.0372257
0.0133571
-0.0271627
-0.039617
-0.0172459
0.00405352
-0.0429139
-0.0289173
0.0298308
-0.0333265
0.0403602
0.00739321
-0.0160243
-0.0149016
-0.0172682
-0.0112519
0.00102822
-0.0185803
-0.0150314
-0.00942095
-0.0192261
-0.0225916
0.0181742
-0.0100084
-0.018476
0.000931986
-0.00268063
-0.019562
0.0207851
4.53393e-05
0
8.08603e-05
0
0
3.5009e-05
3.05448e-05
-9.92807e-05
3.03873e-05
0.000103313
0
0
0
0
0
0
0
0
0
0
0
0
0
0
0
0
0
0
0
0
-0.0174665
0
-0.0527944
0.0901032
0.125875
-0.0574005
0.0538521
0.0105409
-0.0311021
0.032618
0.0214374
0.0114992
0.0163456
0.0232685
0.00305032
-0.00478789
0.0207895
0.0131563
-0.0312858
0.00743816
0.0209
-0.00294731
0.00738226
0.00066476
-0.00799977
0.0156614
-0.00839677
0.0219408
-0.0183141
0.0104062
0.0170425
0.0182496
-0.00821648
-0.00438552
0.0383706
-0.0255757
-0.0122922
-0.0109775
0.0423139
0
0
0
-0.0281693
0.0169135
-0.0471018
0
-0.0232928
0.023637
-0.0255548
0.0100209
-0.0252855
0
0
0
0
-0.0715179
-0.0311482
0
0
0
0
0
0
0
0
0
0
-0.00338412
0.019193
0.024324
0.0028947
0.0298044
-0.00996809
-0.0183271
0.00372254
0.0641849
0.0110318
0.0829212
0.00968666
-0.105656
0.0322576
0.0310492
0.00523528
-0.03291
-0.0772145
-0.0141791
0.0546966
0.0509805
0.0193569
0.0629039
0.0611334
0.0110989
0.105157
0.070976
0.0139744
0.0350319
0.076393
0.0599858
-0.00786293
0.0801922
-0.0881022
-0.181533
0.0520302
-0.102249
-0.0210268
-0.0972285
-0.00206071
0.0322543
0.00978795
0.0208497
-0.00496149
-0.0393075
0.0436775
0.0134777
-0.0158554
0
-0.0176908
0.0131775
0.0181794
0.0302719
-0.00586368
0.00811349
0.00656014
0.0339926
0.0211392
-0.0112649
-0.011327
0.0137377
-0.0193078
-0.0288858
0.0100757
-0.041164
-0.0277275
-0.0103407
-0.0365575
0.0166142
0.00872926
-0.0783755
-0.0540552
-0.0572648
-0.0611148
-0.0410478
0.0538732
-0.0183639
0.0013493
0.048451
-0.0236798
-0.0446736
-0.0466682
0.0300293
0.0431881
-0.0401938
-0.0513121
-0.0277308
-0.0406046
-0.00476553
0.0448223
0.0445195
0.0154712
0.00816838
0.0531011
0.0123373
-0.00131205
-0.0337006
-0.00744377
0.00782969
-0.00899256
-0.0407864
-0.0286824
-0.0160414
-0.0420114
-0.0523454
-0.0175476
-0.0582333
-0.0305504
-0.0403813
-0.0190014
0.0106227
-0.0102228
0.0237258
0.00870285
-0.0181386
0.00203354
-0.00184823
-0.0633857
-0.0106569
0.0509103
0.0464889
-0.0504871
-0.0449884
-0.0262173
6.59406e-05
-0.00531075
-0.00153684
0
0
0.0265203
0.0226849
-0.0122979
0.000982264
-0.019469
0.0159277
-0.0388629
0.053132
-0.0632749
-0.0587527
-0.11
0.0284201
0
0
0
0
0
0
0
0
0
0
0
0
0
0
0
0
0
0
0
0
0
0
0
0
0
0
0
0
0
0
0
0
0
-6.51871e-05
0
-2.39375e-05
0
-2.45199e-05
-5.3498e-10
-1.38892e-05
2.07724e-06
1.29368e-05
-5.45157e-05
0
0
1.7456e-05
0
0
0
0
0
0
0
0
0
0
0
0
0
0
0
0
0
-0.0216309
-0.0195673
-0.00654596
-0.00456161
-0.027404
0.0267267
-0.0244702
-0.0217561
-0.00960313
0.0524993
-0.0206225
0.0057295
-0.013633
-0.0131079
0.00271381
-0.0164728
0.0013976
0.035325
-0.0209408
-0.012825
-0.0195298
-0.0196466
-0.0133393
-0.00656952
-0.0158856
-0.0165726
0.00901042
-0.0082158
-0.00679886
-0.00529027
0.00425739
-0.0171198
0.0201251
0
2.09947e-06
0
0
0
0
0
0
0
0
0
0
0
0
0
0
0
0
0
0
0
0
0
0
0
0
0
0
0
0
0
0
0
0
0
0
0
0
0
0
0
0
0
0
0
0
0
0
0
0
0.104005
0.0491517
-0.0167316
0.0531776
0.122057
0.00329723
0.0376205
0.0556683
-0.00718003
0.0208233
0.0455077
0.00941607
0.0138508
0.0337432
-0.0318979
-0.025907
0.0281055
0.0429336
-0.0430145
0.0162951
-0.0375627
2.1873e-05
0
0
-6.13371e-05
-2.2298e-06
0
0
2.58312e-05
0
0
0
0
0
0
0
0
0
0
0
0
0
0
0.00477208
0.00620683
0.00743776
-0.00622908
-0.0262076
0.0113176
-0.0123966
0.0138082
-0.00132066
-0.00774853
0.0271047
-0.026662
-0.0581438
-0.00541228
0
0
0
0
0
0
0
-0.0483366
0
0
-0.0326799
0
0
-0.0296175
0
0
0
0
0
0
0
0
0
0
0
0
0
0
0
0
0
0
0
0
0.021604
-0.0734804
-0.0561046
0.0418769
-0.038468
0.0264547
0.0596791
0.0170136
-0.0255898
0.0613718
-0.0752969
0.0554028
-0.00266635
-0.0159466
0.0257443
-0.00688657
0.0146375
0.0392243
0.0179453
0.0461819
-0.00418561
-0.130647
0.0487744
-0.000493776
0.00695213
0
-0.0215021
0.0150297
0.0696172
-0.0146181
-0.0394034
-0.0470737
0.0506231
-0.00819485
-0.0251773
0.0349498
0.0417897
-0.00320449
0.0817111
-0.106708
-0.0435152
0.0804965
0.095223
-0.197354
0.0644501
0.158966
0.0321521
-0.041198
0.00243893
-0.00322025
-0.00182174
0.0184215
0
-0.0141341
0
0
0
0
0
-0.0219661
0.0296935
-0.00338292
0.0352307
-0.0217922
-0.0288871
-0.0143718
-0.00544511
0.0159858
-0.00788328
-0.0128846
0.01754
-0.00226391
0.00528392
-0.0046502
-0.0239376
0.00687098
-0.0485055
-0.077332
-0.00289572
0.0135962
-0.0156298
0.00222503
0.0508114
0.00659415
-0.0304331
0.0585895
0.0148901
-0.0421615
0.0227811
0.0756198
-0.0368904
-0.0250152
0.0188589
0.0483979
0.0103878
0.0375359
-0.0610134
-0.0298319
0.0524803
-0.0700889
0.0149828
-0.0331843
-0.0182222
-0.0389403
-0.0612577
-0.0171204
-0.0392499
-0.0343184
0.00306916
-0.0756903
-0.0752311
-0.00293606
-0.0666607
-0.0711141
0.0189248
-0.0656677
-0.0620836
0.0204226
-0.0815043
-0.0319188
-0.0419081
-0.0735287
-0.0202277
-0.0274963
0.0553374
-0.06122
0.0654588
-0.0618447
-0.00419154
-0.00627891
-0.0531094
-0.0141579
-0.0667051
-0.0269889
0.0497666
-0.0361216
0.0594562
-0.00124321
-0.00804966
0.0505937
-0.028302
0.0612675
0.0169026
0.0181271
0.0575831
-0.0372616
0.0629433
0.0310944
0.030238
-0.059574
0.0277533
0.0649253
0.0512511
0.0227736
0.0628967
-0.00713576
0.0677648
0.073094
0.0365607
0.0639258
0.00789151
0.0617141
-0.0775745
0.0554892
0.0636693
0.0723315
0.00313451
-0.0797592
0.0787866
-0.0641176
-0.00727185
-0.0146984
-0.019594
0.0220002
0.0032541
0.00542124
0.00651793
-0.0311464
0.00214804
0.0259526
-0.0998211
0.00936211
-0.0169878
0
-0.0538415
0
-0.0650774
-0.0238631
0
-0.0150378
0
0
0.0108052
0
0.0125418
-0.108712
-0.00389327
0
-0.0613815
0
0
0
0
0
0
0
0
0
0
0
0
0
0
0
0
0
0
0
0
0
2.84155e-05
8.10395e-05
0
0
0
0
0
0
0
0
0
0
0
0
0
-2.48796e-05
-9.53304e-05
0
0
0
0
0
0
0
0
0
0
0
0
-7.42442e-05
0
0
0
0
0
-3.5386e-06
1.9799e-05
0
-2.05404e-06
-2.39811e-06
3.74945e-07
0
0
0
-2.26252e-06
0
0
0
-8.25081e-06
-1.30982e-06
-1.77407e-05
2.54072e-05
5.31693e-05
0
-1.98066e-05
7.50569e-06
0
0
0
0
0
0
0
0
0
0
0
0
0
0
0
0
0
0
0
0
0
0
0
0
-8.8157e-05
0
4.10152e-05
0
-4.72691e-05
0
-0.00360168
-0.00672846
0.0157179
0.00766622
-0.0136519
-0.0363171
0.00456752
-0.00455338
-0.0105917
-0.0312903
0.0148908
0.0204923
-0.0219151
0.00665978
0.042356
-0.0223294
0.00609576
-0.0316241
-0.021893
-0.00260152
-0.020592
-0.0228899
-0.0218797
0.0179913
-0.00883691
-0.0203567
-0.00922111
-0.0207114
-0.0169669
-0.00841896
-0.0249959
-0.0226072
-0.00586626
0
0
0
-2.79734e-05
2.73373e-05
5.61454e-05
0
0
0
0
0
0
3.98074e-05
0
-1.52042e-05
0
0
0
0
0
0
0
0
0
0
0
0
0
0
0
0
0
0
5.09566e-05
4.98718e-05
2.12666e-05
0
-4.82227e-05
0
0
0
0
0.0719281
0
-0.000935926
0.0725859
0.0169644
0.0180393
0.0563513
0.0922164
0.024446
0.0300449
0.0861263
0.0293314
0.0130817
0.0681621
-0.0488436
-0.00752178
0.0606509
-0.0645696
-0.0365106
0.0455802
0.0607889
-0.0254602
0.0401116
0.0288963
2.99173e-05
0
0
-2.20931e-06
0
3.22758e-05
0
-9.39718e-07
0
5.39288e-07
0
-1.06862e-06
-7.1136e-08
0
0
0
0
0
0
2.12651e-05
0
0
-4.71099e-07
0
0
0
0
0
0
0
0
0
0
0
0
0.00303458
0.0331259
-0.0105172
-0.0141275
-0.00259728
-0.00639162
0.0167027
0.0192823
-0.00882061
-0.0109043
-0.0222513
0
0
0
0
0
-5.76598e-05
3.54948e-05
0
0
0
0
0
0
0
0
0
0
0
0
4.03527e-05
-0.00027072
-0.00091169
0
0
0
0
0
0
0
0
0
0
0
0
0
0
0
-1.16226e-05
0
-1.20172e-05
0.0745951
0.0762122
0.0168897
0.0277162
0.0703916
0.00323537
0.0310606
0.0697752
-0.00340888
0.0637263
0.07535
-0.00746964
0.0717384
0.0509032
0.00727762
0.0687715
0.0484441
-0.0250466
0.0480157
0.0673736
-0.00686948
0.0371473
0.0647979
0.013394
0.0144352
0.0644577
-0.060805
-0.0101682
0.067179
-0.0954008
-0.016834
0.0732517
0.105119
-0.0118917
0.0767151
0.10181
0.072364
0.0742414
-0.0668873
0.00538662
0.0630561
0.0790337
0.0047958
-0.0827641
-0.0120159
0.000413934
-0.00894261
0.0428038
0.0347892
0.00989182
-0.0672564
-0.00383636
-0.00643886
0.046898
0.0152256
0.0760872
-0.000411068
-0.00483332
0.00378985
0.01148
0
0
-0.0477842
0.0102307
-0.0132552
-0.0728962
-0.0135304
0.121093
-0.0582286
0.0465464
-0.0311212
-0.0949643
0.059146
0.0152032
0
0
0
0.00135874
0
0
0
0
0
0
0
0
0
0
0
0
0.00492474
0
0.00757297
0
-0.0532824
0.0046272
0.0268094
-0.00614204
-0.0270794
-0.0237922
0.00804687
-0.0208937
0.0195175
0.0226929
0.00496503
-0.0239891
-0.0494253
0.0588511
0.0110568
-0.0152429
0.0468328
0.00660049
-0.0174712
0.026841
-0.02432
0.0419147
0.00885652
-0.0728406
-0.0655753
-0.0284701
0.0266835
-0.0540917
-0.0691609
0.0135057
0.0595672
-0.0465908
0.00016987
0.0674649
-0.0614164
-0.00322943
-0.0772422
-0.0150679
-0.0387497
-0.0308042
-0.0839562
-0.0674489
-0.00305754
-0.0645555
-0.02526
0.0416623
-0.0645576
-0.0740013
0.0111127
-0.0586371
-0.0658791
-0.0126564
-0.0713941
-0.0552575
0.0183072
-0.0782076
-0.03065
0.0487152
-0.0534201
-0.0230987
-0.0602902
-0.0809161
-0.0406481
-0.0467992
-0.0406778
-0.0176492
0.047132
-0.0277704
0.00498862
0.0509921
-0.0294679
0.0200622
0.0545779
-0.0442547
0.0200137
0.0556935
-0.0279231
0.0117835
0.0592907
0.000937261
0.0356898
0.0591103
0.0114791
0.068952
-0.0522976
0.0143728
0.0717028
0.0597617
0.00434692
0.0672379
0.0786178
0.0515881
0.00424183
0.0647827
0.0641004
0.0563929
-0.0486198
0.00130014
0.054
0.049874
0.0376251
0.0472717
-0.018477
0
0
0
-0.00172963
0
-0.015
-0.0258508
-0.00475474
0.107966
0.0131119
-0.0391193
0.0663508
0
-0.0413116
0
0
0
0
0
0.00532244
-0.00751591
0
0
0
0
0
0
-7.41606e-05
0.000144844
0.000130167
0
6.58431e-05
0
0
0
0
0
0
0
0
0
0
-1.93469e-05
0.000260256
-0.000218779
0
0
0
-1.64617e-05
0
9.28557e-05
0
-3.30224e-05
0
0
0
0
0
0
0
0
4.77219e-06
-4.55542e-05
0
0
0
0
-0.000111507
0
0
0
0
0
0
0
0
-2.26917e-07
-1.06109e-06
0
0
0
0
0
0
0
0
0
0
0
0
0
0
0
-2.65742e-05
0
0
0
-2.77294e-05
-2.95535e-05
0
0
0
0
0
0
0
0
0
0
0
0
0
0
0
0
0
0
0
0
0
0
8.34796e-07
0
0
0
0
0.00209182
0.00383874
0.0173429
0.0146144
-0.017753
-0.0297553
-0.0179858
0.00845871
-0.0107039
-0.0095107
0.0153693
-0.0255132
-0.0153665
0.0150051
-0.0387179
-0.0149713
0.00736208
0.0177501
-0.0135026
0.00540817
0.00897015
-0.0341711
-0.0258557
0.0360281
-0.0284719
-0.0268658
0.00286503
0.000456524
-0.0166467
-0.00252718
-0.0133486
-0.00340515
0.0016236
-3.32759e-05
0
-1.06055e-05
6.52193e-05
-1.1227e-05
-9.73896e-07
0
0
0
0
0
0
0
0
0
0
0
0
0
0
0
0
0
0
0
0
0
0
0
0
-7.05156e-05
0
0
0
0
0
0
0
0
0
0
0
-0.0292302
0
-0.0338653
0.0534101
-0.0326079
0.00973091
0.0242958
0.0496892
0.0234708
0.0191381
0.0546897
-0.0529667
-0.00538576
0.0605198
0.0599161
-0.0182762
0.0607229
0.0644903
-0.00856022
-0.0137468
0.0220025
-0.025397
0.0470486
-0.0478147
0
0
0
0
0
0
0
0
0
0
4.58003e-07
0
0
0
0
0
0
0
0
-0.00451547
0
0
0
0
0
0
0
0
0
0
0.00747969
0
0.00177746
0
0
0
0
0
0
0
0
0
0
-0.00395346
0
0.0275166
0.0326977
-0.0344771
0
0.0147426
0
0
0
0
-2.21905e-05
0
0
0.00759537
-0.0276904
-0.0277442
-0.00536127
0
0
0
0
0
0
-1.48828e-05
-2.28453e-05
2.91767e-06
0
-8.11165e-06
0
0.000186883
0
0
0
0
0
0
3.70907e-07
0
-1.31523e-05
0
0
0
0
0
0
0
0
0
0
0
0
0
0
0.0321876
0.027757
0.0140564
0.00610027
-0.0081105
-0.0249243
0.011765
0.0201824
0.00333612
-0.00803747
-0.0195144
0.0214295
-0.00696854
-0.00485854
0.0172065
0.0258473
0.00388839
0.0379424
0.0249235
-0.0230999
0.0245728
-0.00861771
0.0151206
-0.0119671
0.0229254
0.0234235
-0.013297
0.02717
-0.0063134
0.023263
-0.0290299
0.0220006
-0.0012949
-0.0230544
0.0159616
0.0263674
-0.00602662
0.0685445
0.0619764
-0.00724876
0.0584305
-0.0584307
0.00801257
0.0507564
0.0445775
0.0585611
0.0579176
0.000873634
0.0664583
0.0584186
-0.0136655
0.055248
0.0509001
0.0208485
0.0331203
0.0352843
-0.0341155
0.0668523
0.0470462
0.0292816
0.0624402
0.0303344
0.044073
0.0417904
0.0641177
0.00933523
0.00785211
0.0582067
0.0417479
-0.02632
0.0639577
0.0905182
-0.0387002
0.079174
0.123961
-0.0320594
0.0854744
0.12513
-0.00984232
0.0907636
0.107405
0.0736476
-0.000957414
0.0703801
0.0879818
-0.00465228
0.0982946
0.027195
0.0143496
-0.0406849
-0.0332572
0.0361564
0.0748518
-0.00518449
0.0434785
0.0288134
-0.0231211
-0.0295576
-0.0276001
-0.0674411
0
-0.0111625
0
-0.000480582
0.00205967
0.020667
0.0143387
0.00820832
0.0163156
-0.00633998
0.020628
0.0216399
-0.00235158
0.0236344
0.0188798
-0.00849001
0.0288253
0.0131833
-0.0171648
0.0208809
0.0148511
-0.00520055
0.00881427
0.0110098
0.00237211
-0.00411768
0.00957111
0.00646205
-0.00556191
0
1.75331e-05
2.72969e-05
0
0.0324409
0
-0.0587882
0.00150342
0.0407325
-0.0486073
-0.112352
-0.0387813
1.42628e-05
0
-1.09326e-05
2.44088e-05
-1.59411e-05
-8.69356e-06
0
-4.49921e-05
0
0
0
0
0
0
0
0
0
0
0
0
0
-0.0163102
5.97195e-05
8.76953e-05
-0.0244366
0
-0.00312347
-0.0304962
-0.00399753
-0.00775328
0.00407369
-0.0888309
-0.00890226
0.0238149
0.0476062
-0.00489628
-0.00529573
-0.00350717
-0.0191214
-0.00587599
-0.0233485
0.0253933
0.00121603
-0.0479867
0.0590698
0.0118273
-0.0398501
0.0573915
-0.0413294
0.0183351
-0.0666673
-0.0303536
0.0427852
-0.0572544
-0.0318348
0.00815151
0.0726164
-0.0320235
0.0422033
-0.0778581
0.00955243
-0.0348517
-0.064812
-0.050856
-0.0522936
-0.0342286
-0.0499474
9.59145e-05
0.0451111
-0.0738877
-0.0435206
0.0113817
-0.0704999
-0.0670633
0.00283451
-0.076096
-0.0415532
0.0338294
-0.0526758
-0.0306705
-0.0789139
-0.0814571
-0.043298
-0.0450141
-0.0555674
-0.0343943
0.0502763
-0.0478326
-0.0114126
0.0514209
-0.0393283
-0.0020416
0.0530443
-0.0421016
0.00516529
-0.0538069
-0.046733
0.00528125
0.0591605
-0.0139557
0.0128609
-0.0539656
0.0100026
0.0426501
-0.0399642
0.0274218
0.0527007
0.0453443
0.0149286
0.0657854
-0.0258258
0.00494465
0.0387442
-0.0308221
-0.0227965
0.0340819
0
0.00815284
0.0106164
0
0
0
0
-0.0701564
0
0
-0.0851278
0
0
0
0
0
0
0
0
1.60559e-05
0
9.22478e-05
0
0.00594859
0
0
1.05357e-05
0
-0.000120226
0
-0.000203323
0
-7.13109e-05
0
0
0
0
0
0
0
0
4.1866e-05
5.88866e-05
-1.99124e-05
-0.000105367
0
-0.000365505
4.0499e-06
0.00019418
1.22144e-05
0
0
0
0
0
0
0
0
0
0
0
0
-4.66643e-05
0
-0.000124374
0
0
0
0
0
0
0
0
0
0
0.0032972
0.002093
0
0
0
0
0
0
0
0
0
0
0
0
0
0
0
0
0
0
0
-9.96747e-06
1.69013e-05
-5.86259e-05
0
0
0
-9.40944e-05
2.82288e-05
0
0
0
0
0
0
0
0
0
0
0
0
0
0
0
0
0
0
0
0
0
0
0
0
0
0
0
9.87462e-06
0
-4.22664e-05
0
0
0
-1.03106e-05
0
1.73447e-05
0.000718566
-0.0127785
-0.0271806
0.01041
-0.0193358
0.0054539
0.00926294
-0.0207022
0.00747357
-0.00799108
-0.00803043
0.019503
-0.0240976
0.00594391
0.0056847
0.0116032
-0.0117576
-0.00373233
0.00701083
0.00497914
0.000324177
0.022944
0.00112537
0.0059588
0.0153303
-0.00707773
0.00348826
0.00515948
-0.0010135
-0.0388721
0.0128283
-0.0113807
-0.0010374
0.0123005
0.0118629
0.00380109
-0.00682662
8.93818e-07
0
0
0
0
0
0
0
0
0
0
0
0
0
0
0
0
0
0
0
0
0
0
0
0
0
0
0
0
0
0
0
0
0
0
0
0
0
0
0
0
0.00057875
0.114959
-0.00677662
0.0332753
-0.019183
-0.0116021
-0.00819437
0.00686458
-0.0122953
-0.00324119
0.00602853
0.0132311
0.0312491
0.0019654
0.0274893
0.0349084
-0.00803207
0.0216877
-0.0491876
-0.0183634
0.0221389
0.0270989
-0.00549592
0.013438
0
0
9.44009e-06
6.98717e-07
0
0
0
0
0
0
0
0
0
0
0
0
0
0
0
0
0
0
0
0
0
0
0
0
0
0
0
0
0
0
0
0
0
0
0
0
0
0
0
0
0
0
0
0
0
0
0
0
0
0
-0.01268
0.00485225
0.00916894
0.0349336
0
0
0
0
0
0
0
0
0
0
0
0
-0.0151011
0
0
0
0
0
0
0
0
0
0
0
0
0
0
0
0
0
0
0
0
0
0
0
0
0
0
0
0
0
0
0
0
0
0
0
0
0
0
-0.0294557
0.0146417
0.0118102
-0.0262262
-0.017296
0.0271159
-0.0062383
-0.00316858
-0.00860285
-0.0449767
0.0298216
-0.0219781
0.00705705
0.0375761
-0.0368266
0.00377265
0.0377524
0.0370842
0.00455467
0.0355507
-0.0260279
0.000535121
0.0300242
-0.012481
-0.00168758
0.0674254
-0.0546232
0.00683856
0.0591572
0.0494254
0.00210975
0.053938
-0.0571552
0.0532291
0.0257833
-0.0252543
0.0315334
0.0259207
0.0352633
0.0400064
0.0132419
-0.00200009
0.00507538
0.0341532
0.0608661
0.0605
0.039388
0.021567
0.0774858
0.0498083
-0.00848285
0.0581707
0.0551693
0.0133887
-0.0421444
0.0500507
0.005373
0.0654661
-0.0138817
0.0633109
0.0779867
-0.0351559
0.0762444
0.113711
-0.0329692
0.0897225
0.11735
-0.0195922
0.0946407
-0.107247
-0.0200825
0.0899539
-0.119918
0.0785097
0.00563091
-0.0761159
0.0908809
-0.00365671
0.101081
0.00891816
0.0400954
0.0125084
0.00725027
0.00245728
0.0285378
0.0259649
0.00957337
-0.0294595
-0.00551691
0.0253867
0.0214014
0.0154012
0.0787302
0.0273404
0
-0.0247564
0.0099249
0.00989386
0.0095455
0.0127661
-0.0026547
0.0147185
0.00941491
0.00181363
0.0219397
-0.00371466
0.0148272
0.02504
0.0180085
-0.0143571
0.0205179
0.00714855
0.0178726
0.0124321
-0.00366122
-0.0102561
0.00318096
0.00423592
0.00508049
-0.013855
-0.00444681
-0.00686918
-0.01417
-0.0255967
0.00916948
0.0233878
0.0104711
0.0247878
-0.0111894
-0.0086735
-0.0288633
-0.0242051
-0.0161413
-2.93153e-05
3.52686e-05
7.60514e-05
-7.44461e-05
0
3.97526e-05
0
-0.108138
0
0
0
0
-0.000119091
0
0
0
0
0
-8.7008e-05
0
3.36377e-05
0
-1.43225e-05
-1.96456e-05
0
0
0
0
3.88248e-05
3.2348e-05
0
-2.82735e-05
0
0
0
0
-0.0135267
0.0253857
-0.00410884
0.0529195
0.0126636
-0.00252731
0.00329281
-0.0111771
-0.00487901
-0.0124962
0.0141415
0.0404464
-0.0173349
-0.0317076
-0.0154063
0.00457587
-0.024553
0.0396278
0.0383486
0.0228175
-0.0448114
0.0348879
0.0152041
-0.0756494
-0.00842185
0.058661
0.0730799
-0.0156555
0.087558
0.0732721
-0.0195753
0.0377817
-0.079057
-0.01627
0.0599095
0.0930014
0.0186451
-0.0382977
-0.0810958
-0.0387535
-0.0248801
-0.045703
-0.0426918
-0.00679219
-0.0638184
-0.0530199
-0.0673378
-0.0181385
-0.0578392
-0.075134
0.00427131
-0.0374204
-0.0436956
-0.0781576
-0.0799899
0.00825063
-0.0733061
-0.0562384
0.0411517
-0.0678201
-0.031679
0.0495251
-0.0692796
-0.021713
-0.0521054
-0.0585209
-0.0209334
0.0565501
-0.0527843
-0.00612061
-0.056589
-0.038151
0.0085011
0.0546062
-0.0045077
0.0172255
0.0289822
0.0202854
0.0245939
0.018031
0.00993566
0.0321027
0.00202297
0.018015
0.0140377
-0.0127415
-0.000304871
0.0266664
0
0
0
0
0
0
0
0
0
0
0
0
0
0
0
0
0
0
0
0
0
0
-0.000157209
0
0
0
0
0
0
-8.15189e-06
0
0
0
0
0
0
0
-5.5774e-05
0
1.86481e-06
0
-5.60548e-05
3.2658e-05
-2.01541e-05
-2.18361e-05
0
5.0446e-06
0
0
0
0
0
0
0
0
0
0
0
0
0
0
0
0
0
0.00345927
-0.0028426
-7.4761e-05
0
0
0
0
0
5.03452e-05
0
9.37968e-05
0.00451045
0
-0.00190158
0
-0.00278561
0
0
-8.03401e-06
-2.3151e-05
6.04148e-06
0
-3.13616e-05
0
0
0
0
0
0
0
0
0
-6.24435e-05
1.3655e-05
-0.000107452
0
5.72032e-06
0
-5.95736e-06
-7.01924e-05
1.35625e-05
0
5.26808e-05
0
0
0
0
1.04882e-05
0
-6.5925e-05
0
-1.68867e-05
-2.48818e-05
0
0
0
0
0
0
0
0
0
0
0
0
0
0
0
0
0
0
0
0
0
-6.05944e-06
0
7.78646e-06
0
0
0
-4.51927e-05
0
0
0
0
0
0
0
0
0.0251307
0.0250014
0.035252
-0.00388407
0.0098865
-0.026005
-0.0123077
-0.00358796
-0.026051
-0.00208067
-0.013859
0.0303084
-0.0293015
0.0208636
0.0138285
0.00317273
0.00297158
-0.00680994
0.0193646
0.00656176
0.00693268
0.0082248
0.00776746
0.00579147
0.0170645
-0.000495766
0.00207238
0.010209
0.00629457
-0.000484409
0.0151685
-0.00640626
0.00351625
0.0212862
0.00401256
-0.00682052
0.00542584
-0.0056035
-0.0523131
-0.0266045
0
0
0
0
0
0
0
0
0
0
0
2.07517e-05
0.117083
-0.0197093
3.87974e-05
0
0
0
0
0
0
0
-1.80011e-05
0
0
0
0
-4.71133e-07
0
9.22556e-07
0
4.50375e-07
0
0
0
0
0
0
0.00162927
0.00918154
0.0248469
0.0121544
-0.0119564
0.0453681
-0.0105036
-0.0302926
0.0047934
0.0437369
-0.0221815
-0.000377434
-0.00510762
-0.0179132
-0.00120023
-0.0187409
-0.010993
-0.00407398
0.00654378
-0.00134879
0.00362386
-0.00653084
0.00999272
-0.0115036
3.3888e-08
0
0
7.61225e-07
0
-7.94857e-06
0
0
0
0
1.47195e-09
0
-1.61145e-06
0
1.61627e-06
0
0
0.000228961
6.47591e-05
0
0
0
5.25635e-05
0.000164646
6.25875e-05
-6.03845e-05
3.45605e-05
0.000323075
0
0
0
0
0
0
0
0
0
0
0
0
0
0
0
0
1.3748e-05
1.62984e-05
0
0
0
0
0
0
0
0
0
0
0
0
0
0
0
0
0
0.000139813
0
0
0.0388768
0.0321073
-0.0424244
0.0132331
0
-0.0260704
0
0
0
0
0
0
0
1.08852e-06
0
1.77265e-05
0
-5.08129e-05
2.68439e-05
0
0
0
0
0
0
0
0
0
0
2.65417e-05
-1.39146e-05
0
0
0
0
0
0
0
0
0
0
1.84803e-05
1.11343e-05
3.69962e-08
0
4.18977e-05
0
0
0
0
0
0
0
0
0
-8.45067e-06
0
2.85221e-05
-0.0410737
-0.00186265
-0.0128097
-0.00954472
-0.0144778
-0.00932613
0.0151141
-0.00203674
0.0418352
0.00128538
-0.000437712
0.0167707
0.00577239
0.00935939
0.00916232
-0.0366157
0.01434
0.00719322
0.00528991
0.0039702
0.000109055
0.0486553
0.0638611
0.00683269
0.0470365
0.044449
0.0188582
0.0449211
0.0120609
0.00789901
0.0338096
0.000600584
0.0199292
0.0768664
-0.0417312
0.00640055
0.0705722
-0.0594621
-0.00602833
0.0623892
0.0700049
0.0416957
-0.0066111
-0.0527796
0.037462
-0.000220908
0.0315687
0.0272942
-0.0125164
-0.00579649
-0.0305
0.0192894
0.0563467
0.045864
-0.00998335
0.067265
0.037433
-0.0134055
-0.0538126
0.0655753
-0.0091741
0.0872906
0.0580075
-0.0254876
-0.102555
-0.0239808
0.0705804
-0.109093
-0.023881
0.0823782
-0.110143
-0.0166421
0.0819199
0.0962233
-0.0231293
0.0888495
0.0923122
-0.0200856
0.0988563
-0.0955153
0.0895471
0.0248444
0.0631976
0.0902334
0.0139434
-0.0893539
-0.0323263
-0.0202688
-0.034801
0.020187
-0.00940037
0.00303065
-0.00509087
-0.00377536
-0.00848643
-0.00837917
0.010604
-0.0194874
0.034212
0.0144593
-0.0386174
0
0.0423664
-0.0228917
0.0214622
0.0122756
-0.00415122
-0.0123287
0.0213588
0.00877708
0.0224966
0.0122959
0.000576672
0.0260943
0.0294868
-0.00204048
-0.022158
0.0174789
0.00202728
0.0177249
0.0184275
-0.000222335
-0.0201134
0.0120295
-0.0086129
-0.0153524
-0.00209926
-0.00774619
-0.0104583
-0.00493003
-0.0170661
0.0160977
-0.0185328
-0.0351253
0.0131819
-0.00544093
0.0241975
0.021798
-0.0138859
-0.0295247
-0.0107231
-5.78075e-05
0
0
0
0
0
0
0
0
0
0
0
0
0
0
0
0
0
1.9655e-05
0
0
0
0
0
-1.00098e-05
0
-4.74705e-05
0
-2.56823e-05
0
0
0
0
-0.000468125
0
0
-0.00963544
-0.00356736
-0.00851459
0
-0.00137302
-0.0271466
-0.0209119
0.0497409
-0.0323353
0.021849
-0.0457432
0.0156833
0.0590639
-0.0308886
0.0191495
0.0781886
0.050597
0.0387562
0.0837277
0.0254346
-0.0645107
0.0654821
0.0235639
0.0854593
0.132668
0.00701865
0.0756987
-0.0904319
-0.0823415
0.0976965
-0.0123369
0.0556212
0.104766
-0.0264111
0.0577683
-0.105916
-0.0051202
-0.0600998
-0.0910135
-0.0748333
-0.0645021
-0.0477893
-0.0837275
-0.0242767
-0.0697804
-0.0886583
-0.0956304
0.0274401
-0.0841278
-0.0859482
-0.00760605
-0.087111
-0.0836148
0.0241541
-0.08869
-0.057302
0.0451006
-0.0917629
-0.0472566
0.0497657
-0.0840554
-0.0423167
0.0562018
-0.0650525
-0.0293588
0.0563964
-0.0451021
-0.00536712
-0.0526093
-0.0191143
0.00925932
0.0266453
0.00668248
0.00584785
-0.00238559
0.0101366
0.00464683
-0.0209905
0.0191719
-0.00709946
0.0178022
0.0255139
-0.0128954
0
0.0162566
0.0113495
0
0
-7.5424e-07
7.82386e-07
0
0
0
0
0
0
0
0
0
-5.25166e-05
1.88986e-05
-0.000106781
-7.22949e-05
-3.75964e-05
-0.000343438
1.06332e-05
-4.05333e-05
-4.49461e-06
0
-0.000225685
6.29196e-05
0
0.0218489
-0.0152735
0
0
0
4.14672e-05
0
-1.39273e-05
-6.08968e-05
1.32011e-07
2.55383e-05
0
-3.19798e-05
0
0
0
0
0
0
0
0
0
0
0
-1.13771e-06
3.69043e-07
0
0
0
0
0
0
0.00588355
0
0.00522548
0
0.0046561
0
0
0
0
0
0
0
0
1.23371e-05
0
0
0
0
0
0
0
0
0
0
0
-3.56452e-05
0
0
0
0
0
0
0
0
0
0
0
0
-1.37109e-05
0
0
0
0
0
0
0
0
0
0
0
0
0
-8.01487e-05
0
0
0
0
0
0
0
0
0
0
0
0
0
0
0
0
0
0
0
0
0
0
0
0
0
0
0
0
0
0
0
0
0
0
0
0
0
0
0
0
0
0
0
0
0
0
0
0
0
-1.35504e-06
3.77726e-11
0
0
0
0
0
0
-0.022728
-0.0104058
-0.00776673
-0.0129301
-0.0183411
-0.0236622
-0.0114627
-0.00879959
-0.00618216
0.00383715
-0.054416
-0.00209732
-0.00576684
0.0217676
0.0265868
-0.0196347
-0.00532921
-0.0243521
0.0229478
0.040646
0.0489749
-0.00927826
0.00878006
0.018743
-0.0382501
-0.0150819
0.0156036
0.00954134
-0.00290182
0.00385007
0.00589604
0.00658993
-0.000188458
-0.00826576
-0.004178
-0.0396663
-0.03991
-0.0154259
-0.0186741
0.0260221
0.0138904
-0.00918074
0.015974
0.0372233
0
0
0
0
0
0
0
-0.0311714
-0.0544138
0
0
0
0
0
0
0
0
0
0
0
0
0
0
0
0
4.41474e-05
6.74675e-05
6.58069e-05
0
5.39338e-05
-2.96917e-05
0
0
0
0
0
0.00621517