/*--------------------------------*- C++ -*----------------------------------*\
  =========                 |
  \\      /  F ield         | OpenFOAM: The Open Source CFD Toolbox
   \\    /   O peration     | Website:  https://openfoam.org
    \\  /    A nd           | Version:  8
     \\/     M anipulation  |
\*---------------------------------------------------------------------------*/
FoamFile
{
    version     2.0;
    format      ascii;
    class       volScalarField;
    location    "12480";
    object      H;
}
// * * * * * * * * * * * * * * * * * * * * * * * * * * * * * * * * * * * * * //

dimensions      [0 1 0 0 0 0 0];

internalField   nonuniform List<scalar> 
526318
(
0.693415
0.653904
0.732827
0.640856
0.707828
0.662849
0.686786
0.598646
0.65788
0.543489
0.519951
0.637876
0.589158
0.628308
0.582427
0.607305
0.588793
0.777829
0.696437
0.736642
0.73328
0.688651
0.45224
0.696118
0.568062
0.434694
0.709564
0.709899
0.708631
0.724833
0.750076
0.7977
0.783494
0.666119
0.665353
0.633825
0.637355
0.731012
0.649778
0.602545
0.665975
0.640153
0.303395
0.352832
0.254838
0.299834
0.28375
0.405943
0.578148
0.488045
0.566613
0.577379
0.519846
0.48416
0.000933232
0.226782
0.223391
0.0221519
0.743405
0.754491
0.772162
0.722991
0.67541
0.794885
0.794448
0.755479
0.739059
0.742969
0.643406
0.634439
0.752523
0.531073
0.583268
0.474867
0.430426
0.423886
0.51862
0.513611
0.432857
0.468369
0.554112
0.546266
0.502005
0.461019
0.491591
0.555933
0.560488
0.528945
0.483513
0.553569
0.465528
0.408843
0.406805
0.336303
0.334113
0.336294
0.335836
0.333317
0.331342
0.328464
7.97638e-05
2.15653e-06
0.000352081
8.07584e-11
0.000771478
0.000148343
0.237567
0.0629521
0.362775
0.339712
0.371537
0.489394
0.715782
0.59842
0.710547
0.721916
0.792011
0.759552
0.806001
0.329984
0.324711
0.32882
0.332268
0.288804
0.326113
0.23763
0.281159
0.189472
0.23986
0.191844
0.190126
0.177327
0.154904
0.145386
0.174274
0.115792
0.167784
0.118326
0.137931
0.0842929
0.0888843
0.110451
0.140314
0.126421
0.0828838
0.0826331
0.0993094
0.084983
0.0827225
0.0901576
0.10319
0.089986
0.0900848
0.0944167
0.0946004
0.0595794
0.0952634
0.0925276
0.0601908
0.014667
0.0951733
0.0427419
0.10148
0.596314
0.688447
0.631803
0.615463
0.422425
0.487837
0.420268
0.419042
0.421634
0.421104
0.443077
0.421864
0.35531
0.326811
0.292897
0.235859
0.294614
0.335185
0.334995
0.33323
0.221241
0.274397
0.162061
0.168912
0.181297
0.169478
0.172812
0.173546
0.164134
0.166478
0.164361
0.152518
0.132724
0.157975
0.148281
0.118873
0.0983983
0.12703
0.110647
0.101424
0.124106
0.111341
0.116013
0.0790268
0.0969557
0.127606
0.129549
0.575037
0.587638
0.62288
0.600561
0.582303
0.577191
0.578565
0.458188
0.492747
0.233512
0.230256
0.216234
0.340459
0.476373
0.346484
0.388192
0.389833
0.3384
0.319086
0.000925622
1.32306e-16
1.02512e-07
0.160604
0.00027704
9.76159e-09
0.000995694
0.000255125
0.000396609
0.000963311
0.79033
0.771979
0.821472
0.814098
0.783861
0.769915
0.684128
0.766743
0.609761
0.555945
0.553415
0.558834
0.554923
0.553743
0.546431
0.540487
0.458677
0.525563
0.342806
0.399099
0.327878
0.340877
0.00100536
4.55059e-11
0.000154997
0.00100202
0.000103589
0.000987509
5.59714e-11
0.000806815
0.33616
0.159351
0.386211
0.388676
0.498774
0.602497
0.720286
0.725698
0.762991
0.737082
0.802984
0.835799
0.304048
0.308342
0.265004
0.241765
0.135384
0.17249
0.0989905
0.108361
0.0978992
0.092472
0.082388
0.0886283
0.0137057
0.0377949
0.0717493
0.112681
0.16371
0.131408
0.0940217
0.0897346
0.0277284
0.0163998
0.0640469
0.121374
0.0437977
0.0817783
0.084234
0.0494688
0.0451136
0.0150796
0.0124025
0.00078898
0.000872768
0.000791149
0.000502242
0.0901308
0.129785
0.0879126
0.134892
0.488717
0.452991
0.3531
0.441383
0.35706
0.413798
0.423496
0.409472
0.422892
0.419643
0.331455
0.248339
0.174885
0.158199
0.233698
0.175784
0.161044
0.271342
0.164364
0.212874
0.152521
0.153001
0.160353
0.150287
0.167494
0.162104
0.161121
0.164915
0.160867
0.159818
0.170801
0.164673
0.181814
0.175699
0.180418
0.158111
0.168907
0.15538
0.129114
0.127603
0.153056
0.182038
0.176574
0.152005
0.135809
0.162259
0.203568
0.199493
0.215781
0.171113
0.203204
0.225639
0.263847
0.212082
0.223204
0.236853
0.271816
0.401467
0.478376
0.395402
0.430564
0.500208
0.563412
0.480181
0.341818
0.458286
0.359406
0.373384
0.108375
0.058386
0.0877877
0.0707954
0.192842
0.311117
0.24446
0.312897
0.310615
0.334439
0.314936
2.95166e-09
0.000699573
0.000197183
5.32963e-06
0.000894485
0.000450238
0.000599399
0.00100998
0.000476803
0.00100962
0.000664765
0.00100889
0.000730728
0.000955715
0.000582482
0.000952703
0.814997
0.804856
0.840666
0.831989
0.810132
0.782113
0.707112
0.62375
0.558695
0.567786
0.545779
0.545586
0.524422
0.525397
0.505744
0.500744
0.45371
0.499889
0.423104
0.363516
0.309214
0.267628
0.000934567
0.00107452
0.00107454
0.000663073
0.000609429
0.000731205
0.000594856
0.00107455
0.00107456
0.00107451
0.00100999
0.00100984
0.000550093
0.00100942
0.000924102
0.000172183
0.000288255
0.000487392
0.000977135
0.00096135
7.31626e-08
0.000978536
0.000793614
1.85613e-05
0.038223
1.15003e-10
0.246761
0.412463
0.42442
0.515777
0.736812
0.630332
0.748733
0.74825
0.763566
0.793402
0.821516
0.843383
0.225743
0.225066
0.180921
0.204986
0.143506
0.106129
0.100201
0.0996405
0.0907605
0.0986604
0.0521612
0.0430677
0.000980064
0.0069245
0.0619758
0.0341811
0.00837873
0.0539523
0.0490026
0.0702609
0.000563312
0.000877153
0.000798003
0.000829876
0.00143499
0.000831436
0.000892201
0.000873819
0.000898651
0.000387281
0.000872478
0.248078
0.224883
0.219476
0.223
0.238943
0.350955
0.295788
0.286197
0.168128
0.213019
0.191793
0.199862
0.0997358
0.0376729
0.216584
0.329935
0.21694
0.224594
0.199333
0.28845
0.261086
0.338908
0.372718
0.293078
0.276963
0.309879
0.188163
0.161519
0.157645
0.157905
0.0739878
0.126682
0.0522643
1.78627e-10
0.000895493
0.103542
0.102468
0.150989
0.156363
0.154461
0.151599
0.153517
0.158382
0.150677
0.170408
0.158352
0.174794
0.174671
0.173972
0.169792
0.205768
0.188747
0.216441
0.220354
0.165508
0.148073
0.213784
0.196621
0.182285
0.204669
0.183537
0.172578
0.219675
0.200308
0.309545
0.319217
0.271307
0.308757
0.317467
0.282853
0.374367
0.345033
0.414803
0.436161
0.459453
0.367461
0.372667
0.373155
0.33164
0.315221
0.285257
0.373882
0.229423
0.205058
0.248475
0.282556
0.000228429
0.00733953
0.0851215
0.203276
0.244207
0.277518
0.181078
0.143771
0.10932
0.0469384
0.000965631
0.000310861
1.42674e-06
1.84795e-07
0.000778321
0.00100068
0.000993891
0.000234006
0.00100979
0.000545241
0.00024476
0.000470015
0.000926911
0.000208943
0.000889372
0.000986846
0.000766556
0.000551352
0.000138864
0.000388285
0.00097475
0.00101
0.000135945
0.000999779
0.000911667
0.000354496
0.00117695
0.000891398
0.00107828
0.000995365
0.00117672
0.00117674
0.000905287
0.000999494
0.0009727
0.000201819
9.59135e-05
0.000989075
0.000892979
0.0009482
0.00100959
0.000881287
0.00100965
0.000996543
2.65749e-05
0.000931251
0.811736
0.819643
0.839647
0.832941
0.811456
0.738587
0.554742
0.643412
0.524962
0.527051
0.506688
0.504911
0.496864
0.497289
0.488909
0.490044
0.435946
0.405518
0.309998
0.34815
0.206575
0.245582
0.000962995
0.000624444
0.000948563
0.000967574
0.000969466
0.000982262
0.000974014
0.000870723
0.00101
0.000765372
0.000677989
0.000965569
0.000971308
0.000759356
0.000380116
0.000991326
0.000690401
0.00100737
0.000803925
0.000839513
0.000369052
0.000975289
0.000889611
0.000439439
0.000917861
0.00068906
0.00101
0.000641909
7.65713e-06
6.82991e-05
0.000555011
0.000719123
0.000399799
0.000541026
0.224121
0.0560949
0.43526
0.38727
0.455456
0.565139
0.669192
0.749563
0.75971
0.750345
0.792934
0.824154
0.810914
0.80282
0.00116475
0.000881074
0.000886173
0.000261872
0.000741195
0.000922867
0.00081396
0.000937036
0.000890554
0.000725685
0.000975785
0.00092383
0.000794854
2.99799e-07
0.000880516
0.00101
0.000170373
0.206357
0.204354
0.204402
0.174201
0.0906256
0.124249
0.0513997
0.0435474
0.00689897
0.00192983
0.000938632
0.000467495
0.000223891
0.00040806
0.00041438
0.000765418
0.000913509
0.0228053
0.000420398
0.00756037
0.000712611
0.000921773
0.000703425
0.000545433
0.000771027
0.000818397
0.000964289
0.000555971
0.000325844
0.000996791
0.000920408
0.000390313
0.444977
0.414962
0.454772
0.463771
0.414707
0.369706
0.532831
0.559658
0.62835
0.632405
0.179445
0.222066
0.262987
0.343076
0.177158
0.124084
0.164051
0.152566
0.000870301
0.0484099
0.0975067
1.4997e-05
0.202746
0.201795
0.203325
0.201233
0.222556
0.203841
0.211493
0.235222
0.109743
0.104375
2.07251e-11
0.0913816
0.0821114
0.0344869
0.00453995
0.0085978
4.24913e-77
0.000611555
0.000925778
0.0375853
0.0993183
0.033918
0.104772
0.148094
0.156455
0.150622
0.157003
0.157777
0.176827
0.167768
0.186547
0.191467
0.209965
0.203865
0.214605
0.212902
0.218634
0.21773
0.225355
0.219149
0.268833
0.234883
0.200061
0.206186
0.271204
0.243895
0.242695
0.284887
0.322898
0.314558
0.313912
0.318567
0.35825
0.412241
0.468489
0.495426
0.49499
0.481418
0.623069
0.553574
0.683483
0.719983
0.719679
0.750534
0.812031
0.676918
0.756629
0.783182
0.860123
0.908171
0.93407
0.954808
0.987177
0.931349
0.985219
0.944034
1.02197
1.02245
1.0711
1.03986
1.10177
1.12995
1.11971
1.06712
1.1347
1.15686
1.12626
1.119
1.18942
1.16585
1.19451
1.1371
1.13451
1.20002
1.16737
1.1192
1.11906
1.15049
1.1846
0.176809
0.135634
0.31124
0.307982
0.277643
0.269676
0.271012
0.0329421
0.173472
9.54177e-05
0.000522417
0.00662076
8.5832e-05
0.000108206
0.000702827
0.000192545
0.107679
0.0111982
0.0103692
0.000499145
0.000977849
0.000438201
0.00051585
0.000348275
0.00101
5.27544e-07
5.8384e-05
9.70941e-06
5.35186e-05
0.00101
0.000966006
0.000995857
0.000573942
1.34418e-05
0.00164917
0.000842141
0.000928041
0.000844807
0.000691483
0.000386829
0.00069126
0.000943677
0.000831092
0.00130483
0.000407486
0.00012748
0.000146108
0.000949
0.000431299
6.93167e-06
1.61879e-05
0.000990101
0.00093513
0.00100829
0.00079528
0.000911134
0.000410555
0.00100928
0.00100997
0.000810376
0.000940982
0.00075839
0.000978582
0.000974989
0.000926586
0.00101
0.00057983
0.000953555
0.00102668
0.00105959
0.000949663
0.00102638
0.0009325
0.00101
0.00101
0.000467339
0.000585417
0.000993933
0.000773625
0.000877713
0.00099375
0.000922247
0.000776475
0.0010078
0.000994205
0.000136415
0.000956593
0.000950381
0.000921886
0.000915695
0.000919934
0.000615981
0.00101
0.000623175
0.000968314
0.797818
0.789759
0.762589
0.757282
0.676115
0.749026
0.569674
0.509013
0.500735
0.49606
0.497255
0.496628
0.434091
0.440175
0.2841
0.248746
0.201856
0.375827
0.378978
0.324564
0.332125
0.331422
0.000832139
0.000412501
0.00106982
0.00106942
0.000962471
0.000414864
0.00093308
0.000410365
0.00106878
0.000947855
0.000161511
0.00100893
0.000972717
0.000941946
0.000297472
0.000985833
0.000726155
0.00091818
0.00021426
0.00071546
0.000434616
0.000951565
0.00136956
0.0013697
3.81621e-05
5.95567e-06
0.000169957
0.000987693
0.0569756
3.32574e-10
0.225677
0.39135
0.419573
0.455343
0.530623
0.648962
0.713495
0.689508
0.733882
0.669593
0.719744
0.763738
0.713823
0.715346
0.00110174
0.000996871
0.00101
0.000849207
0.000930414
0.00119456
0.000759096
0.000800881
0.00119456
0.000964874
0.000981161
0.000996251
7.81162e-05
1.14836e-05
0.000985135
0.000373012
4.31e-10
0.00072123
0.00101
0.000253336
0.000277025
0.000765241
0.00096459
0.000879022
0.00202704
0.00101095
0.180291
0.179539
0.100356
0.115592
0.000996119
0.0158771
0.000643162
0.00076781
0.000601784
0.00135635
0.000275067
0.000751573
0.000686785
0.000630537
0.000182321
0.000339105
0.000231844
0.000926802
0.00123905
0.00120809
0.000577909
0.0002975
0.000449275
0.0008342
0.00030944
0.000950196
0.000717662
0.000602104
0.000980152
0.000764758
0.00121619
0.00070298
0.668416
0.660588
0.497935
0.410851
0.402847
0.384317
0.667995
0.574272
0.82552
0.895929
0.790585
0.72098
0.91015
0.896489
0.960128
1.01103
1.04109
1.03818
1.06888
1.03843
1.09375
1.12249
1.11681
1.11605
1.13122
1.11858
1.11793
1.16362
1.10885
1.10585
0.231013
0.156944
0.296457
0.361088
0.157594
0.103541
0.152086
0.157897
0.000694109
0.0349332
7.98201e-05
0.0381085
0.000928434
0.200049
0.145382
0.199497
0.196857
0.199148
0.0926881
0.000998384
0.000271247
6.85609e-15
2.50817e-06
0.000943335
1.4822e-322
7.06047e-29
1.81001e-06
0.000998818
0.000713049
0.000810978
3.63154e-05
0.000177553
0.0464294
0.000713036
0.100973
0.0499136
0.0879538
0.144562
0.186077
0.155447
0.198983
0.185755
0.197747
0.190987
0.229281
0.234176
0.237924
0.250547
0.258993
0.25826
0.285297
0.298099
0.296558
0.287074
0.281608
0.278753
0.301422
0.314134
0.361511
0.366438
0.328
0.360674
0.356202
0.380332
0.415675
0.481139
0.507512
0.505366
0.515144
0.589812
0.665763
0.748446
0.754631
0.881165
0.755275
0.811971
0.965913
0.981966
0.98649
1.021
1.06879
1.11906
1.12989
1.13232
1.16108
1.18949
1.21462
1.2141
1.21351
1.2145
1.21422
1.19503
1.13074
1.1966
1.16264
1.11503
1.11703
1.14927
1.18264
1.19362
1.1162
1.18005
1.13947
0.000184189
0.000967369
0.0284189
0.106637
0.00165651
0.0628497
0.198426
0.132425
0.163051
0.000724979
0.000531309
1.93585e-06
0.000715418
0.00324332
4.24403e-08
0.000192967
9.55398e-07
0.000861168
0.000978156
0.0012576
0.0012566
0.000284872
0.000473845
0.000269009
0.00100999
0.000871197
0.000795729
0.000978231
0.000481242
0.00143789
0.00144301
0.00086849
0.000172666
0.000462641
0.00164901
0.000981197
0.000716726
0.000478021
0.000315336
0.000477629
0.00101
0.000940724
0.00130504
0.000928609
0.00101
0.000510884
0.000660221
0.000998234
0.000701989
0.000938544
0.000874495
0.00105209
0.000945485
0.000791252
0.000751098
0.000990039
7.57449e-05
0.00099613
0.000976554
0.000151024
0.000650036
0.000544652
0.000936558
0.000835023
0.000981544
0.000966639
0.00103757
0.000978339
0.000943996
0.000974885
0.00092222
0.000207016
0.000979907
0.000919067
0.00101
0.000732523
0.00100962
0.000641972
0.000367709
0.000916152
0.000960434
0.000963023
0.000892128
0.000598188
0.000479733
0.70567
0.708287
0.693569
0.692971
0.625192
0.686542
0.496256
0.562864
0.455505
0.458478
0.402245
0.383272
0.327531
0.330182
0.244423
0.13996
0.113393
0.284934
0.328423
0.328778
0.327819
0.328973
0.00106733
0.000992301
0.00106796
0.000570312
0.000973634
0.000973647
0.00094649
0.000972052
0.00100548
0.000830393
0.000135327
0.000443538
0.00093376
0.000997208
0.00060297
0.00100999
0.00098232
3.53596e-05
0.000985985
0.000873381
0.000276721
0.000468363
0.000655599
0.00101
0.000321117
3.32274e-05
0.00016739
0.000935205
0.121586
1.46329e-28
0.265283
0.398336
0.369261
0.483249
0.647338
0.548129
0.624378
0.626611
0.61855
0.645814
0.701184
0.700428
0.703868
0.675793
0.000769413
0.000922585
0.000566899
0.000958878
0.000712787
0.000933944
0.000627141
0.000452485
0.000819057
0.000879841
0.000957505
0.000856862
0.000968979
1.67742e-11
0.000922039
0.000873917
0.00096514
0.000987798
0.000743529
0.00100999
0.000468733
5.56315e-06
0.00187932
0.000901385
0.00101
0.000860782
0.000668131
0.000489708
0.000136748
5.49404e-10
0.00098545
0.0559354
0.0544298
0.0191018
0.000988187
0.000273559
0.000295188
0.000956993
0.000401106
0.0972768
0.0401848
0.0200801
0.000187059
0.0009323
0.000408908
0.00100989
0.00126615
0.00126615
0.000245111
0.000583215
0.000280584
0.000807948
0.000315496
0.000801456
0.000830286
0.000590597
0.000349619
0.000324251
0.000587295
0.00100971
1.30661e-05
0.00052455
0.000737284
0.000689738
0.000594218
0.000809643
1.2405
1.2488
1.27591
1.25692
1.29597
1.28477
1.30535
1.30067
1.35457
1.3425
1.30603
1.36021
1.32664
1.3766
1.20848
1.15792
1.18098
1.23006
1.21539
1.18235
1.1861
1.23745
1.24533
1.21745
1.20105
1.25012
1.23595
1.24153
1.26698
1.11707
1.11817
1.11933
1.11485
1.13336
1.15728
0.715094
0.653634
0.556413
0.460158
0.367284
0.451356
0.651675
0.635768
0.872592
0.889822
0.78179
0.857815
0.89971
0.948233
0.99436
1.04177
1.03596
1.04215
1.03473
1.06711
1.08026
1.10558
1.09229
1.09355
1.0965
1.10713
1.08504
1.08288
0.286375
0.209109
0.150667
0.139951
0.198936
0.359372
0.352673
0.0802932
0.134112
0.00839744
0.000767419
1.22613
1.24821
1.26316
1.27125
1.27527
1.28504
1.29212
1.31514
1.30367
1.3177
1.32069
1.36652
1.38895
1.41431
1.41407
1.41457
1.43253
1.4561
0.000474137
0.000687931
0.00145588
0.125162
0.0149165
0.184737
0.0861339
0.00596938
0.00131599
1.67692e-05
0.00131603
0.00131598
0.000150505
0.000197416
0.000879062
0.000634227
1.56935e-49
6.10001e-120
0.000377734
0.000793005
0.000395231
0.000563466
0.00121548
0.00103156
0.0495643
0.011146
0.135648
0.0802941
0.165432
0.132258
0.172521
0.196761
0.218662
0.239356
0.26137
0.262309
0.266724
0.259799
0.319652
0.311505
0.299797
0.302218
0.34991
0.327677
0.400256
0.360244
0.339874
0.382384
0.425497
0.418686
0.439459
0.476859
0.477001
0.421428
0.524603
0.559614
0.531088
0.513987
0.601258
0.68217
0.756334
0.821469
0.769588
0.79206
0.925838
0.974425
1.02503
1.00185
1.06665
1.09932
1.13934
1.15308
1.14662
1.16695
1.22332
1.20362
1.21582
1.22308
1.21583
1.21456
1.21541
1.21443
1.21564
1.21586
1.21714
0.000979898
8.29514e-06
0.00230589
2.18594e-05
0.000308718
4.35623e-05
0.000391132
1.15119e-09
0.000349998
0.000541021
0.000510795
0.000992538
8.58466e-05
0.000355841
0.00145582
0.000995413
0.000894993
0.000198069
4.28478e-05
0.00125523
0.000332454
0.00038011
0.000798335
0.000714013
0.000735431
0.000980699
0.00100999
0.000913532
0.00111902
0.001119
0.00143848
0.000818172
0.00101327
0.000973111
0.000776109
0.00096702
0.000896738
0.000998449
0.00026155
0.000888291
0.00100984
0.000894905
0.00111893
0.000261439
0.000398457
0.000668916
0.00101
0.000330569
0.000740386
4.75348e-15
5.57179e-10
0.00241371
0.000379096
0.000850418
0.000694792
0.000545923
0.000997667
0.0003892
0.00100993
0.000972649
0.000977525
0.000963111
0.000999516
0.000734467
0.00103484
0.000926754
0.000708966
0.000996279
0.000757853
0.00103586
0.00089779
0.000955844
0.000631827
0.000258775
0.000747058
0.000964465
0.000941166
0.000838222
0.00101
0.000334973
0.000769708
0.000685233
0.000978177
0.000925692
0.000935309
0.000895252
0.00091709
0.000695524
0.000567275
0.00205535
0.000189115
0.000674617
0.000835469
0.00094286
0.00205531
1.40322
1.3759
1.34993
1.44955
1.48204
1.4803
0.690875
0.682639
0.673706
0.678471
0.597731
0.662237
0.494321
0.414238
0.342606
0.361276
0.331287
0.325558
0.32703
0.325315
0.206505
0.12204
0.21441
0.289657
0.294968
0.00093523
0.00079858
0.000875173
0.000890082
0.000922295
0.0009764
0.000965395
0.000493094
0.000931051
0.000554111
0.00100943
0.000959595
0.000969088
0.000968182
0.000170901
0.000405316
0.00100998
0.000498781
0.000128694
0.000927014
4.59314e-06
0.000276193
0.000921556
0.000785239
0.00052174
0.000783296
0.000978157
0.0957465
0.235759
0.352227
0.351079
0.667046
0.586377
0.603778
0.386135
0.478106
0.563075
0.617788
0.616706
0.619244
0.63671
0.662363
0.657933
0.000709359
0.00115314
0.000624709
0.000982796
0.000704864
0.000720222
0.00100904
0.000845157
0.000721613
0.000865554
0.000823186
0.000932446
0.000763197
0.000831138
0.000896425
0.000594165
0.000627663
0.00100504
0.000978863
0.000935387
0.000938185
0.000682923
0.000770427
0.000937995
0.000997599
0.000978674
0.000347723
0.000953032
0.000978459
0.000973622
0.00101
0.000984843
0.000871643
0.000978065
0.000827832
0.000837077
0.000811322
0.0533259
0.0882985
0.0775604
0.0179107
0.0182807
0.000983314
0.0117241
0.00018178
0.00040509
0.000336896
0.000919076
0.0248301
0.0110355
0.000406768
0.000986977
0.000612942
0.000962556
0.000490688
0.000432878
0.000753925
0.000136085
7.42918e-05
0.00065721
0.000224512
0.000729848
5.79952e-05
0.000680105
0.000702988
0.000415728
0.000653842
0.000551523
0.000693939
9.93495e-05
0.000358069
0.000994303
5.96142e-05
0.000979051
1.24072
1.25565
1.27646
1.30104
1.30273
1.30858
1.33525
1.31761
1.17335
1.16827
1.15521
1.17597
1.20954
1.17263
1.21637
1.19267
1.10782
1.093
1.09319
1.12482
1.15199
1.1246
0.718328
0.640751
0.53659
0.628499
0.474103
0.377673
0.643735
0.639344
0.876054
0.876173
0.892174
0.792029
0.86732
0.98123
0.923093
0.866704
0.908416
1.00902
1.0282
1.01694
1.02669
1.03352
1.05783
1.08285
1.07395
1.08162
1.08669
1.07994
1.08285
1.0843
1.08228
0.123376
0.126318
0.268712
0.352297
0.123631
0.207917
0.367068
0.368126
0.121211
0.0577104
0.000805549
0.0349487
1.25804
1.21854
1.23438
1.28075
1.27911
1.28033
1.29059
1.3096
1.33502
1.34438
1.34184
1.34794
1.37385
1.41678
1.39397
1.41468
1.43258
1.48111
1.45516
1.28717
1.29703
1.31208
1.48191
1.47892
1.47459
0.00145569
0.00145565
0.00145572
0.000537894
0.000122318
0.000901712
7.0011e-08
0.000928091
0.000396058
0.000659527
0.000757232
0.000881632
0.000578176
0.00101
0.000702905
0.00100987
0.000969713
4.05962e-06
0.000753117
2.26231e-09
0.00186265
0.000810495
0.000125918
0.000626889
0.0744674
0.101804
0.0327164
0.0703358
0.137945
0.0986168
0.226865
0.161399
0.235285
0.248608
0.264376
0.252833
0.303158
0.333995
0.377838
0.374204
0.379367
0.363275
0.393952
0.372336
0.424557
0.425622
0.452323
0.452462
0.428865
0.428707
0.549733
0.593953
0.495494
0.560036
0.607666
0.565842
0.671675
0.712986
0.813477
0.854999
0.828466
0.926438
0.973561
1.07869
1.06033
1.1214
1.09462
1.18637
1.19535
1.18562
1.21209
1.24081
1.2409
1.29615
1.26034
1.28905
1.25332
1.25468
1.28625
1.2222
1.25482
1.21854
0.000278737
3.1586e-06
0.000809039
0.000599838
0.000769361
0.000964183
0.00057408
5.96862e-07
0.00101
0.000199154
0.000130371
0.000512431
0.000262774
0.000632165
0.000560987
0.000340617
0.000371394
0.000189564
0.000508679
2.8659e-05
0.000124015
4.98173e-05
5.50518e-07
0.00022148
0.000787534
0.00103102
0.000966316
0.000105182
0.00111899
0.001119
0.000976249
0.000995782
0.000992745
3.82214e-05
0.00101
0.000912008
0.0010004
0.000112849
0.00044385
0.000919656
2.11408e-10
0.000297927
0.00218451
6.55185e-10
0.000984734
6.01589e-05
0.0009581
0.000364482
0.00101
0.000172236
0.000986308
0.00219822
0.000983244
0.000134455
0.00096781
0.00100982
0.00127689
0.000392927
0.00100983
0.000979813
0.000465046
0.000983408
0.00101
0.000808151
0.00103496
0.00103521
0.000896998
0.000927022
0.00103578
0.00103546
0.000955402
0.000880894
0.000711032
0.000919589
0.00155721
8.00868e-05
0.00155707
0.000807041
0.00098702
0.000966821
0.00099923
0.00100984
0.00101
0.00100994
0.000799141
0.000805878
0.000827454
1.20946e-05
9.12481e-06
0
0.00090453
0.000799517
0.000430028
0.000853212
0.00127683
0.000898711
0.00100958
0.00100997
0.000837613
0.000998553
0.000946811
0.000914726
0.00101
1.35588
1.38369
1.3866
1.38163
1.41607
1.52334
1.50118
1.5004
1.52539
1.4663
0.597361
0.588565
0.523758
0.523272
0.481875
0.509637
0.420446
0.375004
0.361946
0.330705
0.30277
0.306892
0.211592
0.223807
0.091621
0.132039
0.137955
0.000529692
0.000965684
0.000913493
0.00101
0.000949844
0.000924031
0.000585991
0.00103278
0.0667309
2.46694e-05
0.000919443
0.000220381
0.000959565
0.000979614
1.45509e-06
0.000368616
0.00101
0.000973661
0.000814625
0.00102172
0.000849804
0.000994718
0.000944045
0.000847483
0.00025022
0.4649
0.466809
0.508295
0.203637
0.347394
0.347144
0.383596
0.511286
0.576114
0.54051
0.444666
0.529411
0.554085
0.559622
0.479092
0.510351
0.000957717
0.000982616
0.00115317
0.00101
0.00065745
0.000823908
0.00101
0.00117882
0.000963094
0.000991058
0.000160682
0.000986054
0.000875008
0.000936631
0.000510229
0.00102344
0.00096722
0.00102358
0.00102348
0.00101
0.000771965
0.000895476
0.000833864
0.000976221
0.00092185
0.00100577
0
0
0
0.000761633
0.00107166
0.000962456
0.00100563
0.000944429
0.000473953
0.000911195
0.000978965
0.000968087
0.00097325
0.000338297
0.000895901
0.000914242
0.000926795
0.00094281
0.00102351
0.0717493
0.0826554
0.091187
0.000882106
1.74306e-05
0.000985969
0.000284968
0.000926634
0.000750894
0.00147461
0.00067231
0.000830989
0.00147455
0.000471063
0.000491909
0.000406739
0.000485044
0.000242686
0.000584634
0.000435181
0.00103454
0.000270985
0.000575667
0.000666396
0.000877991
0.000909496
4.3442e-07
0.00015205
0.00118467
0.000498419
0.0010345
0.000312228
0.000747328
0.000798893
0.000346646
0.00101
0.000942721
0.000570396
0.00118465
1.24459
1.19922
1.27358
1.24136
1.24547
1.29607
1.29006
1.33536
1.31995
1.36336
1.32395
1.28584
1.36118
1.31504
1.13603
1.13576
1.12655
1.14094
1.15505
1.16605
1.16663
1.17344
1.08243
1.07856
1.10379
1.08848
1.1184
1.12742
0.722464
0.643458
0.558135
0.637627
0.427725
0.520991
0.637445
0.645649
0.868486
0.865135
0.870874
0.796909
0.952651
1.00221
0.912665
0.869196
1.01131
1.00717
1.02589
1.00837
1.04987
1.07221
1.07941
1.08367
1.08256
1.0771
1.08316
1.07901
1.07768
1.07888
0.114761
0.119417
0.284757
0.364182
0.264105
0.185096
0.404834
0.357472
0.0928453
0.120559
0.0851875
0.00486963
1.25886
1.29026
1.27755
1.3014
1.31889
1.30849
1.3452
1.35705
1.33219
1.34347
1.33103
1.33996
1.35031
1.37218
1.3956
1.41455
1.41745
1.46562
1.44306
1.49038
1.49905
1.3665
1.37886
1.49369
1.50877
0.000415286
9.06854e-05
0.000696944
0.000551543
0.000525579
9.3846e-05
0.000260243
0.000189298
0.00101
1.00585e-05
0.000927799
0.000258474
0.000705117
0.000657476
5.07035e-06
0.000780461
0.00186261
0.000438129
0.000872027
0.000687083
0.000483392
1.85227e-16
0.000980484
1.96606e-226
0.0882371
0.0890772
0.0540802
0.000242916
0.129098
0.164
0.226768
0.203679
0.239554
0.224619
0.344382
0.292737
0.397278
0.387019
0.41142
0.416793
0.39082
0.449285
0.49678
0.469269
0.451559
0.479004
0.530886
0.520293
0.493325
0.540633
0.620189
0.625183
0.614153
0.640551
0.771655
0.680547
0.852868
0.879347
0.881984
0.945582
1.02293
1.09722
1.10519
1.11798
1.16153
1.21256
1.2442
1.2456
1.28273
1.25568
1.30956
1.32234
1.32416
1.32386
1.32247
1.32623
1.29528
1.32189
1.29074
0.00085273
0.000174337
0.0071371
0.0010251
0.000696557
7.73581e-05
0.000686777
0.000538285
0.000919458
0.000700239
0.00101
0.00132736
0.00132698
0.00132858
0.00132766
0.00132729
0.00132944
0.000998934
0.00132806
0.00678188
0.000990348
0.000638589
0.000184916
0.00103133
0.000432871
0.00103113
0.00103108
0.000425178
9.83527e-05
0.00100217
0.000993637
0.000687571
0.000856518
0.000794651
0.00101
0.00103663
0.00078168
0.000959982
0.00100986
0.000887496
0.000962023
0.000994056
0.00186127
0.00097429
0.000146754
1.36216e-05
0.000607696
0.00096357
0.000988249
0.000479144
0.000826696
0.000961729
0.00100941
0.00031059
4.64691e-05
0.000987756
0.00100992
0.000817418
0.000560979
0.000722253
0.00101
0.000799183
0.000968724
0.000279366
0.000905419
0.000941315
0.000943057
0.0010008
0.000939674
0.000880492
0.000886752
0.00100949
0.00097168
0.000773375
0.000984106
0.000952799
0.000579688
0.00098992
0.000934564
0.000964099
0.000974876
0.000974485
0.00101
0.00099424
0.000905098
0.000464111
0
0
0
0
0
0
0
0
0
0
0
0
0
0
0
0
0
0
0
0.00099334
0.000892591
0.000937661
0.000812305
0.000916581
0.000434354
0.000930589
0.00106413
0.000325168
0.000811332
0.000466088
0.000885277
1.54017
1.54331
1.55239
1.54032
1.55442
1.56078
1.40035
1.3869
1.45826
1.42866
1.52224
1.5338
1.53639
1.42529
1.34959
0.457938
0.464522
0.464562
0.452195
0.460599
0.390551
0.434167
0.224304
0.28131
0.146524
0.145536
0.0914658
0.0918941
0.0918422
4.53839e-05
0.000788632
0.000495047
0.000982711
0.000961367
0.0953927
4.48385e-05
0.000948865
0.000967043
0.00110151
0.000787743
0.000977274
0.000823867
0.000970402
0.000977458
0.000717645
0.000335301
0.00101412
0.00101424
0.000302476
0.00101408
0.000932938
0.0004632
0.000564851
0.461838
0.464105
0.4651
0.466052
0.465273
0.177785
0.291576
0.236751
0.352774
0.411511
0.440222
0.366322
0.452737
0.407354
0.40357
0.390282
0.000954778
0.00110735
0.000829242
0.000970576
0.000973219
0.000935143
0.000756287
0.00101464
0.000147908
0.000894528
0.00101272
0.00065393
6.92933e-05
0.000748196
0.0010204
0.000508825
0.000763669
0.000836739
0.000975572
0.000946073
0.00094707
0.000993665
0.000740767
0.000908685
0.000621516
0.00100955
0.000627569
0.000973579
0.000348921
2.15212e-05
0
0
0
0
0
0.000870581
0.00107159
0.000978274
0.00107133
0.000988902
0.000872265
0.00078846
0.000950347
0.00098805
0.00100037
0.00093197
0.000953825
0.000956596
0.000997349
0.000778615
0.00101
0
0
0
0
0
0
0.0694711
0.00069902
0.000317831
0.000656823
0.000589451
0.000680509
0.00078824
0.000960083
0.000791447
0.000311719
0.00100956
0.000847411
0.000375808
0.000550644
0.00033854
0.000760208
0.000752664
0.000795758
0.000905726
0.000971356
0.000992021
6.51335e-05
0.00073987
1.78106e-05
0.000486704
0.000784801
0.000634249
0.000404769
0.000958393
0.00027789
0.000608986
1.31742e-05
0.000467482
0.00182614
0.00183009
0.000647454
0.000959699
0.000281529
0.000798649
0.00100972
0.000818552
1.22178
1.19676
1.2142
1.21473
1.21745
1.22973
1.22805
1.28306
1.28065
1.30587
1.36765
1.32694
1.27855
1.12603
1.12548
1.15376
1.14117
1.16681
1.16782
1.1896
1.17602
1.08099
1.08753
1.11171
1.09433
1.11055
1.11571
0.761011
0.680753
0.595567
0.640879
0.583545
0.489902
0.678293
0.634732
0.876409
0.870818
0.833938
0.881475
0.962251
1.01033
0.879722
0.918616
1.01194
1.01232
1.03742
1.01296
1.05399
1.07436
1.07646
1.06813
1.07616
1.07694
1.07759
1.07306
1.07749
1.07732
0.114421
0.172852
0.365335
0.336238
0.260274
0.346997
0.357992
0.431927
0.108993
0.103751
0.0958255
0.0153041
5.3971e-05
3.03383e-07
0.000596378
1.32426
1.32888
1.35634
1.34839
1.3725
1.38453
1.38476
1.38543
1.41972
1.4007
1.40794
1.37488
1.41048
1.41766
1.44595
1.46273
1.47828
1.4757
1.526
1.52737
1.54946
1.52557
1.43785
1.44275
1.56532
1.55552
0.00016622
0.000334169
0.00101
7.42355e-06
0.000729054
0.00123958
0.00123958
0.000992983
0.000305007
0.000125873
0.000112619
0.0020468
0.00106627
0.000737044
0.000822227
0.000857193
0.00100232
0.000626775
0.000320397
0.000824137
8.63116e-05
0.000995528
0.000301624
0.000773739
0.000883095
0.036803
0.105051
0.000644312
0.208244
0.145412
0.227652
0.21981
0.310175
0.244518
0.368381
0.404256
0.398181
0.405165
0.526691
0.497531
0.46799
0.520261
0.541496
0.540556
0.534173
0.521846
0.536216
0.538104
0.615109
0.662247
0.704434
0.64951
0.70072
0.71998
0.86834
0.796243
0.892144
0.880099
0.959329
1.03545
1.1202
1.11687
1.15019
1.18916
1.26377
1.25112
1.27528
1.27993
1.31008
1.31741
1.33847
1.32772
1.33967
1.33572
1.3257
1.3339
1.32445
1.32384
0.000957028
0.000863994
0.00101
0.00067133
0.000949114
0.000657298
0.000566723
0.000789161
0.000642839
0.00132584
0.000385694
0.000931536
0.000295436
0.00132506
0.00132774
0.00132597
0.00132651
0.0013272
0.00132426
0.000438971
0.000371652
0.00100968
0.000655711
0.000938422
0.000788581
0.00100179
0.000699002