/*--------------------------------*- C++ -*----------------------------------*\
  =========                 |
  \\      /  F ield         | OpenFOAM: The Open Source CFD Toolbox
   \\    /   O peration     | Website:  https://openfoam.org
    \\  /    A nd           | Version:  8
     \\/     M anipulation  |
\*---------------------------------------------------------------------------*/
FoamFile
{
    version     2.0;
    format      ascii;
    class       volScalarField;
    location    "13380";
    object      Hclip;
}
// * * * * * * * * * * * * * * * * * * * * * * * * * * * * * * * * * * * * * //

dimensions      [0 1 0 0 0 0 0];

internalField   nonuniform List<scalar> 
526318
(
0.737568
0.697678
0.770516
0.680587
0.753717
0.708006
0.722959
0.640582
0.702333
0.580653
0.559804
0.683596
0.626262
0.666498
0.62708
0.653174
0.625668
0.825672
0.733855
0.778845
0.773655
0.728601
0.490834
0.732496
0.613224
0.480146
0.750009
0.754334
0.750725
0.766838
0.792413
0.839207
0.82481
0.70649
0.703667
0.674573
0.678599
0.770822
0.697534
0.644791
0.706276
0.67905
0.344335
0.391791
0.29613
0.350665
0.322758
0.446286
0.627963
0.525158
0.613762
0.608639
0.568956
0.521358
0.0219551
0.265704
0.268276
0.0614304
0.782454
0.794277
0.814045
0.76774
0.713974
0.840279
0.833769
0.794341
0.781207
0.782829
0.682111
0.675644
0.79214
0.569451
0.624394
0.514584
0.473107
0.460207
0.561702
0.552799
0.468135
0.513327
0.588326
0.594102
0.550497
0.498491
0.526616
0.600163
0.594344
0.578479
0.52182
0.599525
0.498967
0.453119
0.446994
0.374441
0.373152
0.377523
0.373564
0.373175
0.370017
0.369857
0.001
0.001
0.001
0.001
0.001
0.001
0.27041
0.101234
0.408618
0.36726
0.409198
0.532308
0.756242
0.641371
0.751905
0.764773
0.829796
0.80546
0.848814
0.366789
0.367283
0.369679
0.372027
0.327117
0.367769
0.279748
0.319694
0.230354
0.281251
0.230089
0.231622
0.222305
0.195141
0.187352
0.214399
0.157896
0.211604
0.161899
0.17967
0.125497
0.134262
0.151144
0.179253
0.162974
0.123264
0.124328
0.136643
0.129994
0.121232
0.128558
0.142841
0.130173
0.134574
0.133205
0.132837
0.105005
0.127356
0.13613
0.103721
0.0538781
0.129768
0.0846593
0.140551
0.636726
0.729534
0.675451
0.657699
0.462513
0.530818
0.463111
0.464523
0.462032
0.46476
0.487278
0.460196
0.39676
0.37097
0.335459
0.274076
0.3347
0.376477
0.37512
0.376034
0.263403
0.313581
0.202495
0.213006
0.221153
0.212798
0.212678
0.216375
0.204396
0.2055
0.199061
0.192274
0.172495
0.193555
0.191216
0.160173
0.143256
0.170992
0.153314
0.145972
0.161097
0.152539
0.15711
0.116358
0.139943
0.168533
0.169131
0.618056
0.63519
0.667378
0.638233
0.62279
0.617563
0.621405
0.496164
0.537487
0.286028
0.260563
0.262634
0.384506
0.523847
0.389792
0.42573
0.437431
0.382904
0.354058
0.001
0.001
0.001
0.203698
0.001
0.001
0.001
0.001
0.001
0.001
0.833587
0.812563
0.863057
0.853887
0.824665
0.813328
0.721412
0.809631
0.653237
0.596267
0.598447
0.595453
0.598263
0.596438
0.582961
0.585253
0.50093
0.566282
0.381979
0.438795
0.367276
0.380995
0.00100536
0.001
0.001
0.00100202
0.001
0.001
0.001
0.00113585
0.380138
0.190012
0.43084
0.425964
0.539612
0.645274
0.761213
0.768771
0.801918
0.779558
0.847562
0.876627
0.34656
0.347427
0.307266
0.277705
0.174546
0.212392
0.140368
0.149017
0.139994
0.131596
0.122895
0.131045
0.057878
0.078421
0.108664
0.155186
0.210537
0.17608
0.143414
0.135367
0.0658009
0.0589589
0.103475
0.166801
0.0813251
0.124286
0.124924
0.0902638
0.0850424
0.0563948
0.0561089
0.0168047
0.0158219
0.0209199
0.00636238
0.124232
0.169381
0.132004
0.181354
0.531751
0.490811
0.391232
0.477952
0.401807
0.448181
0.461776
0.45375
0.464511
0.461717
0.373782
0.288524
0.21725
0.20072
0.275118
0.215027
0.202644
0.315364
0.204811
0.254185
0.191642
0.195844
0.205236
0.193888
0.206306
0.201665
0.199833
0.20116
0.202842
0.201997
0.212061
0.208119
0.21838
0.218893
0.219728
0.198605
0.214437
0.194234
0.166796
0.172779
0.19727
0.226686
0.218132
0.193483
0.173801
0.209587
0.246417
0.242839
0.255595
0.212987
0.25324
0.266778
0.30087
0.249876
0.265004
0.285991
0.320402
0.442986
0.520849
0.437754
0.47064
0.548653
0.614726
0.51475
0.385172
0.497063
0.395865
0.418479
0.152412
0.0955243
0.128932
0.115545
0.23683
0.355271
0.281539
0.355662
0.351729
0.376932
0.352631
0.001
0.001
0.001
0.001
0.00868414
0.001
0.001
0.00100998
0.001
0.00100962
0.001
0.00100889
0.001
0.001
0.001
0.001
0.859262
0.846871
0.884564
0.871917
0.852897
0.821939
0.749302
0.661672
0.594955
0.609702
0.586328
0.586015
0.565164
0.567076
0.544157
0.545704
0.495102
0.536844
0.460799
0.403725
0.350026
0.306606
0.001
0.00107336
0.00107334
0.001
0.001
0.001
0.001
0.00107334
0.00107337
0.00107336
0.00100999
0.00100984
0.001
0.00100942
0.001
0.001
0.001
0.001
0.001
0.001
0.001
0.001
0.001
0.001
0.0828636
0.001
0.29115
0.45437
0.464675
0.559619
0.779196
0.670263
0.788745
0.792161
0.802946
0.834404
0.864438
0.882671
0.266078
0.264387
0.219368
0.245575
0.182633
0.1489
0.140825
0.139907
0.133636
0.137395
0.0949119
0.0863713
0.0325788
0.0485895
0.104564
0.0772512
0.0482045
0.0990223
0.0970697
0.0952637
0.0162528
0.00603662
0.0316121
0.0419031
0.0445556
0.001
0.00342628
0.00100024
0.00408192
0.001
0.00100034
0.289779
0.263101
0.264747
0.261917
0.285176
0.391496
0.351545
0.319018
0.215624
0.257374
0.242741
0.2444
0.141378
0.0686751
0.258421
0.371275
0.25833
0.268056
0.239771
0.322038
0.310792
0.374221
0.409861
0.337659
0.316747
0.348112
0.228779
0.1965
0.196214
0.204873
0.118149
0.162598
0.0933502
0.0456489
0.0295286
0.146965
0.145448
0.195795
0.190593
0.194346
0.191749
0.192578
0.199799
0.194808
0.207735
0.201057
0.217285
0.210873
0.214123
0.216695
0.245477
0.225279
0.256629
0.258232
0.208411
0.195365
0.255687
0.237672
0.225293
0.243949
0.225777
0.21365
0.262014
0.244161
0.344467
0.345954
0.304223
0.342031
0.352936
0.313399
0.414579
0.385243
0.447401
0.469701
0.494896
0.413698
0.416147
0.416059
0.377482
0.360132
0.326197
0.420387
0.266984
0.246223
0.294867
0.31752
0.001
0.0437888
0.126146
0.252327
0.284265
0.313392
0.220157
0.186686
0.145252
0.0942842
0.001
0.001
0.001
0.001
0.001
0.001
0.001
0.001
0.00100979
0.001
0.001
0.001
0.001
0.001
0.001
0.001
0.001
0.001
0.001
0.001
0.001
0.00101
0.001
0.001
0.001
0.001
0.00118266
0.001
0.00107395
0.001
0.00118245
0.00118245
0.001
0.001
0.001
0.001
0.001
0.001
0.001
0.001
0.00100959
0.001
0.00100965
0.001
0.001
0.001
0.850983
0.864136
0.884109
0.871477
0.852833
0.776301
0.596193
0.684291
0.567312
0.566437
0.545044
0.546301
0.539054
0.535899
0.53261
0.531298
0.47522
0.446332
0.348126
0.390382
0.245236
0.286779
0.001
0.001
0.001
0.001
0.001
0.001
0.001
0.001
0.00101
0.001
0.001
0.001
0.001
0.001
0.001
0.001
0.001
0.00100737
0.001
0.001
0.001
0.001
0.001
0.001
0.001
0.001
0.00101
0.001
0.001
0.001
0.001
0.001
0.001
0.001
0.266546
0.096673
0.474501
0.434811
0.500424
0.606883
0.709106
0.792495
0.80584
0.788384
0.830104
0.864296
0.848968
0.845958
0.00116075
0.001
0.001
0.001
0.001
0.001
0.001
0.001
0.001
0.001
0.001
0.001
0.001
0.001
0.001
0.00101
0.001
0.244632
0.244799
0.247515
0.210709
0.127842
0.167579
0.0921784
0.0835277
0.0477426
0.0397808
0.001
0.001
0.0274158
0.0255972
0.001
0.0187063
0.0153627
0.0671501
0.0519733
0.0495418
0.001
0.001
0.001
0.001
0.001
0.001
0.001
0.001
0.001
0.001
0.001
0.001
0.488273
0.451338
0.494443
0.501249
0.450049
0.411141
0.574405
0.601074
0.6626
0.667666
0.222995
0.263111
0.312525
0.399375
0.219738
0.165522
0.200558
0.198042
0.0409747
0.0877951
0.14587
0.0271959
0.240776
0.239459
0.245318
0.237834
0.26199
0.243181
0.25312
0.27482
0.148347
0.137839
0.042618
0.135872
0.129016
0.0736287
0.0324151
0.0424749
0.001
0.0114822
0.001
0.0808042
0.139319
0.0746582
0.140926
0.190606
0.196816
0.192937
0.194619
0.202281
0.218447
0.210641
0.223793
0.222689
0.249728
0.237633
0.258806
0.260738
0.25923
0.258121
0.267418
0.257876
0.301206
0.274161
0.23832
0.236826
0.30904
0.270383
0.28252
0.321347
0.360367
0.364897
0.36461
0.367761
0.395144
0.453262
0.509247
0.532944
0.540579
0.513384
0.657157
0.600579
0.724734
0.76679
0.75258
0.792718
0.848678
0.715284
0.798142
0.823033
0.897507
0.94647
0.97524
0.995738
1.0257
0.969123
1.02656
0.98372
1.0607
1.06126
1.10881
1.07824
1.13853
1.167
1.15865
1.10603
1.1749
1.19653
1.16319
1.15988
1.22499
1.20207
1.23503
1.17367
1.17424
1.2372
1.20652
1.16092
1.16112
1.19211
1.22216
0.217256
0.18
0.352571
0.348737
0.317017
0.311548
0.315846
0.0782248
0.213597
0.001
0.001
0.043084
0.0298795
0.001
0.001
0.001
0.143257
0.0495821
0.0527406
0.001
0.001
0.001
0.001
0.001
0.00101
0.001
0.001
0.001
0.001
0.00101
0.001
0.001
0.001
0.001
0.00166848
0.001
0.001
0.001
0.001
0.001
0.001
0.001
0.001
0.0013426
0.001
0.001
0.001
0.001
0.001
0.001
0.001
0.001
0.001
0.00100829
0.001
0.001
0.001
0.00100928
0.00100997
0.001
0.001
0.001
0.001
0.001
0.001
0.00101
0.001
0.001
0.00102624
0.00105717
0.001
0.00102615
0.001
0.00101
0.00101
0.001
0.001
0.001
0.001
0.001
0.001
0.001
0.001
0.0010078
0.001
0.001
0.001
0.001
0.001
0.001
0.001
0.001
0.00101
0.001
0.001
0.841239
0.827945
0.801428
0.801007
0.715684
0.790557
0.611379
0.547652
0.538115
0.537797
0.539598
0.535558
0.476679
0.480344
0.325819
0.287401
0.246203
0.418804
0.419213
0.367347
0.370225
0.368821
0.001
0.001
0.00108684
0.00108604
0.001
0.001
0.001
0.001
0.00108525
0.001
0.001
0.00100893
0.001
0.001
0.001
0.001
0.001
0.001
0.001
0.001
0.001
0.001
0.00138266
0.0013828
0.001
0.001
0.001
0.001
0.0997329
0.001
0.264129
0.431541
0.46353
0.492107
0.572359
0.689693
0.756992
0.728688
0.778615
0.707267
0.758357
0.803207
0.756891
0.755186
0.00106251
0.001
0.00100999
0.001
0.001
0.00119406
0.001
0.001
0.00119406
0.001
0.001
0.001
0.001
0.001
0.001
0.001
0.001
0.001
0.00101
0.001
0.001
0.001
0.001
0.001
0.00205278
0.00101116
0.216144
0.219089
0.141225
0.160134
0.0329347
0.0569147
0.001
0.001
0.001
0.00121244
0.001
0.001
0.001
0.001
0.001
0.001
0.0358936
0.00129015
0.0404137
0.0392225
0.001
0.001
0.001
0.001
0.001
0.001
0.001
0.001
0.001
0.001
0.00121303
0.001
0.708132
0.704396
0.534574
0.452546
0.44044
0.427049
0.704755
0.616507
0.861209
0.938057
0.834752
0.761234
0.953091
0.932318
1.0017
1.04756
1.07708
1.079
1.1045
1.07813
1.13403
1.1592
1.1554
1.15579
1.1739
1.16146
1.1605
1.20543
1.14991
1.14498
0.27133
0.193497
0.335706
0.416489
0.195666
0.138456
0.192151
0.199248
0.0259162
0.0845317
0.001
0.0798903
0.001
0.242658
0.178069
0.24015
0.239884
0.240899
0.135473
0.0415773
0.001
0.001
0.001
0.00111024
0.001
0.001
0.001
0.001
0.00460967
0.001
0.001
0.0210509
0.0862643
0.0383175
0.140973
0.0864364
0.134728
0.189665
0.219454
0.195482
0.230847
0.232336
0.243921
0.23471
0.263189
0.276133
0.274333
0.292196
0.29194
0.296385
0.332108
0.343265
0.333894
0.330399
0.33224
0.323713
0.343522
0.360897
0.404823
0.400206
0.365126
0.40097
0.394554
0.421653
0.453186
0.521886
0.547797
0.544894
0.559648
0.628396
0.715556
0.783694
0.797043
0.927876
0.801393
0.850132
1.00242
1.02732
1.02581
1.06034
1.11068
1.15708
1.17234
1.17335
1.20302
1.23026
1.25322
1.25507
1.25381
1.25256
1.25308
1.23608
1.17181
1.23594
1.20425
1.15891
1.1568
1.19159
1.22152
1.23255
1.15975
1.22226
1.18003
0.00847841
0.001
0.0745211
0.149724
0.0351201
0.101329
0.243992
0.175491
0.200376
0.0391298
0.001
0.001
0.001
0.00741894
0.001
0.001
0.001
0.001
0.001
0.00118091
0.00118318
0.001
0.001
0.001
0.00100999
0.001
0.001
0.001
0.001
0.00146572
0.00146509
0.001
0.001
0.001
0.00166833
0.001
0.001
0.001
0.001
0.001
0.00101
0.001
0.0013421
0.001
0.00101
0.001
0.001
0.001
0.001
0.001
0.001
0.00105205
0.001
0.001
0.001
0.001
0.001
0.001
0.001
0.001
0.001
0.001
0.001
0.001
0.001
0.001
0.00103659
0.001
0.001
0.001
0.001
0.001
0.001
0.001
0.00101
0.001
0.00100962
0.001
0.001
0.001
0.001
0.001
0.001
0.001
0.001
0.751533
0.74842
0.733217
0.738636
0.667063
0.729703
0.539291
0.599868
0.500036
0.495335
0.440482
0.425668
0.368319
0.369041
0.283386
0.181856
0.155965
0.325134
0.368348
0.369066
0.370006
0.370574
0.00108594
0.001
0.00108682
0.001
0.001
0.001
0.001
0.001
0.00100548
0.001
0.001
0.001
0.001
0.001
0.001
0.00100999
0.001
0.001
0.001
0.001
0.001
0.001
0.001
0.00101
0.001
0.001
0.001
0.001
0.165427
0.001
0.302447
0.436712
0.408362
0.520515
0.690169
0.586096
0.663589
0.670215
0.655647
0.691163
0.745828
0.740772
0.74665
0.716183
0.001
0.001
0.001
0.001
0.001
0.001
0.001
0.001
0.001
0.001
0.001
0.001
0.001
0.001
0.001
0.001
0.001
0.001
0.001
0.00100999
0.001
0.001
0.00192769
0.001
0.00101
0.001
0.001
0.001
0.001
0.001
0.001
0.0904123
0.0922025
0.0597393
0.0364633
0.001
0.0147732
0.001
0.001
0.138218
0.0797525
0.0584891
0.001
0.001
0.001
0.00100989
0.00125557
0.00125557
0.001
0.001
0.0123367
0.001
0.001
0.001
0.001
0.001
0.001
0.001
0.001
0.00100971
0.001
0.001
0.001
0.001
0.001
0.001
1.28345
1.29202
1.32027
1.30036
1.33925
1.32382
1.34713
1.34226
1.39936
1.38748
1.34877
1.39948
1.36103
1.42028
1.25068
1.20092
1.22302
1.27041
1.25269
1.2233
1.22631
1.27863
1.28563
1.26267
1.24144
1.29039
1.27648
1.28599
1.30589
1.16078
1.15942
1.15912
1.15808
1.17631
1.20014
0.753279
0.695612
0.597769
0.499904
0.410374
0.492645
0.686102
0.671736
0.906384
0.933789
0.820459
0.900692
0.938907
0.988667
1.03862
1.07779
1.07817
1.07618
1.07656
1.10517
1.1187
1.1432
1.13311
1.13157
1.13913
1.14613
1.12703
1.12259
0.320929
0.245954
0.187219
0.18474
0.238465
0.412121
0.388922
0.122118
0.179817
0.0477715
0.001
1.26686
1.28919
1.30279
1.30925
1.31713
1.32597
1.32987
1.35553
1.34285
1.35929
1.36384
1.40662
1.43302
1.45351
1.45395
1.45781
1.47211
1.49785
0.001
0.001
0.00145821
0.167166
0.0573042
0.229553
0.127999
0.0458309
0.00132456
0.001
0.0013246
0.00132455
0.001
0.001
0.001
0.001
0.001
0.001
0.0124873
0.001
0.001
0.0362422
0.0362524
0.0360778
0.0927993
0.0472595
0.174175
0.122431
0.20581
0.170601
0.207256
0.228621
0.259271
0.284027
0.305604
0.303786
0.317932
0.302933
0.364013
0.344703
0.347235
0.340401
0.392688
0.369146
0.43978
0.396763
0.378784
0.423115
0.465584
0.460623
0.47924
0.51981
0.520951
0.463106
0.571891
0.599941
0.572737
0.562241
0.644902
0.727354
0.798084
0.871303
0.818119
0.831543
0.961979
1.02103
1.06397
1.04256
1.10999
1.13901
1.18166
1.19884
1.1919
1.21096
1.26524
1.24568
1.25745
1.26441
1.25589
1.25484
1.25511
1.25497
1.25575
1.25479
1.25614
0.00101925
0.001
0.00379223
0.001
0.001
0.001
0.001
0.0471557
0.001
0.001
0.001
0.001
0.001
0.001
0.00145816
0.001
0.001
0.001
0.001
0.00118479
0.001
0.001
0.001
0.001
0.001
0.001
0.00100999
0.001
0.00112207
0.00112205
0.00146406
0.001
0.00101166
0.001
0.001
0.001
0.001
0.001
0.001
0.001
0.00100984
0.001
0.00112198
0.001
0.001
0.001
0.00101
0.001
0.001
0.001
0.001
0.0023897
0.001
0.001
0.001
0.001
0.001
0.001
0.00100993
0.001
0.001
0.001
0.001
0.001
0.00102581
0.001
0.001
0.001
0.001
0.00102635
0.001
0.001
0.001
0.001
0.001
0.001
0.001
0.001
0.00101
0.001
0.001
0.001
0.001
0.001
0.001
0.001
0.001
0.001
0.001
0.00207189
0.001
0.001
0.001
0.001
0.00207184
1.44484
1.40736
1.39437
1.48604
1.52535
1.51769
0.732188
0.730198
0.720365
0.715499
0.642493
0.701229
0.533109
0.460093
0.386962
0.398613
0.369362
0.368001
0.368592
0.368303
0.246269
0.164076
0.252467
0.332872
0.333864
0.001
0.001
0.001
0.001
0.001
0.001
0.001
0.001
0.001
0.001
0.00100943
0.001
0.001
0.001
0.001
0.001
0.00100998
0.001
0.001
0.001
0.001
0.001
0.001
0.001
0.001
0.001
0.001
0.13814
0.279197
0.39227
0.388631
0.710016
0.631039
0.642332
0.425257
0.519745
0.603726
0.662386
0.663648
0.655629
0.67487
0.708441
0.699526
0.001
0.00115614
0.001
0.001
0.001
0.001
0.00100904
0.001
0.001
0.001
0.001
0.001
0.001
0.001
0.001
0.001
0.001
0.00100504
0.001
0.001
0.001
0.001
0.001
0.001
0.001
0.001
0.001
0.001
0.001
0.001
0.00101
0.001
0.001
0.001
0.001
0.001
0.001
0.0921765
0.128401
0.11759
0.0572725
0.0573058
0.0292088
0.0518099
0.001
0.001
0.001
0.001
0.0641455
0.0518807
0.001
0.001
0.001
0.001
0.001
0.001
0.001
0.001
0.001
0.001
0.001
0.001
0.001
0.001
0.001
0.001
0.001
0.001
0.001
0.001
0.001
0.001
0.001
0.001
1.28153
1.29504
1.31766
1.34188
1.3558
1.3522
1.38513
1.35578
1.21631
1.21292
1.19986
1.2217
1.2549
1.21617
1.26253
1.23541
1.14756
1.13738
1.13288
1.16576
1.19481
1.16664
0.755433
0.679315
0.574031
0.66993
0.516951
0.421643
0.682358
0.676799
0.915272
0.917648
0.933125
0.833457
0.907052
1.01983
0.96615
0.909882
0.950849
1.0535
1.06649
1.05756
1.06519
1.07382
1.09786
1.12582
1.11678
1.12528
1.12435
1.1206
1.12289
1.1255
1.12211
0.164108
0.173162
0.305695
0.391918
0.170806
0.241913
0.402822
0.414609
0.152662
0.102567
0.00906112
0.0767685
1.29658
1.25595
1.2762
1.31935
1.32172
1.32288
1.32963
1.3529
1.3749
1.38656
1.38296
1.38911
1.41473
1.45628
1.43537
1.4521
1.47334
1.51576
1.49859
1.32528
1.33848
1.35289
1.52452
1.52978
1.52714
0.00145804
0.00145801
0.00145807
0.001
0.001
0.001
0.001
0.001
0.001
0.001
0.001
0.001
0.001
0.00101
0.001
0.00100987
0.001
0.001
0.001
0.001
0.00187134
0.001
0.0400897
0.001
0.112118
0.133859
0.073726
0.111627
0.169564
0.140651
0.26418
0.214391
0.279606
0.289287
0.304619
0.291816
0.33378
0.38638
0.415273
0.419979
0.424288
0.412169
0.434905
0.419876
0.46638
0.473764
0.496074
0.495024
0.470542
0.474544
0.591348
0.639935
0.537317
0.601916
0.64829
0.614962
0.709536
0.758939
0.853752
0.895271
0.8746
0.963381
1.01762
1.1178
1.09996
1.16067
1.13682
1.2324
1.23773
1.22979
1.26001
1.28526
1.28361
1.33917
1.30341
1.33251
1.29466
1.29399
1.32931
1.26031
1.29844
1.26166
0.001
0.001
0.001
0.001
0.001
0.001
0.001
0.001
0.00101
0.001
0.001
0.001
0.001
0.001
0.001
0.001
0.001
0.001
0.001
0.001
0.001
0.001
0.001
0.001
0.001
0.00103039
0.001
0.001
0.00112204
0.00112204
0.001
0.001
0.001
0.001
0.00101
0.001
0.0010004
0.001
0.001
0.001
0.001
0.001
0.00219711
0.001
0.001
0.001
0.001
0.001
0.00101
0.001
0.001
0.00221471
0.001
0.001
0.001
0.00100982
0.00128924
0.001
0.00100983
0.001
0.001
0.001
0.00101
0.001
0.00102589
0.00102602
0.001
0.001
0.00102626
0.00102612
0.001
0.001
0.001
0.001
0.00157628
0.001
0.00157615
0.001
0.001
0.001
0.001
0.00100984
0.00101
0.00100994
0.001
0.001
0.001
0.001
0.001
0.001
0.001
0.001
0.001
0.001
0.00128918
0.001
0.00100958
0.00100997
0.001
0.001
0.001
0.001
0.00101
1.39795
1.41677
1.41664
1.42026
1.45375
1.55849
1.54009
1.54932
1.56343
1.50515
0.637701
0.629457
0.562683
0.564602
0.525901
0.547656
0.460173
0.420002
0.400947
0.369521
0.343456
0.342666
0.251928
0.265471
0.131234
0.176528
0.174709
0.001
0.001
0.001
0.00101
0.001
0.001
0.001
0.00102832
0.107692
0.001
0.001
0.001
0.001
0.001
0.001
0.001
0.00101
0.001
0.001
0.00102164
0.001
0.001
0.001
0.001
0.001
0.5033
0.508714
0.547772
0.251012
0.392677
0.386987
0.428728
0.552573
0.619099
0.583535
0.487389
0.570051
0.600782
0.60466
0.521489
0.552169
0.001
0.001
0.00115617
0.00101
0.001
0.001
0.00101
0.00117568
0.001
0.001
0.001
0.001
0.001
0.001
0.001
0.00102582
0.001
0.00102594
0.00102584
0.00101
0.001
0.001
0.001
0.001
0.001
0.00100577
0.001
0.001
0.001
0.001
0.00108296
0.001
0.00100563
0.001
0.001
0.001
0.001
0.001
0.001
0.001
0.001
0.001
0.001
0.001
0.00102588
0.111479
0.12502
0.131737
0.001
0.0203813
0.001
0.001
0.001
0.001
0.00148185
0.001
0.001
0.00148175
0.001
0.001
0.001
0.001
0.001
0.001
0.001
0.00103062
0.001
0.001
0.001
0.001
0.001
0.001
0.001
0.00119094
0.001
0.00103057
0.001
0.001
0.001
0.001
0.00101
0.001
0.001
0.00119092
1.2869
1.24378
1.30996
1.27747
1.29193
1.31589
1.33013
1.36888
1.36085
1.39298
1.37895
1.33616
1.38804
1.37022
1.17823
1.17941
1.16999
1.18488
1.19833
1.21511
1.21198
1.21677
1.12222
1.12362
1.14661
1.12898
1.15794
1.16639
0.760299
0.687006
0.603603
0.682633
0.473631
0.569161
0.68445
0.686757
0.91089
0.908747
0.913817
0.841003
0.995435
1.04408
0.95627
0.909811
1.05158
1.04743
1.06909
1.04898
1.08783
1.11577
1.12478
1.12281
1.12414
1.12237
1.12249
1.12102
1.12269
1.11784
0.174313
0.152842
0.323466
0.400735
0.295713
0.221087
0.453725
0.404103
0.133648
0.157184
0.12524
0.0508088
1.29746
1.33242
1.31582
1.33964
1.3606
1.34923
1.38365
1.39561
1.37256
1.3865
1.37512
1.38337
1.39002
1.41004
1.43575
1.45384
1.45354
1.50587
1.48506
1.53539
1.54455
1.40925
1.42122
1.54016
1.5481
0.001
0.001
0.001
0.001
0.001
0.001
0.001
0.001
0.00101
0.001
0.001
0.001
0.001
0.001
0.001
0.001
0.00187129
0.001
0.001
0.001
0.001
0.001
0.0294823
0.001
0.12758
0.122311
0.096027
0.0472078
0.169182
0.209463
0.260739
0.253904
0.276706
0.275204
0.385821
0.329547
0.43398
0.43168
0.451035
0.460968
0.431433
0.489543
0.532756
0.504195
0.49059
0.519378
0.567497
0.550277
0.532797
0.57668
0.663703
0.664628
0.657811
0.674992
0.807313
0.720428
0.892211
0.919197
0.920047
0.985087
1.06269
1.13447
1.14719
1.15514
1.20596
1.25238
1.28805
1.2877
1.32351
1.29993
1.35256
1.36505
1.37029
1.36779
1.36912
1.36753
1.33396
1.36844
1.33488
0.001
0.001
0.00705935
0.00102504
0.001
0.001
0.001
0.001
0.0014015
0.001
0.00101
0.00137977
0.001
0.00141462
0.0013828
0.0014169
0.00143613
0.001
0.00143103
0.00692428
0.001
0.001
0.001
0.0010305
0.001
0.00103037
0.00103038
0.001
0.001
0.00100217
0.001
0.001
0.001
0.001
0.00101
0.00103622
0.001
0.001
0.00100986
0.001
0.001
0.001
0.00186639
0.001
0.001
0.001
0.001
0.001
0.001
0.001
0.001
0.001
0.00100941
0.001
0.001
0.001
0.00100992
0.001
0.001
0.001
0.00101
0.001
0.001
0.001
0.001
0.001
0.001
0.0010008
0.001
0.001
0.001
0.00100949
0.001
0.001
0.001
0.001
0.001
0.001
0.001
0.001
0.001
0.001
0.00101
0.001
0.001
0.001
0.001
0.001
0.001
0.001
0.001
0.001
0.001
0.001
0.001
0.001
0.001
0.001
0.001
0.001
0.001
0.001
0.001
0.001
0.001
0.001
0.001
0.001
0.001
0.001
0.001
0.001
0.00106394
0.001
0.001
0.001
0.001
1.59212
1.58141
1.59672
1.59696
1.60092
1.60201
1.42478
1.4534
1.49768
1.47318
1.55982
1.57465
1.57519
1.42519
1.38828
0.500172
0.505814
0.50376
0.492656
0.500231
0.434892
0.476108
0.266187
0.319483
0.182153
0.184394
0.134789
0.130993
0.131961
0.001
0.001
0.001
0.001
0.00102342
0.133381
0.001
0.001
0.001
0.001
0.001
0.001
0.001
0.001
0.001
0.001
0.001
0.00101847
0.0010176
0.001
0.00101697
0.001
0.001
0.001
0.502773
0.502606
0.506214
0.506907
0.504538
0.216731
0.334672
0.277482
0.398303
0.456612
0.483462
0.413681
0.498109
0.448109
0.448367
0.433379
0.001
0.00110293
0.001
0.001
0.001
0.001
0.001
0.00101461
0.001
0.001
0.00101257
0.001
0.001
0.001
0.00102026
0.001
0.001
0.001
0.001
0.001
0.001
0.001
0.001
0.001
0.001
0.00100955
0.001
0.001
0.001
0.001
0.001
0.001
0.001
0.001
0.001
0.001
0.00108341
0.001
0.00108078
0.001
0.001
0.001
0.001
0.001
0.00100037
0.001
0.001
0.001
0.001
0.001
0.00101
0.001
0.001
0.001
0.001
0.001
0.001
0.111582
0.0391062
0.0261405
0.001
0.001
0.001
0.001
0.001
0.001
0.001
0.00100956
0.001
0.001
0.001
0.001
0.001
0.001
0.001
0.001
0.001
0.001
0.001
0.001
0.001
0.001
0.001
0.001
0.001
0.001
0.001
0.001
0.001
0.001
0.00183009
0.00183273
0.001
0.001
0.001
0.001
0.00100972
0.001
1.25893
1.22862
1.27276
1.27373
1.25345
1.30268
1.2862
1.28875
1.31639
1.32281
1.40324
1.36179
1.31769
1.16806
1.16732
1.19763
1.18204
1.2148
1.20868
1.23555
1.2177
1.12028
1.12764
1.15222
1.13613
1.15078
1.16128
0.80406
0.723573
0.642665
0.679388
0.623786
0.534369
0.716399
0.679923
0.913569
0.915244
0.872791
0.920688
1.00424
1.05537
0.914261
0.963639
1.05291
1.05659
1.07843
1.05627
1.10105
1.12028
1.11436
1.12657
1.11742
1.1228
1.11583
1.11941
1.11884
1.11741
0.163441
0.214837
0.4059
0.377354
0.298433
0.381745
0.404176
0.477251
0.149998
0.147137
0.134471
0.0587372
0.001
0.001
0.0232314
1.3644
1.37181
1.39685
1.3879
1.41004
1.42348
1.42639
1.42409
1.45856
1.43917
1.45112
1.41513
1.45088
1.45925
1.48158
1.50154
1.51694
1.51391
1.56743
1.56981
1.59448
1.56246
1.48013
1.48561
1.60942
1.60496
0.001
0.001
0.00101
0.001
0.001
0.00124004
0.00123994
0.001
0.001
0.001
0.001
0.00206023
0.00104859
0.001
0.001
0.001
0.00100232
0.001
0.001
0.001
0.001
0.001
0.001
0.001
0.001
0.0700053
0.153923
0.0240253
0.250813
0.179285
0.258811
0.255159
0.347351
0.289142
0.425203
0.443627
0.444272
0.446341
0.570684
0.528087
0.496886
0.55432
0.580357
0.573552
0.564995
0.559519
0.574767
0.571765
0.657712
0.69591
0.735659
0.693185
0.735156
0.765571
0.903706
0.83796
0.932182
0.916952
0.999823
1.07204
1.16243
1.15427
1.19195
1.22776
1.30346
1.2925
1.31505
1.31977
1.34996
1.35898
1.381
1.37196
1.38651
1.38026
1.36904
1.38276
1.36721
1.36711
0.001
0.001
0.00101
0.001
0.001
0.001
0.001
0.001
0.001
0.00129413
0.001
0.001
0.001
0.00133974
0.00138857
0.0013906
0.00142004
0.00144019
0.0014282
0.001
0.001
0.00100968
0.001
0.001
0.001
0.00100179
0.001
0.001
0.001
0.001
0.001
0.00101
0.001
0.001
0.00100863
0.00103621
0.001
0.001
0.001
0.00364348
0.001
0.001
0.001
0.00100989
0.001
0.001
0.001
0.00100983
0.001
0.001
0.00100647
0.001
0.00100976
0.001
0.001
0.001
0.001
0.001
0.00362056
0.001
0.001
0.001
0.001
0.001
0.00124194
0.00124185
0.00124187
0.001
0.001
0.001
0.001
0.001
0.001
0.001
0.001
0.001
0.001
0.001
0.001
0.001
0.001
0.001
0.001
0.001
0.001
0.001
0.001
0.001
0.001
0.001
0.001
0.001
0.001
0.001
0.001
0.001
0.001
0.001
0.001
0.001
0.001
0.001
0.001
0.001
0.001
0.001
0.00101
0.001
0.00139609
0.001
0.00112592
0.001
0.00112205
0.001
0.001
0.001
1.6108
1.63105
1.64169
1.59906
1.60216
1.59025
1.59278
1.4871
1.49216
1.51807
1.55767
1.52368
1.55952
1.6027
1.44659
1.50085
1.40349
1.41657
1.41944
0.496919
0.496736
0.400501
0.361829
0.46004
0.391124
0.399545
0.268866
0.297718
0.161553
0.134009
0.129332
0.131348
0.108884
0.001
0.001
0.0515821
0.160976
0.001
0.001
0.001
0.001
0.001
0.001
0.001
0.001
0.001
0.001
0.001
0.001
0.001
0.00101
0.001
0.001
0.001
0.001
0.001
0.001
0.460364
0.504492
0.479306
0.456671
0.22284
0.222198
0.246957
0.315014
0.432317
0.434064
0.388401
0.433036
0.432885
0.00100999
0.001
0.001
0.001
0.001
0.001
0.00120394
0.00120402
0.001
0.001
0.00101
0.00100946
0.001
0.001
0.00100846
0.001
0.0010099
0.00388744
0.001
0.001
0.001
0.001
0.001
0.001
0.001
0.00108046
0.001
0.001
0.00107566
0.001
0.001
0.001
0.001
0.001
0.001
0.001
0.001
0.001
0.001
0.001
0.001
0.001
0.001
0.001
0.001
0.001
0.001
0.001
0.001
0.001
0.001
0.00202031
0.001
0.001
0.001
0.001
0.001
0.001
0.001
0.001
0.001
0.001
0.001
0.0274716
0.001
0.001
0.001
0.001
0.001
0.001
0.001
0.001
0.001
0.001
0.001
0.001
0.001
0.001
0.001
0.001
0.001
0.001
0.001
0.001
0.001
0.001
0.001
0.001
0.001
0.001
0.001
0.001
0.001
0.001
0.001
0.001
0.001
0.00124329
0.00101
0.001
0.001
0.001
0.001
0.00100999
0.001
0.001
1.23541
1.26461
1.20239
1.29135
1.26958
1.28964
1.31817
1.29118
1.30197
1.3603
1.31185
1.38832
1.35484
1.42333
1.14837
1.16952
1.1658
1.19276
1.17283
1.20096
1.22831
1.18904
1.11762
1.12803
1.13358
1.13808
1.13913
1.14352
0.857049
0.773755
0.659401
0.67693
0.58075
0.677722
0.68773
0.740046
0.920611
0.916479
0.923301
0.896112
1.00917
1.06096
0.978778
0.927869
1.05851
1.06198
1.06455
1.08499
1.10424
1.10566
1.10802
1.12398
1.11786
1.12066
1.1099
1.11685
1.12047
1.12042
0.235102
0.14973
0.412991
0.411632
0.325113
0.412997
0.410118
0.515425
0.134585
0.146398
0.122155
0.101662
0.0381505
0.135849
1.37893
1.39948
1.41725
1.45222
1.45048
1.46668
1.48168
1.48884
1.49766
1.48536
1.49399
1.51437
1.53127
1.5512
1.54914
1.55967
1.57613
1.60016
1.61375
1.60761
1.61811
1.49688
1.48234
1.64336
1.65891
0.001
0.001
0.001
0.001
0.001
0.001
0.001
0.001
0.001
0.00206015
0.001
0.001
0.001
0.001
0.001
0.00105304
0.00105304
0.001
0.001
0.001
0.001
0.001
0.0131999
0.00481706
0.001
0.0767028
0.0734423
0.167379
0.228114
0.196385
0.276843
0.218092
0.406296
0.340851
0.447347
0.443309
0.45487
0.523731
0.649176
0.656512
0.592526
0.625209
0.654676
0.600541
0.705952
0.63662
0.614159
0.649329
0.785177
0.793623
0.860216
0.909982
0.798898
0.885123
1.03151
0.978813
1.04854
1.01807
1.21252
1.17719
1.24424
1.2592
1.32814
1.34154
1.39953
1.36981
1.41407
1.4015
1.423
1.45389
1.42899
1.46038
1.46692
1.42345
1.40936
1.45627
1.45203
1.42238
0.001
0.001
0.00101
0.001
0.001
0.001
0.001
0.001
0.001
0.00107534
0.001
0.001
0.001
0.001
0.001
0.001
0.001
0.0014455
0.001
0.001
0.00139656
0.00100995
0.001
0.001
0.00123282
0.001
0.001
0.001
0.001
0.001
0.00150296
0.00100984
0.001
0.001
0.001
0.001
0.001
0.00100967
0.001
0.001
0.001
0.001
0.001
0.001
0.001
0.001
0.00101181
0.00101182
0.00101254
0.001
0.001
0.001
0.001
0.00119614
0.001
0.001
0.00119606
0.001
0.001
0.001
0.00100996
0.00139603
0.001
0.00113504
0.001
0.001
0.001
0.001
0.00101
0.001
0.001
0.001
0.001
0.001
0.001
0.001
0.001
0.001
0.001
0.001
0.001
0.001
0.001
0.001
0.001
0.001
0.001
0.001
0.001
0.001
0.001
0.001
0.001
0.001
0.001
0.001
0.001
0.001
0.001
0.001
0.001
0.001
0.001
0.001
0.001
0.001
0.001
0.001
0.001
0.001
0.001
0.001
0.001
0.001
0.001
0.001
0.001
0.00112592
0.001
0.001
0.001
0.00113503
0.001
0.001
1.669
1.64732
1.66724
1.63554
1.61939
1.65333
1.63948
1.62045
1.63927
1.4962
1.52847
1.52801
1.51169
1.59017
1.63849
1.65671
1.5614
1.43317
1.4536
1.4336
1.44801
1.42239
1.47358
1.35495
0.263317
0.360839
0.264333
0.302683
0.304928
0.21247
0.209456
0.215194
0.214989
0.215012
0.18735
0.105582
0.0784368
0.001
0.00351467
0.110213
0.222679
0.001
0.001
0.00101889
0.001
0.001
0.00100999
0.001
0.001
0.00100155
0.001
0.00103958
0.001
0.001
0.001
0.001
0.00104069
0.001
0.00102993
0.001
0.00100507
0.370491
0.292449
0.26797
0.35788
0.219849
0.244921
0.381668
0.31218
0.356286
0.432178
0.430513
0.00110251
0.001
0.001
0.00115067
0.001
0.001
0.00120446
0.00120414
0.001
0.001
0.00100995
0.001
0.001
0.001
0.001
0.001
0.00388457
0.00388517
0.001
0.001
0.00388595
0.001
0.00202034
0.001
0.001
0.001
0.001
0.00350021
0.001
0.00107571
0.00366329
0.001
0.001
0.001
0.001
0.001
0.001
0.001
0.001
0.001
0.001
0.001
0.001
0.00101
0.001
0.001
0.001
0.001
0.001
0.00118376
0.001
0.001
0.001
0.00101
0.001
0.001
0.001
0.001
0.001
0.001
0.001
0.001
0.001
0.001
0.001
0.001
0.001
0.001
0.001
0.001
0.001
0.001
0.001
0.001
0.001
0.001
0.00101
0.00100998
0.001
0.001
0.001
0.001
0.001
0.001
0.001
0.001
0.00161108
0.001
0.001
0.001
0.001
0.001
0.001
0.00161108
0.001
0.001
0.001
0.001
0.001
0.001
0.001
0.001
0.001
0.001
0.0207609
0.001
0.001
0.00101
0.00101
0.001
0.00101
0.001
0.001
0.001
0.001
0.001
0.001
0.001
1.20232
1.25578
1.20384
1.23025
1.23535
1.26128
1.23654
1.27246
1.2893
1.32116
1.32365
1.31991
1.35867
1.32576
1.42653
1.14228
1.14581
1.14501
1.15097
1.15437
1.15381
1.16571
1.17873
1.17592
1.12107
1.12473
1.13506
1.14071
1.14198
0.823391
0.893686
0.699018
0.700168
0.612187
0.717051
0.772371
0.709591
0.930444
0.946265
0.949944
0.93488
1.06181
1.02127
0.990852
1.02829
1.07184
1.06396
1.09807
1.11473