/*--------------------------------*- C++ -*----------------------------------*\
  =========                 |
  \\      /  F ield         | OpenFOAM: The Open Source CFD Toolbox
   \\    /   O peration     | Website:  https://openfoam.org
    \\  /    A nd           | Version:  8
     \\/     M anipulation  |
\*---------------------------------------------------------------------------*/
FoamFile
{
    version     2.0;
    format      ascii;
    class       surfaceScalarField;
    location    "19020";
    object      phi;
}
// * * * * * * * * * * * * * * * * * * * * * * * * * * * * * * * * * * * * * //

dimensions      [0 3 -1 0 0 0 0];

internalField   nonuniform List<scalar> 
788991
(
-0.0227293
-0.0281774
0.0031371
-0.00940676
0.00853027
-0.00873665
0.0400778
-0.0221296
-0.0758952
0.0305528
-0.058406
0.0285576
-0.0450788
-0.0379467
-0.0687622
-0.013689
-0.00903775
-0.00919514
-0.0633675
0.0180917
0.0216112
-0.0032091
-0.0284784
0.0331281
-0.0130066
0.0567709
-0.0281566
0.0340688
-0.00655832
0.0430668
0.0437573
0.0252818
0.013948
0.00990732
0.0555547
0.00955569
0.0140616
-0.0153039
-0.0154332
-0.0071388
-0.000968007
0.0148143
0.0350686
-0.0038628
0.0351429
0.00613507
-0.00356279
0.0513628
-0.00394867
-0.0445081
-0.0457135
0.054194
-0.0326962
0.0419253
0.0247863
0.00888571
0.0151856
0.0137146
0.0394653
0.0362662
-0.0238251
-0.0258761
-0.0333162
-0.0498372
-0.0573454
0.0210885
-0.0391237
-0.0743014
0.0289326
-0.00447527
-0.0797014
0.0427527
-0.000683344
0.0334029
0.0152135
-0.0308256
0.0366491
-0.030962
0.00631008
0.0386925
0.0471229
-0.0541159
0.0360974
-0.0223666
0.00547913
-0.0288841
0.0348325
-0.0414676
-0.029542
-0.0160129
0.0520286
-0.00532323
-0.0637829
-0.047332
0.0122609
0.0657641
-0.00717498
0.0880586
-0.0688948
-0.0198604
0.0719484
-0.017465
-0.096594
-0.0853244
-0.0178112
0.0523337
-0.0220758
0.100783
-0.0886027
0.0313998
0.00589807
-0.0459013
-0.0938738
-0.0870861
-0.0637858
-0.0263131
-0.0906637
-0.0787192
-0.0759282
0.0803545
0.0521301
-0.110945
0.07215
-0.00880433
-0.0668463
-0.0999603
0.0307187
-0.0458449
-0.0507651
0.0743245
0.05521
-0.0076744
-0.0810418
-0.0519483
0.0329945
-0.0486439
0.0284489
0.0411101
0.0100699
0.0334798
0.0279463
0.00180961
0.0354275
0.0473551
-0.00889309
-0.0404672
0.0707625
0.00265136
0.0519472
0.0278179
0.0174001
-0.0334409
0.0112407
-0.00294889
0.0294421
0.00740857
-0.0126894
-0.0316666
-0.0798342
0.0350127
-0.0452452
0.0676936
-0.0217973
-0.0662131
0.028144
-0.0339825
0.0504211
-0.0142077
-0.0513464
0.0256588
-0.0260345
0.0355797
-0.00973966
-0.0379569
-0.0184361
-0.0197877
-0.023144
-0.00581421
-0.027058
-0.0178415
-0.0151274
0.0156737
-0.00150384
-0.0200905
0.0155999
-0.0145827
0.0131588
0.00243633
-0.0143584
-0.0136443
-0.0133413
-0.00912364
0.00802883
-0.00735619
0.0119733
-0.0114378
0.00376028
0.00876958
-0.000315344
0.013821
-0.00920037
-0.00544057
0.0140042
0.00265409
-0.0123882
-0.0175095
0.00234747
0.0219564
-0.0104917
-0.0339562
-0.015843
0.00641228
-0.00774649
0.0517398
0.0564375
0.000283529
0.0448879
0.0462985
0.0814559
-0.00182666
0.0814363
0.0839204
-0.000456424
-0.100412
0.0786312
-0.0149653
-0.105103
0.0467356
-0.0247897
0.102517
-0.0221437
-0.0546911
-0.0802579
-0.0434758
-0.105626
0.0624853
-0.0820328
-0.107063
-0.0427193
0.0484296
-0.046194
-0.0329273
-0.0376366
-0.0846043
0.0295656
-0.0264748
-0.0655544
-0.0252999
-0.0187298
-0.0521525
0.0253913
-0.0136654
-0.0363535
0.0190952
-0.00744483
-0.0312395
0.0186735
-0.000721473
-0.0191198
-0.0172438
0.00472882
-0.0105922
0.0143669
0.00926771
-0.00398778
-0.0136559
0.0149647
-0.00302381
0.0119433
0.0104835
0.0326097
0.0175662
-0.0113928
0.00585971
0.0309015
-0.0196692
-0.0211782
0.0252061
0.0143507
0.0420769
-0.0201659
0.0568549
0.0105354
0.0280208
-0.0670566
0.0131541
-0.0111369
-0.0547115
0.0519071
-0.0409697
-0.0540671
-0.0544193
0.036391
-0.0463189
0.0106512
-0.0171668
0.0459519
-0.0344304
-0.037185
-0.0313309
-0.0463746
-0.0718738
0.0398325
-0.038347
-0.0974702
-0.0553676
-0.000375761
-0.100891
0.0638539
0.00196028
-0.0575004
0.0409211
0.0195917
-0.0242871
-0.0316032
-0.0449838
0.101317
0.0544345
0.0778692
-0.0124715
-0.000432058
-0.0499591
0.0354346
-0.0231165
-0.0125245
-0.0200101
-0.00766621
-0.000593713
-0.0191457
-0.0348071
-0.031922
-0.0155313
-0.0472332
-0.0492884
0.0203285
-0.0607511
-0.0714661
-0.0177463
-0.0549476
-0.0803856
-0.0241974
-0.0207721
-0.080777
-0.0486076
0.00136724
-0.0737879
0.0618915
0.0285609
-0.0648989
0.0782109
0.020889
-0.0564355
0.0685088
0.0196968
-0.0504891
0.0615512
0.10834
-0.0843465
0.0118749
0.0647651
0.0458468
0.0758629
0.0843457
0.0494079
0.0444448
0.0355122
-0.0356601
0.0354576
0.0174074
0.0315342
0.0381226
0.00439804
0.036888
0.0637823
0.000283815
-0.0436268
0.0530614
0.0104951
-0.0354275
0.0263383
0.0177669
0.0278474
0.0143362
-0.00259898
-0.0261588
0.0155279
-0.0407149
0.0480123
0.00724211
-0.0313933
-0.032094
0.0047389
-0.0211049
0.0209583
-0.000373509
-0.0153986
0.0106883
-0.00259794
-0.0142296
-0.00774581
-0.00345936
-0.0129634
0.00685523
-0.0560398
-0.022661
0.0290854
0.0661309
-0.0338503
0.0255486
-0.0795243
-0.0422246
-0.0401174
0.060614
-0.0258573
-0.0235674
-0.0296928
0.0217498
0.035862
-0.0232915
-0.0317051
-0.00611565
-0.00981368
-0.00373781
-0.00946105
-0.00949269
0.00116663
-0.00823248
-0.0091991
0.00387169
-0.0297993
-0.0145974
0.000250741
-0.0554795
-0.0238664
-0.0222086
-0.0411245
-0.0775457
-0.0465499
0.0759289
-0.0312512
0.00407743
0.00137791
-0.0681181
0.0782834
0.0792965
-0.072755
0.101149
0.00853553
-0.0947229
0.0929639
0.00712126
0.100541
0.0759453
-0.00616698
0.0954434
0.0175084
-0.0197441
-0.074026
-0.0468349
-0.0542464
0.0440323
-0.0668146
-0.0867334
0.0278427
-0.0951325
-0.100542
0.0117201
0.0786171
-0.0589115
-0.0240444
-0.0408072
-0.0875273
-0.0191125
-0.0290801
-0.0588591
0.0208996
-0.0184025
-0.0462773
0.0171703
-0.014441
-0.0355338
-0.019775
-0.00445189
-0.0255684
0.0148848
0.00195817
-0.0163394
0.0156859
0.00457019
-0.00913404
0.0149348
0.00843739
-0.00948453
-0.0144878
0.0167348
0.00195317
-0.0165863
0.0174659
0.0334962
-0.0171584
0.0016314
0.0263284
0.013276
0.0204911
0.0491966
0.0281634
0.0159868
0.046523
-0.0188452
0.0613783
0.0220811
-0.0372246
0.0357726
-0.0716746
0.0333002
0.0365629
0.0255667
0.071115
-0.0365649
0.0552333
-0.0384586
0.0193344
0.0317448
0.029682
0.0444538
-0.00912193
-0.0422432
0.0585309
0.0502358
-0.00776479
-0.0534072
0.0178685
0.000535227
0.0502071
0.0640942
0.0673042
-0.0338922
-0.0696036
0.0358509
-0.0607583
-0.00915629
-0.0130744
0.0252381
0.0328745
-0.033246
-0.0401639
-0.0447515
-0.043702
-0.0775401
0.0565867
-0.0364872
-0.101806
0.0703664
-0.00970296
-0.105629
0.0751531
0.00688106
-0.0299605
-0.0375836
0.00852723
-0.0190295
0.0408471
-0.000718165
-0.0305104
0.0591891
0.0107124
0.00889387
-0.0151211
0.0206779
-0.0524996
-0.149355
-0.0104259
0.0779226
-0.0278594
-0.0853061
-0.027732
0.0142098
-0.0596978
0.0262242
-0.0175614
-0.0175656
-0.0165786
-0.0110094
-0.00189938
-0.0196708
-0.0305436
-0.0349149
-0.018114
-0.0516903
-0.0545416
-0.0170653
-0.0531952
-0.0697037
0.0194772
-0.0292638
-0.0742637
-0.0398758
-0.014309
-0.0711956
0.0463654
0.00844025
-0.0630998
-0.0590938
0.00657446
-0.051745
0.0513491
0.00653134
-0.0475945
-0.0451363
0.0043967
-0.0415824
-0.0367181
-7.10464e-07
0
4.32451e-07
0
0
-3.8411e-06
-6.38887e-07
3.37332e-06
1.55034e-07
-9.31856e-07
1.7062e-07
-0.0149904
0.0130544
0
0
0
0.0316948
-0.026082
0.0616391
-0.00255856
0.0583882
0.0924914
0.045019
-0.00437142
0.103047
0.0650746
0.0238653
0.0732707
0.0773467
-0.0230659
0.0504606
0.046634
0.0326658
0.041101
0.0221169
-0.0318739
0.0497764
0.00673471
-0.0348058
0.0488663
0.0069035
0.0310944
0.0465149
0.0144339
-0.0297295
0.0245477
0.0143698
-0.0259964
0.00654823
0.00389867
-0.0145273
0.000275744
-0.0325474
-0.0248498
-0.000161889
-0.0224836
0.0154591
-0.00459291
-0.0163965
-0.00867302
-0.00804273
-0.0143122
0.00590258
-0.00919789
-0.0140089
0.00382007
-0.0106204
-0.0127584
0.000658562
-0.0566223
-0.0252469
0.033103
-0.0599709
-0.0359544
0.0370563
-0.0265836
-0.0298869
-0.0714697
-0.0669157
0.0346202
0.0249962
-0.0471496
-0.0585467
0.0262525
0.0207062
-0.00950005
-0.00890583
0.00344096
-0.0138032
-0.00906796
0.0050831
-0.0195831
-0.0122582
-0.00111731
-0.0104095
-0.0218024
0.0126728
-0.0592361
-0.0327239
0.0273616
-0.0282182
0.0201526
0.0299919
0.0342892
-0.0795763
-0.0353388
0.0397199
-0.0587501
-0.0432333
0.0184648
-0.0521707
-0.0385013
0.0153468
-0.0466286
-0.0681599
-0.0182782
0.00914302
0.0248364
-0.0682247
0.104654
0.0177395
-0.0919885
0.122238
0.111228
-0.094474
0.111285
0.0225758
-0.0936248
0.0899951
0.022827
0.0837192
0.0483694
0.0107473
0.0545731
-0.0130583
-0.00149373
-0.0125907
-0.0604394
-0.0220446
0.00326812
-0.0936563
-0.0556512
-0.0111629
-0.101917
-0.0876616
0.0207165
-0.103415
-0.0709893
-0.00471975
-0.0415718
-0.077515
-0.00360189
-0.0272863
-0.0486808
0.0121909
-0.0181946
-0.0343832
0.0107063
-0.0106875
-0.0305115
0.0118237
-0.00336444
-0.0187325
0.0133497
0.00243166
-0.0137948
0.0125485
0.00596068
-0.0112584
-0.015331
0.0114204
-0.00473493
0.0120463
0.0188996
-0.00328129
0.0173425
0.0141391
0.0287157
-0.0172176
0.0146713
0.0308258
-0.0175921
0.0162485
0.0547639
-0.0244435
0.0180993
0.0381137
0.0250561
0.060875
0.0172116
0.0315146
0.0353522
0.0634149
-0.0294641
0.025397
0.0612224
-0.0288897
0.056855
0.0356527
-0.0230361
0.0627314
0.0344013
0.0257892
0.0787954
0.0451457
0.0331457
0.030911
0.0216598
-0.028688
0.0490337
0.0460976
0.0508471
-0.027219
-0.0522966
0.0558918
-0.00108289
-0.0532352
0.0923507
0.00782785
-0.0727656
-0.091076
0.0240437
-0.078081
-0.000839491
-0.0472482
-0.0693288
-0.0239475
-0.0580399
-0.0581825
-0.0356109
-0.080847
-0.0639475
-0.0314332
-0.107418
0.0741843
-0.00992057
-0.114536
0.0740198
0.0252768
-0.0324782
-0.0556022
0.0270649
-0.0336902
0.0697462
0.00813705
-0.0194769
-0.0559647
-0.00404301
0
0.0188087
0
0.00205782
0
-0.172481
0
-0.0520604
-0.00868922
-0.0851199
0.0326906
0.018372
-0.0808087
0.0552704
0
0
0
0
0
0
0
0
0
6.04613e-06
0
3.95559e-06
0
-2.01695e-05
-2.11911e-05
-1.05941e-05
0
1.2624e-05
-4.11746e-05
1.19041e-05
0
1.76102e-05
0
0
0
0
0
0
0
0
0
0
0
0
0
0
0
0
0
-0.0213677
-0.019438
0.0174179
-0.00897926
-0.00448961
-0.0149798
-0.0375189
-0.0368623
-0.0135151
-0.0483899
-0.0551356
0.0164325
-0.0333617
-0.0657821
0.0304788
-0.0231934
-0.0627162
-0.0340884
-0.00639127
-0.0574778
0.0436661
-0.00636621
-0.0502059
0.0384956
-0.00742266
-0.0453032
-0.0313305
-0.00734515
-0.0422216
0.0258013
-0.0102258
0.0161761
-0.0365119
0
0
0
0
0
0
0
0
0
2.88219e-06
0
0
0
0
0
0
0
0
0
0
0
0
0
0
0
0
0
0
0
0
0
0
0
0
0
-0.0674271
0
0.0703588
0.0365625
0.0148886
-0.0187395
0.0773683
0.0234025
0.00498053
0.0939793
0.0687365
0.0077217
0.0857693
0.0744798
-0.0295615
0.0544366
0.0471024
0.0318299
0.0435861
0.0220855
0.0299299
0.0426373
0.0121181
-0.0279488
0.0456053
0.0144116
-0.0278041
0.0410143
0.0176433
0.0250127
0.0193532
0.0182109
-0.0172975
0.00695127
0.00327633
0.0102886
1.72954e-05
0
0
-4.69263e-05
-1.37602e-06
0
0
2.0002e-05
0
0
0
0
0
0
0
0
0
0
0
0
0
0
-0.00791453
-0.0266151
-0.00938518
-0.00782964
-0.018492
-0.00439794
-0.010189
-0.0158328
0.00654272
-0.0131299
-0.0164752
0.00645446
-0.0153778
-0.0160498
0.00130454
-0.0162914
-0.0128869
0.0047087
-0.0637603
-0.026425
-0.0270274
-0.037825
-0.0337408
0.00640019
-0.0690837
-0.0395281
0.0232363
-0.0690531
-0.0499591
-0.0159867
-0.0460376
-0.0266477
-0.00792022
-0.0546732
-0.0306776
0.0182628
-0.0179393
-0.00966733
-0.00644877
-0.0203406
-0.0120273
0.00147945
-0.0132871
-0.0199925
0.00567077
-0.0338278
-0.019447
0.00601948
-0.0392388
0.0920287
0.0438864
-0.0370742
0.0516856
-0.0403255
-0.092296
-0.0518152
0.051916
-0.0388419
0.0873865
-0.0419528
0.050474
-0.0758346
-0.0373727
0.0321611
-0.0923083
-0.041389
0.0491098
-0.0586675
-0.0478104
-0.0159364
-0.0726256
-0.0423618
-0.0298336
-0.0508337
-0.0689408
0.0153357
0.0337203
0.0282785
0.0674052
-0.112225
0.029753
-0.0744621
-0.122694
0.125475
-0.0895129
0.112788
0.0428611
0.0757455
0.063824
0.0448469
-0.0376871
0.00975452
0.0327651
0.00342599
-0.0294259
0.0167253
0.0276905
-0.0710112
-0.000788934
-0.0442502
-0.110733
-0.0264927
-0.0471378
-0.0902928
-0.0668189
0.0437015
-0.110621
-0.0770332
0.0177633
-0.0390227
-0.0637722
-0.00390951
-0.0229734
-0.038101
-0.00385894
-0.0164637
-0.0253607
0.00667049
-0.00800877
-0.018999
-0.00435269
-0.00151033
-0.0182376
0.0103267
0.0026156
-0.0120987
-0.0140424
0.00970759
-0.00560591
0.0127465
0.0149012
-0.000636884
-0.0149075
0.0196689
-0.000156622
-0.0121202
0.0104382
0.0305543
-0.0146041
0.00329445
0.023522
0.0212814
0.0192757
0.0474313
-0.0290968
0.00811159
0.037982
-0.0184488
0.0554406
0.0204987
-0.025652
0.0357427
0.0586985
-0.0203897
0.0291592
0.0584343
-0.0214875
0.0579714
0.0406915
-0.0184874
0.0620122
0.0389763
-0.0247624
0.0767945
0.03285
-0.0298466
0.0842584
0.0395441
0.0333078
0.0809734
0.0465851
0.0457394
-0.0327452
0.0336276
-0.036807
0.0882862
-0.0516173
0.048003
0.0903675
0.0544594
0.0797195
0.0509058
-0.031945
0.0951573
-0.0382417
-0.0565054
0.0571246
-0.0358369
0.100154
-0.0386651
0.065358
0.0580214
-0.0352457
0.0991263
-0.0354019
0.0716311
0.0630632
0.0286305
-0.0815989
-0.0287461
0.0612166
0.0693289
-0.020497
0.0623453
-0.0228059
0.0466327
0.0601427
-0.0152472
0.0484399
-0.0171012
-0.0387786
0.0458342
-0.00991302
-0.00923485
0.0406201
-0.0376202
0.0379678
0.00341725
-0.00305497
-0.0638867
0.0787148
-0.0368782
0.0292088
-0.0433324
0.0447906
0.0545963
-0.0135006
-0.0507101
0.0791172
0.00774132
0.0697932
0.113427
0.0199887
0.0666268
-0.0977679
0.0157424
0.0721031
0.000817798
-0.0268087
-0.045301
-0.0162016
-0.0427404
-0.0440371
-0.0339809
-0.0695715
0.0638839
-0.037987
-0.102069
0.0658938
-0.0249693
-0.101819
-0.0735879
0.04386
-0.045564
0.0584361
0.0234944
-0.0148008
0.0544841
0.0153389
-0.00394683
0.0202777
0
0
0
0
0
0
-0.0614735
0
0
-0.00795618
0.0157662
0.00949273
0.040081
-0.0201655
-0.0344043
0
0
0
0
0
0
0
9.04558e-05
1.66094e-05
0
0
0
0
0
0
0
0
0
0
0
0
-5.69659e-05
0
0
0
0
0
-1.37681e-05
6.88143e-06
0
-1.6926e-05
0
6.26812e-06
0
0
0
-7.99097e-06
0
0
0
-0.000100894
-1.01872e-05
0.000195702
0.000786588
0.00119708
-0.00060794
-0.000105354
0
0.000968184
-0.000778745
0
0.000145368
0
-2.4804e-05
0
0
0
0
0
0
0
0
0
0
0
0
0
0
0
0
0
0
0
0
0
0
0
0
-0.0202601
-0.0263419
-0.0125328
-0.0060906
-0.00963102
0.00872754
-0.0384463
-0.034952
0.0118488
-0.0324457
-0.0528179
-0.022543
-0.0286185
-0.054513
-0.0233701
-0.0162147
-0.0505809
0.031853
-0.0156726
-0.0481267
0.0301794
-0.0201764
-0.01871
-0.0075673
-0.0333512
-0.0170551
-0.0453738
0.0238516
-0.0191409
-0.0446899
0.0184578
0.00940663
-0.0392899
0
0
0
-2.70124e-05
2.6375e-05
5.41711e-05
0
0
0
0
0
0
4.00797e-05
0
-1.47519e-05
0
0
0
0
0
0
0
0
0
0
0
0
0
0
0
-0.0200617
0.0189825
0.0100636
0.0574371
-0.00459622
-0.0148819
0.0604152
0.0164908
0.00521417
0.102273
0.0621069
-0.0294508
0.078458
0.0680788
0.0338616
0.0479936
0.0429594
-0.0285286
0.0388807
0.023187
-0.025689
0.041095
0.0165309
-0.0219607
0.0441726
0.0178135
0.0232779
0.0354262
0.0230875
0.0158488
0.0180267
0.017474
-0.00867926
0.00135202
-0.00538304
0.0067915
0
0
0
0
0
0
0
-4.92679e-07
0
2.74243e-07
0
-4.71538e-07
-7.78533e-08
0
0
0
0
0
0
0
0
0
0
0
0
0
0
0
0
0
0
0
0
0
0
0.00492089
0.0493551
-0.0144144
-0.0171371
-0.0250389
-0.0010184
-0.0131356
-0.0200437
0.00189391
-0.0131393
-0.0198518
0.00895341
-0.0152692
-0.0201384
-0.00655607
-0.0148855
-0.0169071
0.000863033
-0.0172899
-0.0126939
-0.00434161
-0.0465903
-0.0306468
-0.0144225
-0.0691887
-0.0307051
0.0268322
-0.0667916
-0.0448162
-0.0184935
-0.0678661
-0.0518606
0.0133954
-0.0442707
-0.0268752
0.00643107
-0.0435471
-0.0296708
-0.00849261
-0.0208506
-0.0131473
-0.00379489
-0.02165
-0.017402
-0.00255303
-0.0290374
-0.0192855
0.00824356
-0.0320636
-0.0218392
-0.00542545
-0.0407635
-0.0871265
-0.0475495
-0.043966
-0.0941877
-0.0488087
-0.0451873
-0.0952892
-0.0478282
-0.0891317
-0.0436851
-0.0484663
-0.0381103
-0.0956713
0.0534872
-0.0369651
-0.0916457
-0.0508617
-0.105009
-0.0414307
-0.0619046
-0.1096
-0.040934
0.0756141
-0.0919492
-0.0355934
-0.0622782
-0.0707166
-0.030532
-0.0473384
-0.0551085
-0.0229008
0.0379125
-0.0475393
-0.0158569
0.0368166
-0.0033938
0.0367842
-0.00303471
-0.0339962
0.0385473
-0.0104471
-0.0428197
-0.039303
-0.0933339
-0.0456082
-0.0479012
-0.0941275
-0.04679
0.0454535
-0.0752582
-0.0493805
-0.0314873
-0.0944647
-0.0464716
-0.0439867
-0.0536148
-0.0867339
0.0216067
0.0522921
0.0542916
-0.0541231
0.112841
0.0496268
-0.0532483
0.113485
0.120827
-0.0636103
0.0826843
0.058244
0.0293244
0.0348684
0.0554771
0.00724823
-0.00948083
0.0446294
-0.0378096
-0.0519153
0.0245576
0.0561178
-0.0873189
0.00388273
-0.0800716
-0.12148
-0.00342345
0.08153
-0.0730071
-0.0511423
-0.0517313
-0.0994461
-0.0695317
0.0285644
-0.0318966
-0.0477851
-0.00191039
-0.0186689
-0.0251282
-0.00353244
-0.0132547
-0.023037
-0.00313824
-0.00867381
-0.0149282
0.00564433
0.00157792
-0.0101231
-0.00837654
0.00915003
-0.00898596
0.00931094
0.00880666
-0.00708996
-0.0127027
0.0165718
0.00484963
0.0149688
0.0199012
0.00319739
-0.015237
0.0161647
0.0322343
-0.0195077
-0.0024424
0.0230772
0.0114048
0.0176847
0.0496745
0.0218968
0.0119786
0.0404555
-0.0149351
0.0530975
0.0264403
-0.0205673
0.0410715
0.0565219
-0.0160605
0.0353971
0.0576519
0.0145115
0.0569193
0.0445329
-0.017129
0.0576194
0.0353555
0.0259337
0.0688716
0.0314301
-0.0300002
0.0778978
0.0388158
-0.0306136
0.0306541
0.0466349
0.0821712
0.0765352
0.0476404
0.028887
0.0880374
0.0537146
-0.0307372
0.0907209
0.0581573
-0.0328908
0.0930526
0.0597817
-0.0311849
0.0906727
0.0644454
-0.0235862
0.0731308
0.0696936
-0.0147076
0.0543065
0.0584627
-0.00844317
0.0407228
0.0445876
0.00367542
0.0325284
0.0374658
0.0024553
0.0249893
0.0368167
0.0359053
0.00979624
0.0196315
0.0102965
0.0392814
0.0350536
-0.0172808
-0.0112283
0.0191869
0.0395038
0.02476
0.0379318
-0.0442254
-0.0610664
-0.0608625
-0.0392789
0.00509852
-0.0943725
0.0410402
0.035875
-0.0417604
-0.0453616
0.0706685
-0.00806985
0.070494
0.0968021
0.00263123
-0.054058
0.111819
0.0375643
-0.0434697
-0.0940586
-0.0114376
0.0871978
0.0130401
0.00859306
0.0210633
-0.00631382
0.0195539
0.017548
-0.0274781
-0.019564
-0.0195202
-0.021071
-0.0408164
0.00411845
-0.0110274
-0.0180737
-0.00319417
0.0470003
-0.0110241
-0.0409723
0.01652
0.0128841
-0.00689709
-0.00546086
0.0201491
-0.0535617
0
0
0
0
0
0
-0.042724
0
0
-0.0104897
0
0.0268011
0.045243
-0.0198197
-0.061118
0
1.02096e-05
0.000128552
0
0
0
0
6.46591e-05
0
0
0
0
0
0
0
0
3.70926e-09
-5.87929e-07
0
0
0
0
0
0
0
0
0
0
-0.000117213
0
0
0
0
-9.47635e-05
0
0
-2.06829e-06
0
0
0
0
0
0
0
0
0
0
0
0
0
0
0
0
0
0
0
0
0
0
0
0
5.91995e-07
0
0
0
0
-0.0176913
-0.0259583
-0.00838964
-0.00184059
-0.0117264
-0.00026398
-0.0297007
-0.0329961
0.0144698
-0.0301734
-0.040126
0.0131976
-0.0221602
-0.042137
0.0195318
-0.0220531
-0.0402519
-0.0188248
-0.0242449
-0.0406835
-0.0178381
-0.0278552
-0.0301479
0.00328952
-0.0341592
-0.0280471
0.00405935
0.038043
-0.0246896
-0.0401184
0.00918775
0.00501105
-0.0401414
-3.26099e-05
0
-9.18399e-06
6.43992e-05
-1.17382e-05
-1.13837e-06
0
0
0
0
0
0
0
0
0
0
0
0
0
0
0
0
0
0
0
0
0
0.0130334
0
0.0618946
0.00981076
0.142755
0.0715915
0.035416
0.0385347
-0.013045
0.0725549
0.0319751
-0.0197549
0.0989314
-0.0361295
0.0587609
0.0664526
0.0641519
0.0309741
0.0445953
0.0421296
-0.0241387
0.0361216
0.020497
-0.0197796
0.0395194
0.0198419
0.0166944
0.0404871
0.0235319
-0.0139949
0.0265367
0.0260196
-0.00700711
0.00916617
-0.00360137
-0.0033469
-0.00654395
0.0181161
0.00355929
0
0
0
0
0
0
0
0
0
0
2.81659e-07
0
0
0
0
0
0
0
0
-0.00755671
0
0
0
0
0
0
0
0
0
0
0.0103094
0
0.00282067
0
0
0
0
0
0
0
0
0
0
-0.00658703
0
-0.0229893
-0.026876
-0.00355175
-0.016242
-0.0231134
-0.0052988
-0.0135463
-0.0235426
0.0093036
-0.0108293
-0.0221838
-0.00584995
-0.0418687
-0.0343523
-0.0339289
0.00547972
-0.0131074
-0.0176966
-3.91089e-05
-0.0173275
-0.0169285
0.00140387
-0.057222
-0.0320095
-0.0190657
-0.0700118
-0.0430933
0.0186458
-0.0689245
-0.0538027
-0.0134513
-0.0805184
-0.0558245
-0.0218071
-0.0341152
-0.0285687
-0.00103646
-0.0485904
-0.0317061
0.0110327
-0.0231218
-0.0210715
-0.00340909
-0.0300036
-0.0191286
0.0131664
-0.0309555
-0.0189775
-0.00826503
-0.0321685
-0.029151
-0.000730607
-0.0414565
-0.0355475
0.0141379
-0.0626541
0.0467191
-0.0178855
-0.0380671
0.00887331
0.0681126
0.0574241
-0.0369313
0.0327225
-0.0744256
0.0279284
0.0599281
0.0341347
0.00262396
0.0287676
0.0380023
-0.0339215
0.0341855
0.00135213
0.0317419
-0.0442465
0.0382598
0.0439359
-0.000742481
0.0400519
-0.0487956
0.0422241
-0.0497152
0.0503133
-0.0570347
-0.00482935
0.0520151
0.0552725
-0.027861
0.00371895
0.0401451
-0.0198843
0.0129747
-0.0412746
-0.0068245
0.0225782
0.0374932
-0.0411317
-0.0871772
-0.0446596
-0.0469644
-0.0937285
-0.0489327
-0.0511488
-0.0967538
0.0451438
-0.0860671
-0.0449776
-0.0436412
-0.0397337
-0.102672
0.0592922
-0.0384784
-0.100592
0.045587
-0.11803
-0.0420652
0.0778328
-0.0997751
-0.0409496
0.0639577
-0.077237
-0.0370457
0.0462867
-0.0609576
-0.0290914
0.0372138
-0.0538551
-0.0231778
0.0360874
-0.0511912
-0.0185503
0.0400903
-0.00327989
-0.0361482
0.0410124
-0.0111615
-0.0449631
0.0420426
-0.0469226
-0.0946016
-0.0426277
-0.0928832
-0.0436593
-0.0933289
0.0414105
-0.0953005
-0.0529164
-0.0404529
-0.0643391
-0.0507624
-0.000405583
-0.0620555
-0.0675851
-0.0118826
0.00347725
0.0121562
0.0370376
0.0308875
-0.0118151
0.036662
-0.0402056
-0.00813103
0.0301017
0.0497412
-0.0161473
0.040288
0.0565714
-0.0491926
0.0366842
0.0571167
-0.04938
0.0160831
0.062848
-0.0358669
0.0120118
0.0753906
0.0454176
-0.0389771
0.036391
0.0824233
0.0682942
0.0639004
0.0371319
0.0940166
0.0630745
-0.0342537
0.0887277
0.0866157
-0.0282023
0.0548272
0.0605121
0.00796343
0.0157743
0.0661748
-0.0465011
-0.0308227
0.0508509
-0.0581399
-0.0859838
0.0219342
-0.0838425
-0.101021
0.00797143
0.109491
-0.115621
0.0100582
-0.0857675
-0.0556601
-0.0404698
-0.0411651
-0.0765557
-0.0452907
0.0186107
-0.0195331
-0.0262034
0.000229396
-0.0185663
-0.0244464
-0.00165013
-0.00981073
-0.00111159
-0.0157688
-0.0031606
-0.0118378
0.00405238
0.00103063
-0.0154797
-0.00954895
0.0106939
-0.00160619
-0.0111057
0.0164518
-1.92236e-05
0.00605953
0.013189
-0.0103985
0.0144059
0.0190703
0.00911512
0.0171881
0.0102606
0.0265315
-0.0162429
0.00843164
0.0295834
-0.00776856
0.0207057
0.0440501
0.0147987
0.0204522
0.0387915
-0.0113096
0.0503983
0.0290675
-0.0105635
0.0443127
0.0604906
-0.0129203
0.0372501
0.0523926
0.00887093
0.0556483
0.0408245
0.017176
0.0565621
0.0323385
-0.0233775
0.0697954
0.0276344
-0.0277527
0.0311978
0.0385181
0.0775476
0.0642673
0.0363425
0.0274463
0.0819318
0.0509526
-0.029263
0.0866194
0.0539671
-0.0298245
0.088952
0.0592535
-0.0285276
0.088482
0.0618211
0.0255345
0.0831957
0.06617
-0.0184116
0.0656162
0.067307
0.00833452
0.0474334
0.0556888
0.00103202
0.0349879
0.045213
0.00297674
0.0261684
0.0393417
-0.00838288
0.0173348
0.0360789
-0.0162671
-0.0238732
0.0339682
-0.025473
-0.0981791
0.109184
-0.0158164
-0.0566487
-0.0489811
0.0488781
0.0108176
-0.108236
0.0407938
0.0622451
-0.0267174
0.0856418
0.0582296
-0.0156861
-0.0480763
0.0861739
0.0149029
0.0372908
0.0819102
0.0475747
-0.0269681
-0.00664639
0.00314184
0.030041
0.0191223
0.0339175
0.045483
-0.00614021
0.06063
-0.00135876
-0.0376117
0.00151047
-0.0164847
-0.0175297
-0.0267479
0.00427574
0.0172385
-0.0163574
-0.0429529
0.0789009
0.0604159
0.0813256
-0.0885408
-0.0150535
0.0304158
-0.0958222
-0.026072
0.0378438
-0.0848736
0
0
0
0
0
0
0
0
0
0
0
0
-0.00391405
0
-0.0971574
0
0
0
0
0
0
0
0
0
0
0.00326745
0.00207773
0
0
0
0
0
0
0
0
0
0
0
0
0
0
0
0
0
0
0
-1.3956e-06
2.13359e-06
0
0
0
0
-0.000105664
8.04568e-05
0
0
0
0
0
0
0
0
0
0
0
0
0
0
0
0
0
0
0
0
0
0
0
0
0
0
0
7.93262e-06
0
-3.56397e-05
0
0
0
-6.49512e-06
0
1.39188e-05
0.0816748
0.0576875
-0.0420974
0.0257514
0.0398794
-0.0879208
0.0433058
-0.060543
-0.0148463
-0.0182148
0.00377014
-0.00525567
-0.0109591
-0.00254365
-0.0268912
-0.0207002
0.00148813
-0.0243893
-0.0284622
-0.0053743
-0.0256903
-0.0265672
0.00692505
-0.0264981
-0.0293083
0.00392665
-0.0289494
-0.0325037
-0.00327727
-0.0365441
-0.00663437
-0.0394835
-0.0339693
-0.00147091
0.0400591
-0.0362762
-0.00238912
2.00797e-06
0
0
0
0
0
0
0
0
0
0
0
0
0
0
0
0
0
0
0
0.0766497
0.0903138
-0.0289951
0.0576768
0
0
0
0
0
0
-0.0107176
0.0746756
-0.0783059
0.013849
0.0305632
0.0315329
0.0452553
0.0234637
0.0103661
0.0236415
0.0327905
0.0606555
0.0631068
-0.0255704
0.0404438
0.0392287
0.0199657
0.00747237
-0.00163027
0.00134722
0.00510714
0.0357506
0.025393
-0.0152524
0.0356581
0.0248265
-0.0105271
0.0313505
0.0273195
0.0044017
0.0173091
0.0266371
-0.00421168
-0.00141267
0.0160127
0
0
9.09982e-06
8.33879e-07
0
0
0
0
0
0
0
0
0
0
0
0
0
0
0
0
0
0
0
0
0
0
0
0
0
0
0
0
0
0
0
0
0
0
0
0
0
0
0
0
0
0
0
0
0
0
0
0
0
0
-0.0407376
-0.052068
-0.0378445
-0.00811344
-0.0214155
-0.0265801
0.00167843
-0.0147679
-0.0246211
0.00854502
-0.0105066
-0.0270138
0.0122868
-0.0122787
-0.024336
-0.00708171
-0.031069
-0.0251365
0.00036978
-0.0176744
-0.0204309
0.00331889
-0.0220595
-0.0236761
-0.00199588
-0.0602356
-0.0431563
-0.00869052
-0.0706376
-0.0570661
-0.00601623
-0.0817874
-0.0594215
-0.0187367
-0.0777294
-0.0602685
0.0138892
-0.0467331
-0.0351452
-0.0118986
-0.0503874
-0.0422324
0.00344128
-0.0313217
-0.0228796
0.0118712
-0.0341134
-0.0169061
0.0138619
-0.0300002
-0.0269347
-0.00158263
-0.0438871
-0.0367409
-0.0058839
0.039272
0.0423368
0.0255418
0.0178216
0.0595126
0.0247945
0.0220668
0.0530062
-0.0360858
0.0442122
0.0948208
-0.0292347
-0.00743954
0.0307691
-0.0441711
-0.0106934
0.0374501
0.0553571
-0.00576861
0.0428905
-0.0545139
0.00710352
0.0458452
-0.0301045
-0.0286008
0.00606821
-0.0430722
-0.0163876
0.0153304
0.041078
-0.0148252
0.0236971
-0.0464809
-0.0401507
-0.0859479
-0.0404146
-0.0493016
-0.0892614
0.0437013
-0.0518681
-0.0942146
-0.0376195
-0.079202
-0.0448764
0.0374485
-0.0544928
-0.121448
0.0876235
0.0292594
-0.0416486
-0.0842073
0.0361355
-0.032992
-0.107965
-0.0648417
-0.0575041
-0.099571
0.0489014
-0.0856538
-0.0415523
0.0485973
-0.0683824
-0.0356458
0.0377253
-0.0623424
-0.0311922
0.0362106
-0.0606147
-0.0274854
-0.0410618
-0.0537143
-0.0196
-0.0427593
-0.00183035
-0.0375214
-0.0441612
-0.0108112
-0.0475053
0.0456546
-0.0872589
-0.0538485
0.0344854
-0.0533579
-0.0957717
0.0416413
-0.0555354
-0.101987
0.0448398
-0.0899291
-0.0548313
0.0359685
-0.0551488
-0.0883263
-0.03671
-0.0593093
-0.0935931
0.0375493
0.00633952
0.0114063
0.0364085
-0.0323894
-0.00289725
0.0396883
-0.0391249
-0.0199399
0.0486342
0.0380371
-0.0159546
0.0290164
0.0574693
-0.0204555
0.0419439
-0.0614309
-0.0539099
0.037099
0.0681794
-0.0664458
0.00990412
-0.073274
-0.0452132
0.0116524
0.0840471
-0.0383357
0.0420376
-0.0933804
-0.0100563
0.0409774
-0.0284901
0.0575442
-0.0474639
0.0522993
0.0539352
0.103054
0.0642857
0.0553679
-0.0188605
0.0667155
0.0654619
-0.0111112
-0.0660612
0.057156
0.000917004
0.031329
0.0676006
0.0518065
-0.00309724
0.0698717
-0.0760404
-0.0620683
0.0461121
0.0900054
-0.102669
0.0245309
0.116355
-0.0860067
0.0181608
-0.0997325
-0.0863356
0.0149939
0.0599397
-0.0437503
-0.0268319
-0.00440528
-0.0296304
-0.0202999
-0.00358512
-0.0220704
-0.0244799
0.00527819
-0.010941
-0.00698035
-0.0062549
-0.0185481
-0.00852115
-0.002579
-0.0032372
-0.0137198
0.00976315
0.00454205
-0.0197171
0.00445168
0.00495789
-0.0161103
-0.00507737
0.0124098
0.00623242
0.0145684
0.017865
0.00135243
-0.00467656
0.0173436
0.00321249
-0.0106959
0.0155942
0.0344628
0.00838027
0.00821926
0.0236228
0.00874415
0.0274549
0.0437957
-0.0119714
0.0230453
0.0396976
0.008823
0.0481477
0.0339726
-0.00872191
0.041237
0.0523472
-0.0136475
0.0390458
0.0497915
-0.00993553
0.0511821
0.0381092
-0.01884
0.0496615
0.0273496
-0.0261904
0.0287636
0.0215681
0.0637354
0.0486128
-0.0137681
0.0798306
0.0476469
-0.024388
0.0819176
0.0524107
-0.0274734
0.0863025
0.0550742
0.0254247
0.0847131
0.0611816
-0.0226087
0.0829441
0.0624573
0.0188785
0.075023
0.0652501
-0.0112044
0.0567351
0.0632836
-0.000372893
0.0406688
0.0534172
0.0073636
0.030231
0.0465096
-0.011407
0.0213733
0.0426123
-0.0159267
-0.0244501
0.0398279
-0.140187
-0.0509546
-0.037422
0.00821949
-0.00746969
-0.157146
-0.0582243
-0.065016
-0.0628159
0.0798272
0.0711058
0.126781
-0.136627
0.0391491
-0.0551067
-0.0546728
0.0650782
-0.00791352
0.0520359
0.0579589
0.0257886
0.0270598
0.0617009
0.0360988
-0.0177413
0.0058346
0.0331037
0.0203287
0.0424379
0.0399944
0.0348463
-0.0474557
0.0799014
-0.0813536
-0.0435246
0.00142698
0.0576987
-0.0421384
-0.0234351
0.0464797
-0.0359663
-0.044891
0.0105612
0.065729
-0.03832
-0.0386208
0.0265395
0.0798931
-0.100822
0.127895
0.00757129
0.0268554
-0.200782
0.0342908
0
0
0
0
0
0
0
0
0
0
0.00385606
-0.00318067
0.0822036
0
-0.0111928
0
0
0
0
0
0
0.0058256
0
-0.00210576
0
-0.00162851
0
0
0
0
4.71096e-06
0
-2.77508e-05
0
0
0
0
0
0
0
0
0
-1.94699e-06
-3.20903e-06
-6.54105e-05
0
2.70058e-05
0
-2.98785e-05
-6.14959e-05
4.67281e-05
0
-6.16962e-05
0
0
0
0
7.36141e-06
0
-5.41535e-05
0
-8.76876e-06
-1.64396e-05
0
0
0
0
0
0
0
0
0
0
0
0
0
0
0
0
0
0
0
0
0
-3.82471e-06
0
5.72009e-06
0
0
0
-3.62183e-05
0
0
0
0
0
0
0
0
0.0789304
0.0680228
0.0408447
-0.037257
0.0932253
0.0803187
-0.0314365
0.0922273
0.033559
0.115979
-0.0606821
-0.0851878
0.0150309
0.0224927
-0.00610375
-0.0181874
0.00474193
0.00210849
-0.0117075
-0.00813408
-0.0216714
-0.00885899
-0.0104621
-0.0234634
-0.00973134
0.011217
-0.0263215
-0.0145804
0.00490863
-0.0303931
-0.0202361
-0.00758758
-0.0396415
-0.0302553
-0.00942656
-0.0452833
-0.0121903
0.0398685
-0.0369795
-0.00844094
0
0
0
0
0
0
0
0
0
0
0
0.0791966
0.0788764
0.0226524
0.0593801
0
0
0
0
0
0
0.0545981
0.0260141
-0.0466982
0.0255827
0
0.00212732
-0.0282087
-0.0798283
-0.0247196
1.72511e-05
-0.0349788
-0.0286197
0.0343064
-0.000175155
0.00726447
0.0199632
0.00818539
0.00266297
-0.00477429
-0.0118824
-0.015678
0.0536111
0.0600931
-0.0169381
0.0373238
0.0356909
-0.0122177
0.0153252
-0.0112184
-0.0188762
0.0323189
0.0256445
0.00646693
0.0292049
0.0263257
-0.00271842
0.0264556
0.0276704
-4.7584e-05
-0.00174646
0.0254753
-7.65033e-08
0
0
6.97898e-07
0
-7.64696e-06
0
0
0
0
1.11483e-05
0
-1.42452e-06
0
1.25724e-05
0
0
0
0
0
0
0
0
0
0
0
0
0
0
0
0
0
0
0
0
0
0
0
0
0
0
0
0