/*--------------------------------*- C++ -*----------------------------------*\
  =========                 |
  \\      /  F ield         | OpenFOAM: The Open Source CFD Toolbox
   \\    /   O peration     | Website:  https://openfoam.org
    \\  /    A nd           | Version:  8
     \\/     M anipulation  |
\*---------------------------------------------------------------------------*/
FoamFile
{
    version     2.0;
    format      ascii;
    class       volScalarField;
    location    "6300";
    object      alpha;
}
// * * * * * * * * * * * * * * * * * * * * * * * * * * * * * * * * * * * * * //

dimensions      [0 0 -1 0 0 0 0];

internalField   nonuniform List<scalar> 
526318
(
0.000371275
0.000596444
0.00041894
0.000626337
0.000553568
0.000423563
0.000935567
0.000972322
7.9712e-05
0.000964581
0.000150894
0.00055841
0.000281706
0.000727544
0.000800226
0.000582785
0.000575819
0.000407242
0.000259607
0.000360468
0.000359927
0.000442322
0.00135165
0.000851777
0.000354971
0.000588824
0.000439461
0.00108109
0.000198949
0.000384491
0.000351489
0.00035741
0.000422679
0.00017744
0.000383925
0.00013943
0.000498783
0.000295029
0.000665211
0.000330286
0.000467806
0.000382189
0.00249463
0.000129951
0.00315139
0.00277006
0.00198981
0.0015218
0.000777399
0.000814589
0.000486577
0.000338963
0.000175302
0.000100961
0.0525316
0.00567032
0.00340205
0.00822673
0.000554774
0.000383137
0.000319327
0.000318123
0.000688287
0.000158783
0.000369123
0.000143727
0.000409634
0.000279507
0.0004369
0.000454564
0.000360244
0.000572801
0.000478838
0.000226101
0.000700635
0.0005854
0.00108743
0.000187823
0.000146151
0.00114367
0.000172716
0.000704319
0.000807542
0.00023783
0.000515805
0.000762839
0.000545719
0.00110024
0.00133353
0.000748857
0.000837293
0.000661949
0.00173431
0.00198912
0.00138966
0.000441556
0.00223348
0.0015704
0.00120389
0.000729795
0
0
0
0
0
0
0.00580029
0.0321896
0.00216354
0.00124845
0.000739777
0.0010733
0.000804329
0.000393879
0.000291234
0.000697081
0.000448279
0.000187636
0.00027971
0.00150205
0.00124313
0.00180099
0.0020902
0.00165777
0.00160916
0.00252973
0.00238132
0.0023635
0.00181038
0.00383364
0.00354009
0.00398461
0.00453562
0.00383979
0.00278506
0.00561197
0.00381341
0.00570904
0.00239085
0.00761272
0.00850279
0.00243637
0.0059581
0.00537053
0.00428247
0.00555621
0.00599858
0.00500272
0.00787276
0.00148588
0.00358942
0.00254447
0.00434136
0.00342286
0.00261402
0.00829231
0.0088941
0.000825704
0.00141527
0.00818677
0.00374959
0.0142301
0.0112615
0.000464854
0.000540634
0.000191576
0.000774427
0.000748947
0.000430681
0.000544438
0.000704454
0.000508613
0.00108951
0.00135568
0.000453166
0.00110041
0.00187441
0.00114273
0.00126545
0.00477495
0.0022317
0.00301694
0.00193823
0.00142495
0.00246602
0.00322696
0.00232158
0.00220336
0.00183563
0.00153523
0.0019357
0.00223862
0.00320059
0.0029075
0.00340682
0.00314688
0.00215336
0.00269636
0.00692897
0.00434232
0.00654462
0.00557556
0.0111158
0.00579307
0.0100028
0.00230652
0.00997468
0.0111641
0.00776724
0.00804167
0.000309191
0.000411796
0.000176019
0.0004679
0.000342149
0.000315252
0.000211808
5.88182e-05
0.000205629
0.00158531
0.00446286
0.00282484
4.60622e-05
0.000162269
0.00121368
0.000613054
0.000214299
0.000604209
0.000970105
0
0
0
0.00602133
0
0
0
0
0
0
0.000129637
0.000396144
0.000146182
0.00030953
0.00029248
0.00031792
0.00014986
0.000403973
0.000613819
0.000142375
0.000836634
0.000101853
0.000466153
0.000268279
0.000442728
0.000719897
0.000143123
0.000258049
0.000237123
0.00033531
0.000832023
0.000339332
0
0
0
0
0
0
0
0
0.00254927
0.00732987
0.00162605
0.000903977
0.00101886
0.000831924
0.000426182
0.000622656
0.000390066
0.000354098
9.35442e-05
0.000219554
0.00136638
0.000723073
0.00121755
0.00161571
0.00279636
0.00212345
0.00405607
0.00296483
0.0023966
0.00374744
0.0078996
0.00693112
0.0152146
0.0128535
0.0219164
0.0162653
0.00175448
0.00512734
0.0114287
0.021749
0.0347121
0.0265069
0.015425
0.0094476
0.0247401
0.00377772
0.0111842
0.0121317
0.00558105
0.0373818
0.023818
0.138857
0.162904
0.156134
0.530942
0.00493989
0.0105733
0.00771166
0.00111364
0.000765955
0.0007425
0.000541122
0.000473586
0.00029234
0.000350155
0.000824704
0.000567215
0.00113135
0.000217811
0.00092238
0.00266583
0.00703076
0.0044221
0.00411508
0.00449252
0.00746436
0.00322932
0.0175436
0.00221264
0.0019891
0.00372599
0.00277092
0.00102486
0.00223781
0.00149999
0.00146394
0.00329544
0.00294695
0.00251981
0.00311328
0.0024597
0.00451935
0.00416831
0.00440483
0.00362256
0.00457322
0.00236538
0.00913304
0.00451111
0.00208386
0.0025308
0.00227649
0.00224819
0.0026215
0.000401681
0.0033455
0.00275012
0.00277949
0.00562191
0.00328018
9.11586e-05
0.00235289
0.00263163
0.00302395
0.000724989
0.00266506
0.000387812
0.000187522
0.000641513
0.000807579
0.000213827
0.000244509
0.000630354
0.000353065
0.00149231
0.000455579
0.000572962
0.00484779
0.0107045
0.0111923
0.00471853
0.00284028
0.000733727
0.00184632
0.00143835
0.00175575
0.000662992
0.00153674
0
0
0
0
0.197401
0
0
0
0
0
0
0
0
0
0
0
0.000246219
0.000210676
0.000266352
0.000121554
0.000353422
0.000208274
0.00044548
0.000278859
0.00030936
0.000532954
0.000617859
0.000197527
0.000329772
0.000705329
0.00028079
0.000298136
0.000345726
0.00038983
9.96052e-05
0.000236489
0.000614495
0.000995047
0
0.0515975
0.012328
0
0
0
0
0
0.0216292
0.0497136
0
0
0
0
0.00689801
0
0
0
0
0
0
0
0
0
0.0390381
0
0.00595565
0.00147879
0.00140872
0.000686608
0.000484028
0.000697537
0.000566189
0.00042035
0.000365124
0.000250218
0.000129345
6.59428e-05
0.00143356
0.00161471
0.00116906
0.00173215
0.00276985
0.00219239
0.00841287
0.0019344
0.00229114
0.00311659
0.0135729
0.00634926
0.0421979
0.00781528
0.0176219
0.0280495
0.0267761
0.0185434
0.0171246
0.0206378
0.147037
0.281724
0.0580052
0.0379569
0.0310227
0
0
0
0.370884
0
0
0.00207778
0.0041402
0.000721423
0.00321589
0.00423543
0.001368
0.0023924
0.00198973
0.00373532
0.00327289
0.0017007
0.00303476
0.00408412
0.0222909
0.00186053
0.00269563
0.00224808
0.00156357
0.00210309
0.000258359
0.000604769
0.00129295
0.00118913
0.00139993
0.00236508
0.000159812
0.00287446
0.0110459
0.00382335
0.0137915
0.0204213
0.0192238
0.0165658
0.115722
0.0943084
0.00489772
0.00170015
0.0052814
0.00278317
0.00240618
0.00158984
0.00403936
0.0014451
0.00329475
0.00200518
0.00448172
0.00317814
0.00533812
0.00441891
0.00239141
0.00156826
0.00232079
0.00141756
0.00163674
0.00163773
0.00250242
0.00139413
0.00205238
0.00274807
0.00243029
0.000410465
0.00203368
0.00171104
0.00240941
0.000991221
0.00179867
0.00127636
0.00043286
0.00200125
0.000284219
0.00106522
0.00187088
0.00170247
0.00179424
0.00109173
0.000588985
0.000328211
0.000236457
0.000370444
0.00128973
0.00126834
0.000217471
0.00133603
0.00216638
0.00109138
0.00166104
0
0.0291075
0.0139883
0.00514802
0.00400589
0.00173091
0.000360214
0.00281512
0.0024811
0.0191972
0
0
0
0
0
0.0461658
0
0
0
0
0
0
0
0
0
0
0
0
0
0
0
0
0
0
0
0
0.000546323
0
0
0.000422412
0.000214483
0.000250142
0
0
0
0
0
0
0
0
0
0
0
0
0
0
0.000138067
0.000292126
0.000384225
9.79204e-05
0.000390925
0.000300275
0.000703859
0.000474975
0.000243853
0.000406909
0.000336488
0.000204637
0.000218503
0.000235337
0.000270594
0.000396456
0.000444528
0.000626142
0.000209312
0.000196024
0.00069673
0.00105585
0
0
0
0
0
0
0
0
0
0
0
0
0
0
0
0
0
0
0
0
0
0
0
0
0
0
0
0
0
0
0
0
0.0702635
0
0.00401767
0.0153517
0.000324971
0.00210063
0.00162255
0.00033348
0.000859863
0.000351118
0.000350054
0.000639191
0.000390661
0.000325272
0.000288477
0.000385622
0
0
0
0
0
0
0
0
0
0
0
0
0
0
0
0
0
0.000555157
0.00014013
0.000348121
0.00146873
0.00339779
0.00188867
0.0172144
0.00399208
0.0382892
0.0309506
0
0
0.0308472
0.121629
0
0.144923
0.127672
0.0296103
0.0421336
0.0348149
0
0
0
0
0
0
0
0
0
0
0
0
0.000902827
0.00244434
0.00148687
0.00121394
0.00198624
0.00225834
0.000896738
0.000920046
0.00079283
0.000870407
0.00429473
0.00419329
0.00448569
0.00230232
0.00179428
0.0109236
0.00299386
0.00372346
0.0654316
0.00881445
0.00305543
0.0773184
0.00228915
0.00150798
0.000823691
0.00207075
0.00257723
0.00199469
0.00195714
0.0020179
0.000939742
0.0133967
0.0231781
0.026583
0.0621977
0.0352717
0.262745
0.373029
0
0.115258
0
0.00937083
0.00972364
0.0110428
0.00416976
0.00031667
0.000613085
0.000634487
0.00270598
0.00345463
0.004203
0.00416571
0.00394076
0.00172352
0.000635648
0.000861249
0.00259234
0.0028908
0.00377678
0.00343363
0.00169964
0.00174142
0.00171112
0.00334277
0.00098094
0.00194085
0.00200313
0.0010097
0.000943923
0.000579234
0.000776848
0.00204148
0.000527056
0.00104964
0.00102517
0.00116797
0.00135213
0.00156748
0.00147642
0.00143471
0.00130771
0.00115269
0.000712438
0.00079345
0.000816375
0.000593102
0.000599687
0.000727571
0.000695855
0.000639618
0.000643118
0.000510957
0.00038181
0.000507535
0.000498171
0.000306951
0.000221253
0.000190081
0.000457611
0.000460407
0.000206167
0.000247657
0.000354138
0.000210936
0.000367299
0.000231399
0.00032412
0.000160064
0.000300289
0.000118528
0.000237564
0.000239477
0.000153918
0.000156382
0.000121459
0.000269346
3.13975e-05
0.000129965
4.98045e-06
0.000107308
0.00010773
0.00350425
0.00112265
0.000297426
0.00116145
0.000176141
0.000749613
6.46678e-05
0.0376202
0.00100787
0
0
0.0242186
0.0626707
0
0
0
0.00907831
0.0377672
0.0266167
0
0
0
0
0
0
0
0
0
0
0
0
0
0
0
0.0101551
0
0
0
0
0
0
0
0
0.0130182
0
0
0
0
0
0
0
0
0
0
0
0
0
0
0.00870478
0.00606921
0
0
0.00865432
0
0
0.0133485
0
0
0
0.0163083
0.00408825
0.0306
0
0.0194802
0.0142872
0
0
0
0
0
0
0
0
0
0
0
0
0
0
0
0
0
0.0238898
0
0
0.000346948
0.000306399
0.000389689
0.000558171
0.000398921
0.000468916
0.000525168
0.000579738
0.000291831
0.000169921
0.000428887
0.00032027
0.000416796
0.000358817
0.000347078
0.0014713
0.000575775
0.000761605
0.000571052
0.000825868
0.00015651
0.000617075
0
0
0.00467416
0.00388161
0
0
0
0
0.00840809
0
0
0
0
0
0
0
0
0
0
0
0
0
0.0139371
0.0107197
0
0
0
0.0417758
0.0225591
0
0.000973534
0.00142143
0.000975127
0.000716327
0.0011719
0.000392192
0.000397582
0.00088748
0.000529082
0.000813119
0.000582451
0.000544175
0.000653498
0.000562456
0.00270972
0
0
0
0
7.39036e-05
0
0
0.000244645
0
0
0
0
0
0
0
0
0
0
0
0
0
0
0
0.29311
0
0.0015919
0.000889619
0.0025772
0.0017919
0.0713357
0.00533489
0
0
0
0.12131
0
0
0
0
0
0
0.0675414
0
0.0562424
0.0792157
0
0
0
0
0
0
0
0
0
0
0.00162389
0
0.000624282
0.000542329
0.00165443
0.00246844
0.00187502
0.00199504
0.000744797
0.00106679
0.000312629
0.000463325
0.000428646
0.000426499
0.000454715
0.000137985
0.000215209
0.000347079
0.000328575
0.000185395
0.000239154
0.000213218
0.000154251
0.000214367
0.000137889
0.000103993
0.000125467
4.79915e-05
0.00011555
0.000220583
0.000129143
8.23421e-05
0.0041993
0.00601161
0.00298214
0.0020386
0.00166733
0.00787002
0.00294612
0.00186408
0.025683
0.0226102
0
0.0261602
0
0.0030029
0.00297785
0.000420894
0.000447224
0.00241072
0.00824439
0.0804611
0
0
0
0
0
0
0
0
0.1732
0
0
0.0463751
0.00982878
0.033937
0.00970895
0.00227163
0.00523317
0.00230909
0.00257347
0.00534373
0.00384263
0.00167917
0.00171778
0.000945889
0.00279743
0.00253188
0.00250452
0.00285125
0.00261422
0.00177125
0.00167373
0.000167835
0.00124707
0.00293734
0.00124039
0.000361596
0.000323326
0.000700273
0.0016048
0.00061193
0.00254211
0.00310018
0.00297462
0.00312754
0.00227711
0.0021591
0.0019577
0.00164403
0.00145897
0.00152631
0.000991278
0.000823558
0.0008238
0.000460854
0.000613768
0.000753069
0.000529516
0.00027182
0.00048502
0.000229397
0.000406301
0.000213466
0.000355524
0.000206333
0.000288228
0.00015372
0.000256395
4.98445e-05
0.00024968
0.000136025
0.000390611
0.000164341
0.00016239
9.35521e-05
0.000168635
0.000132022
0.000194809
0.000170772
0.000241598
0.000144008
8.64848e-05
0.000127712
0.000166569
0.49614
0
0.0366569
0.00558411
0.0332625
0.0181391
0.00248557
0.00196435
0.00105649
0.00887648
0
0
0
0.336553
0
0
0
0
0
0.0141319
0.0309494
0
0
0
0
0
0
0
0
0.0241097
0.0459028
0
0
0
0.0131191
0
0
0
0
0
0
0
0.0151237
0
0.0299155
0
0
0
0
0
0
0.000236646
0
0
0
0.00630041
0
0
0
0
0
0
0
0
0
0
0
0
0
0
0
0
0.0132168
0
0.00693991
0
0
0
0
0
0
0
0
0
0
0.000417802
0.000394185
0.000480726
0.000566261
0.00010181
0.000364222
0.00042136
0.00023997
0.000457224
0.000189476
0.000208595
0.000444034
0.000219652
0.000364561
0.000473278
0.0028364
0.000358136
0.00074392
0.000480813
0.000857696
0.000425308
9.21392e-05
0.0024518
0
0.00115394
0
0
0
0
0
0
0
0
0
0
0
0
0
0
0
0
0
0
0
0
0
0
0
0
0
0.0105793
0
0.00256947
0.000178176
0.000732928
0.000410122
0.000476875
0.00101035
0.000950521
0.000591088
0.000877972
0.000715494
0.000571298
0.000590982
0.000675128
0.000739721
0
0
0
0
0
0
0
0
0
0
0
0.00410046
0
0
0
0
0
0
0
0.0491103
0
0.0736321
0.213041
0
0
0
0
0
0
0
0
0.00311755
0.00217421
0.00475264
0.00547222
0
0.0428099
0
0
0.00151379
0.0120071
0.00526018
0
0
0
0
0.00102633
0.00168238
0
0
0.384766
0
0
0
0
0
0
0
0
0
0
0
0
0
0
0
2.7031e-05
0.000265813
0.000182086
0.000134275
0.00025229
0.000195588
0.000189951
0.000250822
6.90609e-05
0.000128069
0.000281161
0.000185415
0.000224007
0.000123795
8.37433e-05
8.10495e-05
7.20396e-05
0.000100491
5.89063e-05
9.5716e-05
4.40136e-05
2.60346e-05
8.77961e-05
0.000162276
3.05288e-05
6.90727e-05
0.000173203
9.86874e-05
0.000162409
0.00010659
0.000171289
0.00010679
9.50185e-05
8.92047e-05
0.000147761
0.000487676
0.000603832
0.00128237
0.00158516
0.00206451
0.00142934
0.000783852
0.000863153
9.47547e-05
0.000508889
0.000398823
0.000339677
5.77266e-05
0.000287825
0.000216075
0.000278216
0.000242058
0.000262347
0.000209419
0.000280716
0.000212624
0.000172205
0.000208644
0.000132524
4.4452e-05
6.45565e-05
0.00011309
0.000119721
0.00342415
0.00358729
0.00366075
0.00480411
0.00378889
0.00237704
0.00195315
0.00828034
0.00558822
0.0430478
0
0.00015134
5.46804e-05
0.000118753
7.37618e-05
1.39712e-05
5.86213e-05
3.77321e-05
8.31783e-05
8.88266e-05
8.49972e-05
9.04799e-05
0.000171402
0.000174958
0.000166306
0.000130656
0.000128838
8.17306e-05
0.000102048
0
0
0.00343357
0.00737753
0.0129315
0.00437473
0.00947531
0.0641033
0.0026575
0
0.00935545
0.0162965
0
0
0
0
0
0
0.136052
0
0
0.0279922
0.0677695
0.028178
0.0139286
0.0733048
0.00663656
0.01664
0.0026829
0.00443485
0.0019521
0.00251222
0.00415124
0.0015738
0.00443773
0.00116036
0.000943371
0.00471998
0.00206767
0.00199227
0.00296471
0.000223847
0.00130395
0.000755517
0.00116668
0.00158766
0.00213097
0.00103644
0.00151375
0.00187986
0.00220343
0.00156897
0.000833141
0.00149094
0.00166341
0.00132365
0.00135857
0.00175324
0.000706556
0.00100072
0.000730993
0.00061662
0.000838661
0.000751362
0.000557346
0.000345081
0.000459471
0.000316445
0.000434871
0.000245259
0.000240507
0.000369005
0.000305276
0.000207706
0.000113116
0.00029272
0.000235538
0.000160152
0.000509158
0.000197296
0.000297627
0.000161041
0.000191605
0.000443788
1.89649e-05
3.21424
0
0.879513
0
0
0
0
0.0281139
0
0
0
0
0
0
0.0151629
0
0
0
0
0.0390278
0
0
0
0
0
0
0
0
0.00829903
0
0.0378341
0
0.00254956
0
0
0
0
0
0
0
0
0
0.0202124
0
0
0
0
0
0
0
0
0.209462
0
0.0014997
0
0
0
0
0
0
0
0
0
0
0.01165
0
0
0
0
0.00136858
0
0
0
0
0
0
0
0
0
0
0
0
0
0
0
0
0
0
0
0.0015946
0
0
0
0
0.00350631
0.000145775
0.000237924
0.000158834
7.33992e-05
3.30672e-05
0.00011863
0.000196984
0.000335961
0.000437024
0.000278266
0.000267772
0.000331706
0.000370569
8.49285e-05
0.000294034
0.000220731
4.60893e-05
0.000337656
0.000405967
0.000643509
0.00143435
0.00428299
0.00104429
0.000449666
0.000412342
0
0
0
0
0
0
0
0
0
0
0
0.00387023
0
0
0
0
0
0
0
0
0
0
0
0
0
0
0
0.00745426
0.000268449
0.000381295
0.000364985
0.000617035
0.000355037
0.000452989
0.000743559
0.000310938
0.000968351
0.000351346
0.000460999
0.000704483
0.000791836
0.000511201
0.000531852
0
0.00162269
0
0
0
0
0
0
0
0
0
0
0
0
0
0
0
0.00379799
0
0
0
0
0
0
0
0
0
0
0
0
0
0
0
0
0
0.0499059
0
0.0055443
0.00367709
0.00265774
0.00979883
0.00858329
0.0454833
0.00530128
0
0
0
0
0.00858914
0.0179845
0
0
0
0
0
0
0
0
0
0
0
0
0
0
0
0
0
0
0
0
0
0
0
0
0.000191475
0.000272022
0.000278139
0.000252565
0.000211721
0.000112427
9.99988e-05
0.000157199
6.49122e-05
8.48302e-05
0.000152245
7.62728e-05
0.000193129
0.00011794
0.000179772
5.83117e-05
0.000127631
0.000142868
1.47278e-05
3.86943e-05
8.90528e-05
1.55483e-05
0.00051595
0.000798728
0.00111702
0.000843625
0.00136322
0.00206169
0.000877051
0.000755012
6.85822e-05
0.000583442
0.000433325
0.000404625
0.000326434
0.000235136
0.000481131
0.000220093
0.000183286
0.000219713
0.000305453
0.000229157
0.000250576
0.000241663
0.000270512
0.00027946
0.000248645
0.000202895
0.000259142
6.26313e-05
9.36328e-05
0.000145194
0.000122415
0.0102225
0.00602098
0.00185927
0.00260483
0.00465358
0.0040197
0.00152696
0.00262566
0.00457321
0.00783733
0.581596
0.00851965
0.000145451
5.56643e-05
0.000151515
8.02122e-05
9.82451e-05
2.12782e-05
2.33857e-05
5.06334e-05
5.47286e-05
0.000130776
0.000109898
6.85447e-05
0.000108188
7.28689e-05
2.35704e-05
9.49673e-05
5.14826e-05
7.23695e-05
0.000113443
0.000134881
4.02987e-05
8.49694e-05
4.04467e-05
0.00011729
4.83398e-05
0.0087162
0.0230805
0.00994786
0
0
0
0
0
0
0
0
0
0
0.00981382
0
0.00453133
0
0
0
0
0.00467435
0
0.0165128
0
0.0223253
0.00948262
0.0918648
0.00893004
0.00462131
0.00778015
0.00332321
0.00201412
0.0028135
0.00281123
0.00123432
0.00305065
0.0026167
0.00247081
0.000940592
0.00224533
0.000627657
0.00113258
0.000873264
0.00167946
0.00153879
0.000673722
0.000763111
0.00091471
0.000697757
0.00079336
0.00129083
0.000771141
0.00131756
0.000805941
0.00132633
0.00114035
0.00117345
0.000506358
0.000613137
0.000969748
0.00104218
0.000505911
0.000445825
0.0004066
0.000340477
0.000301014
0.000429205
0.000367679
0.000260841
0.000237072
0.000338653
0.00025139
0.000214048
0.000246951
0.00019717
0.000311845
0.00018525
0.000379198
0.000233022
0.000327042
0.000609439
0.000388674
0
0
0
0
0
0
0
0
0
0
0
0
0
0
0
0
0
0
0
0
0
0
0
0
0
0
0
0
0.00895859
0.00440684
0
0
0
0
0
0
0
0
0
0
0
0
0.239455
0
0
0
0
0
0
0
0
0.139311
0
0
0
0.0286643
0.00482099
0
0
0
0
0
0
0
0.0105284
0.00768608
0
0
0.00330752
0.00488452
0
0
0
0
0.00961911
0
0.0142956
0
0
0
0
0.018648
0.000841649
0.00149173
0
0
0
0
0
0
0
0
0
0
0.00564918
0
0
0
0
0
0
0
0
0.000103283
0.000150637
8.39461e-05
0.000201437
7.1253e-05
7.38955e-05
0.000118311
0.0001848
9.48524e-05
3.68988e-05
0.000315886
0.000282713
0.000144231
0.000427649
0.000118165
0.000259787
0.000303666
0.000264415
0.000293805
0.000162811
0.00088274
0.000443368
0.00141982
0.00154238
0.00579396
0.00111407
0.00125959
0
0
0
0
0
0
0
0.0035282
0.0246167
0
0
0
0
0
0
0
0
0
0
0.000229338
0
0
0
0
0
0.000512017
0.000168182
0.000444254
0.00219783
0.00100273
0.000971959
0.00110054
0.000129611
0.000211471
0.000702072
0.000931978
0.000748572
0.000375371
0.000169554
0.000812717
0.00057803
0
0
0.00151011
0.0119947
0
0
0
0.00134101
0
0
0
0
0
0
0
0.00880214
0.0146203
0
0
0
0
0.00377617
0
0
0
0
0
0
0
0
0.00498295
0
0
0
0
0
0
0
0
0
0
0
0
0
0
0.0035261
0.00459522
0.00177717
0
0.00165892
0
0
0
0
0
0
0.00466852
0.00149728
0
0
0
0
0
0
0
0
0
0
0
0
0
0
0
0.002325
0
0.00866407
0
0
0
0
0
0
0
0.00319208
0.000264141
0.000136127
0.000307551
0.000503472
0.00044656
0.00047342
0.000508748
0.000166192
0.000435134
0.000148619
0.000222125
7.93993e-05
0.000239698
0.000219586
0.000167165
8.6059e-05
0.000144348
8.57495e-05
0.000187923
0.000148994
0.000203162
0.000174327
0.000103806
8.97413e-05
3.46873e-05
2.55223e-05
6.84132e-05
0.00013353
0.000447387
0.000938358
0.00103294
0.000774633
0.00146561
0.00141246
0.000852194
0.000792082
0.00026195
9.98655e-05
0.000287259
0.000620173
0.000185845
0.000215718
0.000138687
3.7663e-05
0.000245091
0.000146716
0.000299139
0.000160562
0.000220852
0.0002644
0.000277989
0.00031213
0.00027035
0.00028519
9.67053e-05
0.000135258
3.32277e-05
0.000248632
0.00384375
0.00632144
0.00248094
0.002162
0.00204015
0.00294941
0.00199896
0.00155661
0.00944185
0.00503578
0.0149293
0.0747861
0.000214548
0.000279007
0.000266899
7.14525e-05
0.000294552
4.85461e-05
0.000132028
0.000111658
7.47245e-05
7.14002e-05
5.13006e-05
6.39051e-05
9.55957e-05
0.000112231
0.000105343
9.65517e-05
1.488e-05
6.07483e-05
1.46498e-05
5.73291e-05
5.54328e-05
0.000119353
5.36772e-05
0.000101931
0.000110049
0
0
0
0
0
0
0
0
0
0
0
0
0
0
0
0
0.00486935
0
0
0
0
0
0.684018
0
0.0177417
0.00614815
0.0345791
0.178206
0.0070557
0.000974948
0.00134388
0.00136772
0.0029648
0.00323765
0.0006752
0.00253948
0.000414673
0.00251348
0.00256995
0.00150203
0.00162903
0.00155176
0.000818216
0.000913643
0.000447067
0.000882226
0.000830603
0.0003924
0.00108686
0.000956543
0.00121036
0.000956217
0.000923413
0.0008046
0.000588913
0.00103472
0.000867856
0.000460955
0.00066929
0.00049579
0.00046802
0.00034808
0.000426181
0.000325855
0.000405213
0.000233228
0.000328431
0.000249492
0.000216181
0.000307006
0.000238891
0.000156037
0.000237005
0.000169951
0.000257728
0.000251156
0.000509607
0.00027074
0.000460947
0
0
0.17149
0.000288823
0
0
0
0
0
0
0
0.0148585
0
0.0275401
0.0216637
0.0281852
0.0179208
0
0.0227334
0.118357
0
0
0
0.00390066
0
0.00100834
0.00367557
0
0
0
0
0
0
0
0
0.000732634
0
0
0
0
0
0
0.519298
0
0
0
0
0
0
0
0
0
0
0
0
0
0
0
0
0
0
0
0
0
0
0
0
0
0
0
0
0
0
0
0
0
0
0
0
0
0
0
0.0185859
0
0
0
0
0
0
0
0
0
0
0
0
0
0
0
0
0
0
0
0
0
0
0
0
0
0
0
0
0
0.000666344
0
0
0
0
8.48462e-05
0.000113812
7.52873e-05
3.40555e-05
0.000183821
0.000137515
0.000311851
9.60395e-05
8.41959e-05
0.000228187
8.99584e-05
5.29629e-05
0.000219231
9.83605e-05
0.000421014
0.000903827
0.00054434
0.000716134
0.000464007
0.000452583
0.000692466
0.000280912
0.00248124
0.00105984
0.00366111
0.00413655
0.00908907
0.00573518
0.00353766
0
0
0
0
0
0.0164637
0
0
0
0
0
0
0
0
0
0
0
0
0
0
0
0
0
0
0.000486817
0.000585242
0.000669828
0.000543767
0.000159492
0.00443716
0.0023937
0.000465479
0.00160988
0.000589493
0.000649908
0.000250424
0.000917134
0.000829408
0.00089641
0.000726596
0
0.00373435
0
0
0
0
0
0.00122818
0
0
0.00117555
0
0
0
0
0
0
0
0
0.000170948
0
0
0
0
0
0
0
0
0
0
0
0
0
0
0
0
0.0104121
0.0458907
0.0133061
0
0
0
0
0.0162346
0.0153942
0
0
0
0
0
0
0
0
0
0
0
0
0.0131685
0.0418323
0.0958611
0
0
0
0
0
0
0
0
0
0
0
0
0
0
0
0
0
0
0
0
0
0
0
0
0
0
0
0
0
0
0.00490503
0.00525946
0
0
0
0
0
0
0.000521563
4.94964e-05
0.000448061
0.000475974
0.000653372
0.000587055
0.000291819
0.000624476
0.000326461
0.000563021
0.000262269
0.000194052
7.14431e-05
0.000136798
0.000175185
0.000155666
0.000172908
0.000199484
9.8688e-05
0.00021552
0.000185233
3.61352e-05
9.46529e-05
0.000120831
7.84139e-05
0.000141816
8.38262e-05
0.000600196
0.000804927
0.00102317
0.000927116
0.00142453
0.000825402
0.000973212
0.0007579
0.000266779
0.000232572
0.000582132
0.000373386
0.000112145
0.000193671
0.000138899
0.000216734
0.000137378
0.00016413
0.000221677
6.78337e-05
0.000165791
0.000491003
0.000358202
0.000414176
0.000305641
0.000186953
0.000149623
3.26301e-05
6.16791e-05
0.000254502
0.00126374
0.0048989
0.00221352
0.0010072
0.00222821
0.00160507
0.00180298
0.00166696
0.00707101
0.00779299
0.0145605
0.0578896
0
0
0.151384
0.000227057
5.66181e-05
0.000110343
0.000278771
2.50315e-05
0.000120159
7.12905e-05
9.948e-05
0.00013183
9.37445e-05
0.000105828
0.000121972
3.8512e-05
9.8517e-05
1.24597e-05
4.00527e-05
3.75079e-05
3.63323e-05
8.98717e-05
3.96868e-05
4.64809e-05
7.83831e-05
0.000143873
0.000111492
8.28579e-05
0.000117024
0
0
0
0
0
0.0161727
0.00875717
0
0
0
0
0.00498258
0.00610503
0
0
0
0
0
0
0
0
0
0
0
0
0.0223983
0.00644163
0.0455375
0.00347541
0.00781968
0.00592904
0.00365511
0.00289246
0.00345233
0.00164785
0.000620805
0.00173062
0.00133553
0.000467609
0.00165179
0.00183212
0.000969693
0.000628792
0.000968502
0.00104281
0.00088453
0.00101341
0.000871485
0.000725187
0.000824575
0.000683683
0.00104519
0.000760843
0.000787748
0.000536929
0.000780269
0.000785859
0.000728108
0.000622082
0.000385297
0.000456172
0.000306124
0.000431529
0.000267473
0.000214042
0.000371574
0.000242285
0.000316464
0.000282748
0.000212164
0.000258504
0.000190776
0.000239089
0.000232973
0.000187057
0.000183135
0.000318999
0.000207141
0
0
0
0
0
0
0
0
0
0.0349495
0
0
0
0.0298371
0.0170812
0.0142402
0.0110773
0.00332251
0.00866556
0
0
0
0
0
0
0
0
0
0
0
0
0
0
0
0
5.83356e-05
0
0
0
0.163003
0
0
0
0
0
0
0
0
0
0
0
0
0
0
0
0
0
0
0.0569345
0
0
0
0
0
0.00307154
0.00115153
0.0047153
0
0
0
0
0
0
0
0
0
0
0
0
0
0
0
0
0
0
0
0
0
0
0
0
0
0
0
0
0
0
0
0
0
0
0
0
0
0
0
0
0
0.00891994
0
0.00105035
0
0
0.00419648
0
0.0104515
0.000132547
0.000104649
9.37688e-05
0.000194983
0.000136414
0.000147865
0.000109661
0.00042952
0.000170893
9.97359e-05
0.000282319
0.000342404
0.000293029
0.000194247
0.000455788
0.000204168
0.000126339
0.000142179
0.000208073
0.000430725
0.00104641
0.000868708
0.00044964
0.000455184
0.00139268
0.000757593
0.00280001
0.000955225
0.0016129
0.00208615
0.0032123
0.00686303
0.0117804
0
0
0.0548818
0.0160681
0
0
0
0
0
0
0
0
0.0169382
0
0
0
0
0.018468
0
0
0.0141571
0
0
0
0.000595576
0.00046294
0.000678489
0.000473824
0.00514966
0.00127629
0.000343022
0.0020119
0.000989874
0.000702225
0.00029925
0.00141745
0.000989326
0
0
0
0
0
0
0.0159991
0.00856154
0
0
0.0059594
0
0
0
0
0
0
0.00723384
0
0
0
0
0
0
0
0
0
0
0.0267928
0
0
0
0
0
0
0
0
0
0
0
0
0
0
0
0
0
0
0
0
0
0
0.00968254
0
0
0
0
0
0
0
0
0
0
0
0.137588
0
0
0
0
0
0
0
0.00717686
0
0
0
0
0
0
0
0
0
0
0
0
0
0
0
0
0
0
0
0
0
0
0
0
0
0.00445336
0
0
0
0
0
0
0
0
0.000586818
0.000765134
0.000959667
0.00058308
0.00116278
0.00019431
0.000273352
0.000113416
0.000288939
0.000120357
0.000172866
9.12288e-05
0.000110782
4.25615e-05
0.000246068
0.000105881
0.000230026
0.000154515
0.000220193
0.000223932
0.000241244
8.20853e-05
0.000169387
7.63173e-05
0.000270104
0.000252365
0.000166329
0.000212084
0.000704838
0.00069434
0.000689569
0.00128965
0.00082747
0.0011837
0.000922739
0.00112027
0.000270143
0.000262409
0.000483981
0.000537942
0.000259757
0.00017668
0.000218659
0.000266066
0.000243945
0.000247215
0.000117104
6.20297e-05
0.000300781
0.000127987
0.00032996
0.000185302
0.000156755
0.000182206
0.000304162
1.01171e-05
0.000302759
0.000276846
0.00559419
0.00381644
0.00240291
0.00125775
0.00260967
0.00188411
0.0018597
0.00149613
0.00942473
0.00690825
0.0049881
0.0243511
0.064957
0.0153231
0.000169265
6.09204e-05
0.000100603
0.000122391
5.71023e-05
8.59349e-05
0.000118568
0.000160644
0.000153364
7.68833e-05
3.1391e-05
4.47065e-05
1.55254e-05
2.50904e-05
3.09684e-05
1.92291e-05
6.98463e-05
8.54389e-05
9.91056e-05
5.58004e-05
1.9546e-05
6.29692e-05
1.20445e-05
0.000166448
0.000104488
0
0
0
0
0
0
0
0
0
0.00561186
0
0
0
0
0
0.000803374
0.00106237
0
0
0
0
0
0.223014
1.66506
0
0.0140147
0.0157385
0.00242773
0.00421
0.00549725
0.0032157
0.00906648
0.00102903
0.00129475
0.00151315
0.00105059
0.00181559
0.000326092
0.00146956
0.0012891
0.00174659
0.00125007
0.000798385
0.000521774
0.00090955
0.000945414
0.0014156
0.000908414
0.000887366
0.000794349
0.00072232
0.000489613
0.000919424
0.000544787
0.000645485
0.000491132
0.000509265
0.000703858
0.000310721
0.000495807
0.000271877
0.000424513
0.000390512
0.000197667
0.000344087
0.000190508
0.00026826
0.000172842
0.00022062
0.000210979
0.00018843
0.000238253
0.000204162
0.00023981
0.000188828
0.000166847
0.000157731
0.000142411
0
0
0
0
0
0
0
0
0
0
0
0
0
0
0
0
0
0.0359838
0
0
0.0292353
0
0
0
0.00250781
0
0
0
0
0
0.0152612
0
0
0
0
0
0
0
0
0
0
0
0
0
0
0
0.0078833
0.012105
0.0115867
0
0
0
0
0.00432514
0
0
0.00533561
0
0
0
0
0.00890068
0
0.00847208
0
0
0
0
0
0
0
0
0
0
0
0
0
0
0
0
0
0
0
0
0
0
0
0
0
0
0
0
0
0
0
0
0
0
0
0
0
0
0
0
0
0
0
0
0
0
0
0
0
0
0
0
0
0.00351232
0
0
0
0.0100641
0
0
8.90375e-05
0.000119646
1.66903e-05
0.000102324
4.58731e-05
0.000107554
0.000103988
0.00014144
7.71482e-05
0.000168899
8.80641e-05
0.000162599
0.000181652
0.000161398
0.000134913
0.000236717
0.00021259
0.000194455
2.51741e-05
0.00029474
0.000120802
0.0002441
3.69566e-05
0.000123706
0.000777516
0.00127146
0.00118127
0.00176787
0.00104148
0.00259134
0.000470136
0.003595
0.00237483
0.00179265
0.00251074
0.0107699
0.0383982
0
0
0.0299471
0.00694268
0
0
0.0123726
0
0
0.0169966
0
0
0
0.00748643
0.0144138
0
0
0
0
0.0134078
0
0.00715563
0
0
0.000856907
0.00113217
0.00201572
0.00095739
0.0044401
0.00303048
0.00174366
0.00164551
0.00198675
0.00174571
0.00109416
0.00107046
0
0
0.000760618
0
0
0.00182411
0.000717264
0
0
0
0
0
0
0
0
0.00356815
0.0247183
0
0
0.00358517
0
0.00905526
0
0
0
0
0.0528516
0
0.00728965
0.0323943
0
0
0
0
0
0
0
0
0
0
0
0
0
0
0
0
0
0
0
0
0
0
0.0204694
0
0
0
0
0
0
0
0
0
0
0
0
0
0
0
0
0
0
0
0
0
0
0.00755408
0.00207359
0
0
0
0
0
0
0
0
0.00209309
0
0
0
0
0
0
0.00138885
0
0
0
0
0
0
0
0
0
0
0.0451413
0
0
0
0.00637337
0
0.000576265
0
0
0
0
0
0
0
4.35155e-05
0.000232899
0.000284026
0.000200375
0.000296193
0.000190271
0.000103872
5.01557e-05
0.000114079
0.000150904
8.38016e-05
0.000130372
3.94593e-05
0.000116266
5.50443e-05
0.000144614
0.000194846
0.000203725
0.000182838
0.00022152
0.000231475
0.000209896
0.000300608
0.000241438
0.00011687
0.000322804
0.000114653
0.00011581
0.000212103
0.000814716
0.000824617
0.000704309
0.00117787
0.00121795
0.0010756
0.00102848
0.000971064
0.00027127
0.000281693
0.000529946
0.000604426
2.23242e-05
0.000290473
0.000200329
6.13376e-05
9.76431e-05
0.000210145
7.89364e-05
0.000549881
0.000392613
0.000421532
0.000392691
0.000543978
0.000560615
0.000275554
0.000429244
0.000311478
0.0004464
0.00194445
0.00172184
0.00216556
0.00175048
0.00226407
0.00135827
0.00162198
0.00263235
0.00683458
0.00702013
0.00394506
0.000609785
0.00602883
0.00437036
0.000125673
6.15644e-05
5.73115e-05
0.000107453
0.000150229
0.000113908
5.90076e-05
8.986e-06
1.21857e-05
7.18915e-05
3.65903e-05
3.43464e-05
3.02466e-05
5.86824e-05
5.873e-05
3.07306e-05
9.49604e-05
9.12706e-05
5.42229e-05
2.98605e-05
3.78485e-05
2.77726e-05
0.000104276
6.41077e-05
0.00898597
0.0146379
0.0191796
0
0
0
0
0
0
0
0
0
0
0
0
0
0
0
0
0
0.0126324
0
0.072572
0
0.0325367
0.0121348
0.0110581
0.00514278
0.00317968
0.00321955
0.0122303
0.00469332
0.0013828
0.000777467
0.000920332
0.00232638
0.00184017
0.00125619
0.0011298
0.00133576
0.00115481
0.00135973
0.00121522
0.00113663
0.001251
0.00094795
0.00134453
0.00111547
0.00116637
0.000919331
0.000700727
0.000368783
0.000979661
0.000562226
0.000650906
0.000489622
0.000539712
0.00034772
0.000280935
0.000432295
0.000394071
0.000205194
0.000348049
0.000127531
0.000294898
0.000146949
0.000191869
0.000233802
0.000262889
0.000254076
0.000247454