/*--------------------------------*- C++ -*----------------------------------*\
  =========                 |
  \\      /  F ield         | OpenFOAM: The Open Source CFD Toolbox
   \\    /   O peration     | Website:  https://openfoam.org
    \\  /    A nd           | Version:  8
     \\/     M anipulation  |
\*---------------------------------------------------------------------------*/
FoamFile
{
    version     2.0;
    format      ascii;
    class       surfaceScalarField;
    location    "6300";
    object      phi;
}
// * * * * * * * * * * * * * * * * * * * * * * * * * * * * * * * * * * * * * //

dimensions      [0 3 -1 0 0 0 0];

internalField   nonuniform List<scalar> 
788991
(
-0.0488538
0.00613344
-0.0372925
-0.04853
0.00982113
-0.052162
-0.0061251
-0.00405247
-0.0496694
0.0382715
-0.0279872
0.0361566
-0.00474307
-0.0535959
-0.0323528
-0.0368994
0.0512135
0.00254416
-0.0468681
0.0440181
0.0267377
0.0230009
-0.0352117
0.0218959
-0.0319896
0.0309626
-0.0187011
0.0172762
0.00351663
0.0294511
0.00564205
0.0344035
0.0413262
-0.00660508
0.0577089
0.00187687
-0.00623256
-0.0341413
-0.058125
0.00805461
-0.0311056
0.0428151
0.010574
-0.03252
0.0307429
-0.0135987
-0.0266208
0.0103416
-0.00714903
-0.0450661
-0.0245279
0.0368994
-0.0356542
-0.00292139
0.0313364
0.00144911
-0.00209597
-0.000949161
0.0355016
0.00656195
-0.00046947
-0.00611539
-0.0141567
0.00957922
-0.00636401
0.0196183
0.00536332
-0.0133082
0.00982281
0.00468871
-0.0180528
0.00820223
-0.00247779
-0.0145351
-0.0239554
0.00885696
-0.00860549
-0.0333375
0.0169977
0.00757698
0.0187475
-0.0263061
0.0375367
-0.0233883
0.00812742
-0.0354866
0.0286164
-0.0256529
-0.0247279
-0.0134144
0.0344925
-0.00214041
-0.0335348
-0.0383344
-0.00214698
0.0319771
0.00395232
0.0303418
-0.0364818
0.00614955
0.0456025
0.0133301
-0.0198993
-0.0331707
0.0231348
0.0257184
0.0252858
0.0220714
-0.0138933
-0.0157401
0.0206334
0.0293091
-0.00187458
-0.0220252
0.000448036
-0.0441283
0.0109193
-0.0024133
-0.0087306
0.00604709
0.00584237
-0.0341165
-0.0313311
-0.063076
0.0122744
-0.0214331
0.0298307
0.0510571
0.0148865
-0.0308402
0
0
0
0
0
0
0.00348991
-0.0180951
0.0814648
-0.020941
0.0404598
0.0263642
0.0405891
0.0206566
-0.0035719
-0.0156005
0.0423034
0.013259
0.0381325
0.0334061
0.00885618
-0.0388728
0.0114552
-0.00522477
0.036831
0.0156095
-0.0382794
-0.00917386
0.0254226
-0.0780684
0.0514042
-0.0360737
0.00280201
0.0750329
-0.0725915
0.0631695
-0.0521614
0.0210218
0.0818699
-0.0538447
0.055267
-0.0481088
0.029535
0.0870918
0.0375792
0.0468927
0.0757703
0.022933
0.0678598
0.0264218
0.0206104
-0.0671265
0.00858828
0.0626516
-0.0303393
0.0183782
-0.0664625
0.0210725
0.0454711
0.0340342
0.00886955
0.0368314
-0.00099346
0.0531932
-0.0105113
0.0196146
-0.0618181
-0.0022008
0.00699034
-0.0296732
0.0121182
0.0268641
0.0122652
0.0615743
0.0542344
0.0321891
-0.0287119
-0.0143016
-0.0183369
-0.0380397
-0.00508168
0.0328281
-0.00444861
0.0216207
0.0415817
-0.00449516
0.0237941
0.0170639
0.0383
-0.00396148
0.0216812
0.0255882
0.00118147
-0.0201424
0.0345798
0.0181104
-0.00713039
0.0366977
0.0375887
0.00883806
0.00774186
0.0542802
0.01934
-0.0680207
0.0507878
-0.0251848
-0.0356176
-0.0531293
0.0725756
0.125891
-0.0519971
0.0836941
0.015236
0.0336996
-0.0387078
0.0338694
0.0475923
0.0258256
0.0324446
0.0388618
-0.0250554
0.0331035
0.0452322
-0.0154835
0.041911
0.048258
-0.0327
0.0492246
0.0446414
0.0273633
0.0210969
0.0432522
-0.0308123
0.034447
0.0453473
0.0178622
0.016442
0.0892903
0.0110713
-0.0187345
-0.0112843
-0.0586664
-0.0311265
0.0595138
0.0502342
-0.0161928
0.0208044
-0.06876
0.0522719
0.0862031
-0.0250645
-0.0187124
-0.041466
0.0238991
0.0154281
0.00209433
-0.0153689
0.00378846
0.0096728
0.00946384
-0.0195656
-0.00826842
-0.00636046
-0.00512793
-0.00329371
0.0166679
-0.0259822
0.0163265
0.0151096
0.00986027
0.0122866
0.0292971
-0.0132857
-0.000182864
0.0157798
0.0186658
-0.00585891
0.0232716
-0.027066
-0.00940046
0
0
-0.0168609
0
0.0390441
0
0
0
0
0
0
0
0
-0.0268071
-0.0141884
-0.0151163
-0.0101724
-0.00416394
-0.0145074
-0.0422776
-0.0394784
-0.00255722
-0.0324813
-0.0374601
-0.0121827
-0.0538608
-0.0332126
0.00748621
-0.0317295
-0.0162997
0.0247204
-0.0174726
-0.0165325
0.00134244
-0.00938396
-0.0204861
0.0194644
0.0236883
-0.0148786
0.00835278
-0.00417506
-0.00342389
0.0139422
0.0157648
-0.000891586
-0.0135644
0
0
0
0
0
0
0
0
-0.0160513
0
0
0.0588123
0.0537987
0.0603559
0.0167453
0.00856707
0.0216138
0.0400331
0.030229
-0.0294395
0.0464047
0.014656
-0.0270668
0.0414743
0.0222856
0.0165096
0.00149468
0.00352729
-0.0196209
0.0173535
0.0253433
-0.013648
0.0143336
0.0449944
0.0133161
-0.0108315
0.042548
-0.0190481
-0.0282887
0.0395809
-0.0283379
-0.0478017
0.0305102
0.0322548
-0.0579089
0.0191466
-0.0500588
0.0272891
0.00226054
0.0194791
0.188306
-0.0526892
0.00667029
-0.0413181
0.0159188
0.0138944
-0.132942
0.000363063
-0.0335739
-0.0137359
0.0596651
0.0397046
0.069334
0.0163451
-0.0568834
-0.016194
0.0427461
-0.0222746
0.034539
-0.0651763
-0.0106963
0.0477715
0.0139255
-0.0354745
-0.0912245
0.00678915
-0.0507167
-0.0588278
-0.0335337
-0.0126175
0.123931
-0.000272361
0.0472771
-0.0390687
0.00192915
-0.0116234
-0.0112372
0.00733164
0.00888913
-0.0360292
0.0231772
0.000576644
-0.0115989
0.0296298
-0.00546128
-0.00444739
0.0240944
0.0150387
-0.0163459
0.0200412
0.0439419
0.0228504
0.0365141
0.0720825
-0.0508024
-0.147837
0.0897028
-0.0614176
-0.0637952
-0.128607
-0.0637333
0.107727
-0.00189216
0.00480468
0.0294976
-0.0109507
-0.0184156
0.023107
0.0023452
0.0196269
0.0270476
0.0116594
-0.0146067
0.0356997
0.0394482
0.0090338
0.0287187
0.0533686
-0.00724262
0.0271797
0.0415958
-0.0169454
0.0509596
0.0697048
-0.0353945
0.0633877
0.0913236
0.0241419
0.074218
0.0792775
0.0266553
0.0673481
0.0725536
0.00492854
0.0270048
0.0624304
-0.0302539
0.0539881
0.000849654
0.0187237
0.0435154
0.0176869
0.0102598
0.0404081
0.0156784
0.00260433
0.0319272
-0.0664462
0.0421688
-0.00480597
0.0168969
-0.0652833
0.000492374
0.024898
-0.0404223
-0.0128535
-0.0592587
0.0138337
-0.0218895
-0.0147051
-0.0090178
-0.0150242
-0.0331204
-0.015075
0.000465481
0.00763535
-0.0145166
0.000192534
0.0258133
-0.0107143
-0.00877568
0.0158786
-0.020619
0.0197467
0.0197901
-0.0588869
0.0265777
-0.0274578
0.0257113
0.0356537
0.0364935
0.00932921
0.0506492
-0.0297119
0.0038613
0.0472016
-0.0485105
-0.0103184
0.0499895
-0.0423592
0
0
0
-0.048402
0
0
-0.0132433
0
0.00598259
0
0
0
0
0
0
0
0
0
0
0
0
0
0
-0.0266666
-0.0347423
0.00421415
-0.00112813
-0.0225265
0.0104151
-0.043147
-0.03205
0.00881353
-0.0454556
-0.0316152
0.024979
-0.0473974
-0.0236988
-0.00897843
-0.0182135
-0.0130968
0.0252463
-0.00798626
-0.0108087
0.0276659
0.0108448
-0.0055803
-0.00384952
-0.00746485
-0.00314043
-0.00900778
0.00036435
-0.0140978
-0.000557054
0.0186174
0.00216608
-0.000446367
0.00032481
0
0.000232615
0
0
-4.05111e-05
-0.000154115
-0.00083642
-0.000157441
7.34028e-05
0
-6.44974e-05
0
0
0
0
6.04843e-05
0
0
-3.90575e-06
0
0
0
0
0
0
0
0
0
0
0.0929469
0
-0.0651018
0.0167523
0.186961
0.00626583
0.0440433
0.0149852
-0.0153292
0.0385707
0.0215042
0.0203584
0.0460794
0.0278637
-0.00332535
0.0248261
0.0309629
-0.00129978
-0.0133263
0.0201793
0.00586188
0.0303477
0.0222321
-0.00941102
0.0277623
0.0390899
0.00330478
-0.00673962
0.0266979
0.00200281
-0.00210586
0.00228277
-0.0455829
-0.0136253
0.0381646
-0.017135
0.0282318
0.0271037
0.0218026
-0.0514161
-0.0241035
0.0159394
-0.0539384
0.0447493
-0.0225971
0.0180195
-0.0244464
0.127281
0.147592
-0.00227896
-0.0561381
-0.0310663
-0.0726091
-0.0271589
0.0590949
-0.0363732
-0.0360604
0.0135951
-0.0234318
-0.00914807
0
-0.0290846
0
0.00680485
-0.0114769
-0.00155033
0
-0.0338573
-0.0521861
-0.0430484
-0.0272802
0.0397786
0.00598439
0.0545555
-0.0622351
-0.0663783
0.0487679
-0.0658466
-0.00903378
-0.00548095
-0.0761301
-0.0228999
0.0118705
0.00743561
-0.0214988
0.0763021
-0.0239306
-0.00837092
-0.000891344
-0.0325632
-0.0226115
0.00872182
-0.0428463
-0.0015809
-0.00102808
-0.00446158
-0.00465273
0.00858018
0.0105221
0.00438274
-0.0216977
0.0279487
0.0243496
-0.0256623
0.063193
0.0623012
0.054604
0.0432404
0.0978703
0.0951205
-0.246913
0.131874
-0.10706
-0.09301
-0.173567
0.0335883
-0.104496
-0.00202645
-0.00252342
0.0131636
-0.00637584
-0.0406125
0.0223766
-0.0148727
0.0122793
0.018875
0.0220274
-2.76957e-05
0.0195739
0.0408334
-0.00751493
0.0292764
0.0529498
-0.00643652
0.0394645
0.0684474
-0.031662
0.0326651
0.0759952
0.027803
0.016986
0.0500437
-0.0229497
0.00283747
0.041639
-0.0143446
0.0111188
-0.00405835
0.0383866
0.0383825
-0.000902067
0.0229622
0.0264343
0.0376194
0.00906283
0.014161
0.00308989
-0.0209389
-0.00246377
0.00322779
-0.00687072
-0.045411
-0.0401339
-0.0178227
-0.0348552
-0.0103658
-0.00582522
-0.00211741
-0.0353861
-0.0437759
0.0485238
0.0313537
0.0269532
0.10041
0.0172874
0.00556843
0.0487431
-0.0292275
0.00152327
-0.00902333
-0.0207411
-0.0449455
-0.00854384
0.0201965
-0.0140173
-0.0189377
-0.0243123
0.00503069
-0.0177585
-0.0341287
0.0196342
-0.027396
0.03904
-0.00235526
0.00575358
0.0315101
0.000986154
-0.0170544
-0.0325854
0.00929287
-0.00440191
0.0207036
-0.00466477
0.0174791
-0.0095121
-0.0160129
-0.00574403
-0.0642693
0
0
0
0
0
0
-0.000321645
0
0.000397552
0
0
0
0
0
0
0
0
0
0
0
0
0
0
0
0
0
0
0
0
0
0
0
0
-0.000330608
0
5.85722e-05
0
-1.78508e-06
-3.13501e-06
2.77986e-06
0
-4.19194e-06
-2.65413e-07
-4.23863e-07
0
-6.97298e-07
0
0
0
0
0
0
0
0
0
0
0
0
0
0
0
0
0
-0.0139437
-0.0386544
-0.0164082
0.0122011
-0.0274792
0.0293227
-0.0471631
-0.0209248
0.0216678
-0.0545934
-0.0272267
-0.0314495
-0.0293111
-0.0291265
-0.00679842
-0.0207196
-0.0150815
0.00365002
-0.0154665
-0.0124195
-0.00563205
-0.0220318
-0.0142826
-0.00244532
-0.000484541
0.00394308
-0.000187397
0.00903498
-0.0215297
0.00670434
0.0162991
0.00803468
-0.00967749
0
0
0
0
0
0
0
0
0
0
0
0
0
0
0
0
0
0
0
0
0
0
0
0
0
0
0
0
0
0
0
0
0
0
0
0
0
0
0
0
0
0
0
0
0
0
0
0
0.00015087
0.000670838
0.0372786
0.0544939
-0.0840215
0.0372571
0.084078
-0.0056619
0.0416373
0.0593329
0.00179642
0.0375559
0.0489486
-0.00167758
0.0389667
0.0431692
-0.0176564
0.003842
0.0431789
0.0216943
-0.0257622
0.0348446
-0.0354727
0
0
0
1.90954e-06
0
0
0
0
0
0
0
0
0
0
0
0
0
0
0
0
0
0
0.0185229
0.00579615
-0.00624219
0.0157169
0.00356737
-0.000860219
-0.00101527
-0.0256056
-0.0132271
-0.0637685
0.00606093
-0.0227991
-0.0748573
-0.0348717
-0.0454682
-0.0232577
-0.0266341
0
0.0311176
0.00940902
-0.0578392
-0.0176846
0.00970732
0.0219454
-0.101281
-0.0309423
-0.000664035
-0.013654
-0.0136962
-0.0301175
-0.018011
0
0
-0.0222058
0
0
0
0
0
0
0
0
0
0
0
0
0
0
-0.0601955
0.0927671
0.0289269
-0.0493004
0.0617869
-0.0745643
-0.138778
-0.0253459
0.0206473
-0.0526279
0.0793591
-0.0528797
0.0130045
-0.118096
-0.0410845
0.0643783
-0.102509
-0.064639
0.0716543
-0.0362582
0.0099195
0.0154857
-0.0758564
0.0129793
0.0100829
0.00568389
0.0637372
0.0703319
-0.0281735
-0.0116042
-0.0697142
0.0524054
-0.00631793
0.0291147
-0.00301504
0.0125866
-0.00323978
-0.0131863
0.00682661
0.00577743
0.0100379
0.00604901
0.00787907
0.0477119
0.0229735
0.038582
-0.0134212
0.0343234
0.0911336
0.018164
0.0665861
-0.109172
-0.323342
0.0868947
-0.308434
-0.0386825
-0.176263
0
-0.01182
-0.0149227
0.0236065
0.000292758
0.00315247
0.0321235
0.0309027
-0.0349027
0.0252113
0.023317
0.00571906
-0.0108688
0.0473552
0.0284009
0.0418718
0.0704858
0.0779287
-0.0210835
0.0476219
0.0748839
0.0160478
0.0126854
0.0174402
-0.00858407
0.019817
0.0411329
0.0331698
0.0310166
0.0843132
0.0297555
0.0497245
0.000835567
0.0180369
0.0959989
0.0312678
-0.018845
-0.000980999
-0.0519539
-0.00449174
0.050522
0.0268034
0.00502606
-0.0037826
0.000124288
-0.00475079
0.000485428
0.0472373
-0.0252031
0.0106632
-0.0130724
-0.0208591
0.0634332
-0.00962909
-0.0256111
0.0675875
0.0378799
-0.0660947
0.0732212
0.00621151
-0.0773648
0.109704
0.0219775
0.0623725
0.0871696
0.0222871
0.0417259
-0.0679193
0.0604943
-0.062581
0.0784512
-0.0274368
0.0376792
0.0674449
0.015395
0.0860588
0.0208064
-0.0587108
0.0514127
-0.0494396
-0.00848614
0.0126981
-0.049716
0.0531801
-0.0469347
0.00997117
0.000470691
-0.0527335
0.0481294
-0.0533747
0.00289157
-0.00860635
0.0550539
-0.0271495
-0.0529938
-0.0204754
-0.0111202
-0.0474664
0.0073607
-0.0425264
-0.0211814
-0.0184458
-0.03878
-0.00303512
-0.0339599
0.0281757
-0.0425213
-0.0277926
-0.0177061
-0.00732063
0.0123349
-0.0135199
0.0145827
-0.00924492
0.00556783
-0.0386893
0.0209769
-0.0231137
-0.00274523
-0.0267218
0.00459953
-0.0041622
-0.0125243
-0.0996
0.00643491
0.00253309
-0.0716468
-0.0839423
0
-0.0232547
0.00557503
-0.00733978
-0.0689897
8.02921e-05
0
0.0357491
0
0.0503678
-0.0698247
-0.00177612
0.00156594
-0.0545518
-0.0468223
0
-0.0474981
0
0
0
0
0
0
0
0
0
0
0
0
0
0
0
0
0
0
3.66833e-05
9.73959e-05
0
0
0
0
0
0
0
0
0
0
0
0
0
-2.70373e-05
-0.000127671
0
0
0
0
0
0
0
0
0
0
0
0
-2.21883e-06
0
0
0
0
0
-7.30767e-05
-2.18961e-06
0
-5.4833e-05
-5.59524e-05
0.000148019
0
0
0
-6.86182e-06
0
-0.00012596
-6.06296e-05
3.35399e-05
0
-7.16027e-05
-0.000133214
-0.000115579
-0.000117376
-0.000217064
-0.000196759
-8.75803e-05
1.57091e-05
0
0
0
-0.000134496
0
0
0
0
0
0
0
0
0
0
0
0
0
0
0
0
0
0
-0.000226573
0
0.000126297
0
-0.000100582
0
-0.00130509
-0.0482072
0.0305086
0.0217083
-0.0396245
-0.0481963
-0.0479654
-0.0184651
-0.0256571
-0.0390924
-0.0250462
0.0210931
-0.0158739
-0.0152149
-0.00360152
-0.0189739
0.000794594
-0.0255957
-0.0191585
-0.00376375
-0.00681322
0.0084886
0.0028077
-0.0142203
-0.0195354
-0.017248
-0.0046694
-0.00458522
0.000176971
-0.0184794
0.0125764
0.0171984
-0.0233164
0
0
0
-3.2869e-05
3.41915e-05
5.18778e-05
0
0
0
0
0
0
3.49701e-05
0
-1.93612e-05
0
0
0
0
0
0
0
0
0
0
0
0
0
0
0
0
0
0
5.87206e-05
6.21262e-05
3.37268e-05
0
-5.56317e-05
0
-0.000946262
0
0.000249391
-0.0468518
-0.000176859
-0.0662152
0.0355123
-0.000831149
0.0221076
0.0534598
0.0444358
0.0214576
0.0439498
0.0651903
0.0213349
0.03607
0.0635374
-0.0261622
0.0197926
0.0595115
-0.0428976
-0.0146155
0.0534363
0.0505222
-0.0308024
0.0553518
0.0426638
3.44558e-05
0
0
1.66751e-05
0
1.67625e-05
0
-6.90144e-07
0
3.29101e-08
0
2.04055e-06
-1.36043e-06
0
0
0
0
0
0
4.11589e-05
0
0
-4.00842e-06
0
0
0
0
0
0
0
0
0
0
0
0
0.00122429
0
0.00286457
0.00222045
-0.00451526
0.0114344
-0.00560914
-0.0281403
-0.00345911
-0.0244951
0.00503709
0.0313672
-0.0381698
-0.0586938
0
0
-0.00192782
0.00135394
0
0
0
0
0
0
-0.00260379
0
0
0.0638798
0
-0.0321988
-0.0112213
0.0231647
-0.0837206
0
0
0
0
0
0
0
0
0
0
0
0
0
0
0
-1.5026e-05
0
-1.48605e-05
-0.0515125
-0.0691164
-0.0081756
-0.0537917
-0.101114
-0.0679817
-0.077483
-0.127843
-0.0184914
-0.0665214
-0.0676428
-0.0241562
-0.0446426
-0.0515305
0.00030551
-0.0463795
-0.0481013
-0.015303
-0.0498147
-0.0414422
-0.00750906
-0.0552773
-0.0435424
0.015195
-0.0342912
-0.0439251
0.0128828
-0.0130654
-0.0473803
0.0274194
-0.0043745
-0.0366048
-0.0305978
-0.00353682
-0.0345461
-0.0164966
-0.00724242
-0.0368737
0.00608228
0.0171195
-0.010091
-0.0148745
0.00369639
0.0111115
-0.153165
-0.0426633
-0.083239
-0.099281
-0.0530414
0.0545225
0.0209348
-0.0403682
0.00439384
-0.0995843
-0.0107704
-0.0179239
-0.059191
-0.0779933
-0.0122994
-0.0387436
0
0
-0.0765114
-0.00786653
0.0201713
0.025255
0.00620651
-0.0344683
-0.018848
-0.00888742
0.0239713
-0.0134144
-0.0306143
-0.0897915
-0.00542619
-0.0709085
0
-0.0189196
0
0
-0.481413
0
0
0
0
0
-0.00337454
0
0
-0.0044346
-0.0138656
0.0149386
0.0146084
0.0164065
0.00575383
0.0265424
-0.0122114
-0.0483563
0.0181429
0.0770007
0.0228489
0.0365599
0.0702046
0.00294499
0.010033
0.0333197
0.00734006
-0.00550467
-0.018794
-0.0273621
0.0346186
0.036735
0.0567538
0.0427321
0.0529604
-0.0704879
0.0273994
0.0709664
0.0312918
0.0485888
0.0236682
0.0208361
0.0625389
-0.00526985
-0.0136568
0.0091123
0.0245179
0.0119017
0.00737998
-0.011895
0.00814079
0.00464373
0.017726
-0.0105461
0.0280884
0.104249
-0.0351564
0.0538696
0.126881
0.0357774
0.101837
0.0919724
-0.0884992
0.0877973
0.0196595
0.0968287
0.113957
-0.0220914
-0.0843314
0.102068
0.0271504
-0.0678384
0.0680118
0.0443355
0.0791759
0.0910614
0.0223785
0.0672587
0.0613008
0.0121001
-0.0550378
0.0480645
0.00168312
-0.0544021
0.0417488
-0.0156234
-0.05601
0.04222
-0.019106
-0.0551497
0.0182705
-0.0103981
-0.0441001
-0.00298967
-0.0318974
-0.0325403
-0.0163623
-0.0253307
0.0244365
-0.0257164
-0.0795721
-0.0139988
-0.0264535
-0.0186807
-0.0181586
-0.00423053
-0.0295222
0.00133775
-0.0197913
-0.0357288
-0.00214382
0.0235163
0.00464338
-0.0150947
0.00400005
-0.022879
-0.0172568
-0.0480655
-0.0142093
0.0718156
-0.0268555
0.0436506
-0.0593286
0.0209644
-0.0425544
-0.0200965
-0.00454664
-0.0160418
-0.00971577
0
-0.0142161
-0.00135681
0
0
0
0
-0.0100017
-0.018842
0
0
0
-0.0328902
0
0
-0.000378596
0.00016452
0.000385399
0
-0.000115424
0
0
0
0
0
0
0
0
0
0
-6.79311e-05
0.000505142
-0.000692404
0
0
0
-3.12659e-05
0
0.000116944
0
-4.8358e-05
0
0
0
0
0
0
0
0
1.78855e-08
-5.81034e-05
-0.000242844
0
3.98514e-05
0
-0.000159122
0
0
0
0
0
-0.000202711
0
0
-7.35757e-07
-2.03786e-06
0
0
0
0
-6.13154e-05
-2.56229e-05
0
0
0
-6.36168e-05
0
0
0
0
0
-3.75831e-05
0
0
-9.15709e-05
0
0
0
0
0
0
0
0
-0.000135312
0
7.67304e-05
-5.65858e-05
0
5.61044e-06
0
-5.08862e-05
0
0
0
0
0
0
0
0
1.30328e-06
0
0
0
0
-0.00415631
-0.0533711
0.0342403
0.0191596
-0.0434323
-0.0498724
-0.0282113
-0.0141109
-0.0134175
-0.0167186
-0.00809488
-0.0102645
-0.0193305
-0.0167476
-0.0173017
-0.0204325
0.00839174
0.0183507
-0.0152408
0.000655255
5.1178e-05
0.0110714
-0.00604011
-0.0206248
-0.00107625
0.00738623
0.00746223
0.0196161
-0.00233782
-0.000931898
0.00671034
0.0113894
-0.0175405
-2.25541e-05
0
-1.33947e-05
7.11158e-05
8.5983e-07
-1.50558e-06
0
0
0
0
0
0
0
0
0
0
0
0
0
0
0
0
0
0
0
0
0
0
0
0
-8.58805e-05
0
0
0
0
0
0
0
0
0
0
0
-0.0336408
0
-0.065045
0.0170181
-0.0193433
-0.013215
0.0368358
0.0165862
0.0179371
0.0379794
0.0467955
-0.0375539
0.0282261
0.0647751
0.0395782
0.000991937
0.0620808
0.0603891
-0.0125132
-0.0248119
0.0518279
-0.0428932
0.0579779
-0.0581077
0
0
0
0
0
0
0
0
0
0
1.54167e-06
0
0
0
0
0
0
3.11644e-05
1.46304e-06
-0.00165558
0
0
0
-6.79258e-05
0
0
0
0.000266908
0
-0.000261639
-0.00171404
9.55308e-05
-0.000254531
0
0
0
0
0
0
0
0
0
0
-0.001314
0
-0.00359614
-0.0066801
0.015098
-0.0119254
0.0019893
0.00624318
0
-0.0100216
-0.00272229
-0.000575227
0
0
0.0170909
-0.0180128
0.000704232
0.00160667
0
0
0
0
0
0
-1.20568e-05
-1.72168e-05
1.2627e-05
0
-9.33307e-06
0
-0.0593628
0
-0.0180016
-0.00693672
-0.013046
0
0
-1.94296e-07
0
-1.86516e-06
0
0
0
0
0
0
0
0
0
0
0
0
0
0
0.0636073
0.0376686
0.026128
0.0375104
-0.0091661
-0.0143122
0.0405996
0.0210132
-0.0111617
-0.0314122
-0.0277073
0.0241552
0.00650756
-0.0498017
-0.0295215
0.026312
0.0136303
0.00362171
-0.0147272
-0.00605873
-0.00396702
-0.00123044
0.000226761
-0.00417128
0.00694423
0.0107738
-0.0210012
0.0126545
-0.00542917
-0.00163384
-0.0256422
0.0120613
0.0330892
-0.011577
0.0103337
0.0272795
0.0208857
0.00375966
-0.00764171
0.0166615
0.00166548
0.00388287
0.0169716
0.0117759
-0.00775514
-0.0547527
-0.0471506
-0.00201564
-0.0452511
-0.105525
-0.0531365
-0.0760418
-0.09957
0.0225684
-0.0675858
-0.0598657
-0.0289751
-0.0267788
-0.0381194
-0.00706861
-0.0388894
-0.0201141
-0.000125058
-0.0493505
-0.0357413
0.0139834
-0.0298531
-0.0346979
-0.0151887
-0.0141449
-0.0445059
-0.0343735
-0.0100367
-0.0428401
-0.0335009
-0.0100932
-0.0430229
-0.0221399
-0.0130322
-0.033462
-0.0135368
-0.00612457
0.0045582
-0.00356364
-0.0131071
0.00280674
-0.00335358
-0.0415516
-0.133035
-0.060704
-0.0387197
-0.0385048
-0.102241
-0.0067481
-0.1152
-0.077725
-0.0397605
-0.0327318
-0.0399838
0.0819375
0
-0.050007
-0.070711
-0.0180824
-0.0259889
-0.0088678
0.00907859
-0.00856338
-0.000840651
-0.00829828
0.00637679
0.00242463
-0.00109257
0.0209722
0.007272
-0.0160948
0.0356324
-0.00583532
-0.0160369
0.0336141
0.0113678
-0.0251413
0.0336334
0.0362208
-0.00691704
0.0405265
0.0163096
0.0178485
0.0053887
0
2.13067e-05
3.07368e-05
0
-0.00654949
0.0178353
0.0243559
0.0279702
-0.0191525
-0.0715118
0.028159
0.0440257
2.08744e-05
-0.0607153
-4.15811e-06
3.99743e-05
-3.42455e-05
-2.42544e-05
0
-5.36853e-05
0
0
0
0
0
0
0
0.00501352
0
0
-0.0140685
0.00442875
-0.000496411
0.0235692
-0.0125253
0.0216102
-0.025585
0.0716916
-0.0333922
0.0301275
0.0350929
-0.0381672
0.0239999
-0.0173854
0.0261685
-0.0256426
-0.012148
0.0234964
-0.00773574
0.0471478
0.0687292
-0.021865
-0.00378158
-0.0483221
0.0389586
0.130066
-0.0830333
0.0583626
0.0624721
-0.0639699
0.0625317
0.0109126
0.00258829
0.0421898
0.0427732
0.0383768
0.0394807
0.074397
0.000677579
0.0459187
0.0181553
0.0206975
0.127363
0.0540908
-0.00474244
0.0912485
0.119002
-0.063349
0.0450904
0.0950299
0.0460759
0.0932536
0.0379752
0.0834512
0.0731788
-0.0244961
-0.104978
0.09808
-0.0394442
-0.0652772
0.0657931
0.0267165
0.0945755
0.0836704
0.00421544
0.0762497
0.0719195
0.0142173
-0.0597787
0.06078
0.00259398
-0.0608408
0.0426175
-0.00907933
-0.0606661
0.0399542
-0.0187259
0.0594956
0.0355754
-0.0195968
-0.0519194
0.00611205
-0.0209763
0.0428011
-0.0184051
-0.0303442
0.0184293
-0.0416225
-0.0906559
-0.0226531
-0.0277819
0.0228656
-0.0129495
-0.0343391
-0.0794617
-0.00156325
-0.00762788
-0.00243574
0
-0.0122034
0.0566634
-0.0161792
-0.0190912
0
0
-0.0579131
0
0
-0.039512
0
-0.0133899
-0.00498527
-0.0188752
0
0
0
0
-8.79947e-07
0
0.000161301
0
-0.00441931
0
0
0.000204528
0
-0.000415425
0
-0.000361415
0
-9.52061e-05
0
0
0
0
0
0
0
0
6.98228e-05
-4.04915e-06
0
0.0004743
0
5.77338e-05
1.38242e-05
0.00032779
2.33509e-05
0
0
0
0
0
0
0
0
0
0
0
0
1.81619e-05
0
-0.000190536
0
0
0
0
0
0
0
0
0
0
0.00330118
0.00209372
0
-6.18822e-06
-5.00804e-06
0
0
0
-3.57553e-05
0
0
0
0
0
0
0
0
0
0
0
0
-4.28876e-06
-0.000101034
0
0
0
0
-6.83053e-06
-6.72198e-06
0
0
0
0
0
0
0
0
0
0
0
0
0
0
0
0
0
0
0
0
0
0
0
0
0
0
0
-2.17475e-05
0
7.82712e-06
0
0
0
-9.77212e-05
0
1.88356e-05
0.012959
-0.00675951
-0.0439028
-0.038567
0.0284068
-0.00380047
0.0141093
-0.00198489
0.00140309
-0.0307269
-0.0233238
0.0277536
-0.0238577
0.0361653
-0.0142148
-0.000944213
-0.0122093
-0.0054126
-0.014044
0.00590042
-0.006375
0.00398002
-0.012847
-0.00406762
0.000427663
-0.0015032
-0.00139127
0.00583133
-0.00433277
0.00732223
-0.0127815
0.00359649
0.00179403
0.00564974
0.010542
-0.005566
0.00541761
9.42551e-06
0
0
0
0
0
0
0
0
0
0
0
0
0
0
0
0
2.43814e-05
0
-9.41579e-08
0
0
0
0
0
0
0
0
0
0
0
0
0
0
0
0
0
0
0
0
0
-0.0289376
0.0422337
0.0287842
-0.0140665
0.00321821
-0.0105824
-0.00938343
-0.0172282
0.0342887
0.035447
0.0144955
0.00612494
0.00896391
0.0282057
0.0393393
0.0309682
0.00870621
0.0467295
-0.0375691
0.00269848
0.0549411
0.0466301
-0.0445018
0.0425264
0
0
1.3131e-05
-5.93635e-07
0
0
0
0
0
0
0
0
0
0
2.9607e-05
0
0
0
0
0
0
0
0
0
0
0
0
0
9.14722e-06
1.58833e-05
0
0
0
0
0
0
0.000224078
0
0
0
0
0
0
0
0
0
0
0
0
0
0
0.000211349
0
-0.000290304
-0.0288347
-0.0372979
0.0123909
-0.00782486
0.00195148
-0.0218234
0.00276041
-0.0263723
0.0135965
0.0123098
0
-0.0319982
0
0
0
0
0.0171116
-0.0142293
-1.82532e-05
0
0
0
0
0
0
0
0
0
0
0
0
0
0
0
0
0
0
0
0
0
0
0
0
0
0
0
0
0
0
0
0
0
0
0
0
-0.043214
-0.0129697
0.0232511
-0.0560216
-0.0428092
0.00709366
-0.0501865
-0.0318572
-0.015872
-0.0102844
0.000355015
-0.0309679
-0.00309229
0.0011252
-0.0013336
-0.0094854
0.00401823
0.0174485
-0.0319069
-0.00963299
-0.026178
-0.0403343
0.00223727
-0.024273
0.0151927
0.0107051
0.00555525
-0.000847052
-0.00206297
-0.00201893
-0.00732018
-0.00176595
0.00746595
-0.0550288
-0.0384368
0.00570064
-0.049065
-0.0792446
0.0298834
-0.0760437
-0.0893497
-0.0284568
-0.0642366
-0.0568924
0.0201333
-0.0191392
-0.0424378
-0.0145043
-0.0407817
-0.0438509
0.0197384
-0.0234594
-0.051421
-0.00751081
0.0369764
-0.0229455
-0.0119973
-0.0120685
-0.00525977
-0.036028
-0.0400901
-0.00564029
-0.0456209
-0.035554
-0.0126635
-0.040857
-0.0324083
-0.0265835
-0.0461288
0.0103223
-0.0261415
-0.0429042
-0.00505471
-0.0091465
0.00705724
-0.00284759
-0.0135636
-0.00292141
-0.0106859
-0.0598576
-0.033083
0.0143623
-0.0653094
-0.11594
0.0287255
-0.0556383
-0.0892878
-0.0139919
-0.12178
-0.084396
0.0218694
0.0165153
-0.0863972
-0.0305973
0.00931948
-0.0371067
0.0527315
-0.00939958
-0.00305572
-0.00461179
-0.0228774
-0.00316102
0.0231947
-0.0103771
0.00180778
0.00407283
0.000863639
0.011672
-0.00479248
-0.003285
0.0227962
-0.0027589
0.0204273
0.0456847
0.0159222
-0.0145656
0.0249713
0.012165
-0.00340838
0.0123874
0.0174713
0.000915201
0.0151632
0.019592
-0.0208937
-0.00222794
0.0158429
0.00574597
0.0044625
0.000595803
0.0189196
-0.00105587
0.00432156
-5.49755e-05
2.73752e-05
0.000178729
-0.000158885
-0.0127
7.47413e-05
0
-0.0492802
0
0
0
0
-0.000177035
0
0
0
0
0
-9.98583e-05
0
3.82014e-05
0
-1.74664e-05
-2.22349e-05
0
0
0
0
4.30613e-05
3.58752e-05
0
-0.0445386
0
0.0673741
0
-0.00208829
-0.00751616
0.0162739
0.0128426
0.115
0.0793243
-0.0105542
0.0152279
0.0605627
-0.0728217
-0.0396032
0.0469051
-0.0630964
0.0250395
0.0575196
0.0637446
-0.0121358
0.0404419
-0.0557765
0.0273454
0.0464163
0.0831927
0.0036793
0.0376133
0.00817706
0.0216354
0.0364585
-0.0406605
0.0940949
0.00829396
-0.0251806
0.0565054
0.0395214
0.0207818
0.0423834
0.000659308
-0.0237319
0.0610946
0.0271476
-0.0123907
0.0286618
0.0867103
-0.0642597
0.0109518
0.0954044
-0.052371
0.0610287
0.0148114
-0.0875725
0.0290746
-0.0103778
-0.0764745
0.0684297
-0.0515258
0.0971836
0.0212436
-0.0914395
0.0835614
0.00356168
-0.0602085
0.0655304
0.00937599
-0.0603413
0.0574355
-0.00467544
0.0638698
0.0424369
-0.00792677
-0.0645998
0.0320171
-0.0239199
0.0618015
0.0256011
-0.0297121
-0.0496797
-0.0228065
-0.0383428
-0.021991
-0.0372702
-0.0534487
-0.00700034
-0.0240472
0.0260946
-0.0268213
-0.0454847
-0.115793
0.00594534
-0.0425537
0.0755646
-0.0124101
0
0
0
0
0
0
0
0
0
0
0
0
0
0
0
0
0
0
0
0
0
-0.000331866
0
0
0
0
0
0
-9.51312e-06
0
0
0
0
0
0
0
0
0
0
0
0
-1.17234e-05
7.05214e-05
5.67409e-05
0
2.62059e-05
0
0
0
0
0
0
0
0
0
0
0
0
0
0
0
0
0
0.00269413
-0.00243976
-8.85937e-05
0
0
0
0
0
-1.11772e-05
0
0
0.00387116
0
-0.00182379
0
-0.00335233
0
0
1.44722e-06
-0.000245002
7.06228e-06
0
-3.38228e-05
0
0
0
0
0
0
0
0
0
5.53699e-05
-1.90925e-05
0.000121379
0
-9.82561e-05
0
-3.0522e-05
8.59121e-05
-5.77969e-05
0
1.09325e-05
0
0
0
0
1.30276e-05
0
-7.43047e-05
0
-2.78159e-05
-3.35465e-05
0
0
0
-1.14514e-05
-5.17633e-06
6.42236e-05
4.73625e-05
9.30063e-07
0
-6.8905e-06
0
0
0
0
0
-1.26198e-06
0
0
0
0
0
-8.37289e-06
0
9.61411e-06
0
0
0
-4.93614e-05
0
0
0
0
0
0
0
0
-0.00333141
-0.0109842
-0.0284952
-0.0136036
0.0115844
-0.000539027
0.0150554
0.0326105
0.030517
0.0353705
0.000973557
-0.0178972
0.023596
-0.00131352
0.0157011
-0.0197836
0.0132906
0.0280134
-0.00258969
-0.0178533
-0.0135013
-0.0145747
0.00339885
-0.00143654
0.00365132
0.00680821
-0.00800991
-0.0066573
-0.00607416
-0.0085728
0.00609437
0.0138009
-0.00385771
0.0019515
0.00289594
0.00185371
0.00594706
0.0192131
-0.0102567
-0.00949781
0
0
0
0
0
0
0
2.52757e-05
0
0
0
1.75336e-05
-0.040467
-0.0844576
3.5827e-05
0
0
0
0
0
0
0
-1.82533e-05
0
0
0
0
-9.59387e-07
0
1.8797e-06
0
9.18179e-07
0
0
0
0
0
0
-0.0128168
-0.00263748
-0.0114007
-0.00442338
-0.0269227
0.0040053
0.02802
-0.0180475
0.0179718
0.000850645
0.00380265
-0.0225848
-0.00672452
-0.0017696
-0.00574579
-0.00576468
0.0143279
0.000395029
0.00574098
0.00941283
0.0200339
-0.0143981
-0.0227938
0.0250974
6.08183e-07
0
0
2.15292e-06
6.52764e-05
-1.09653e-05
8.49234e-05
0
-1.97025e-05
0
1.55301e-06
0
-1.01737e-05
0
1.17474e-05
0
0
0
0
0
0
0
8.69937e-05
0.000107572
0.000187381
0.00050263
-2.08068e-05
0
-1.73611e-06
0
0
-2.47031e-05
0.000116951
-3.98483e-06
0
0
0
0
0
0
0
0
0
0
3.48001e-05
1.46324e-05
0
0
0
0
0
0
0
0
0
0
0
0
0
0
0
0
0
0
0
0
0.00343151
0.00558509
0.00500115
0.00587447
-0.0129933
0.00733583
-0.000614139
-0.00713045
-0.0252632
0
0
0
0
0
0
0
-3.55758e-05
-2.00585e-05
2.08719e-05
0
0
0
0
-2.19472e-05
0
0
0
0
0
0
0
0
0
0
0
0
0
-0.0550763
0
0
0
1.41657e-05
7.75706e-06
-6.98205e-05
0
7.62502e-05
0
0
0
0
0
0
0
0
0
-7.25084e-06
0
2.2767e-05
-0.0591746
0.0102966
-0.0252032
-0.0383135
-0.04588
-0.0410425
-0.0815446
-0.056508
0.0168911
-0.0236242
-0.0964892
-0.00281589
-0.0203711
0.030197
0.0181008
0.0202697
0.0128507
-0.0253211
-0.0025161
0.0240774
-0.016822
-0.00403376
0.0142042
-0.0201989
-0.00622789
0.0176784
-0.0135057
-0.00275659
0.0314019
-0.019152
0.000549461
0.0360477
0.00887605
-0.000117831
0.0119996
0.00236832
-0.00124103
0.000544478
-0.011611
-0.00804659
-0.0157526
-0.0573414
-0.0285746
0.00512714
-0.0592346
-0.0702477
0.0091241
-0.0750154
-0.0880224
0.0328858
-0.0662653
-0.0610159
0.004033
-0.00963106
-0.0144299
0.0101366
-0.0417701
-0.0263943
-0.0068283
-0.0260187
0.00261887
-0.0314943
-0.00789062
0.0061972
0.0136624
0.00741078
-0.0260791
0.0407137
-0.00790373
-0.0336196
0.0327318
-0.0321741
-0.0431234
-0.0117368
-0.0384305
-0.043285
-0.00861168
-0.0343807
-0.0466907
-0.0174547
0.00249153
0.00887773
-0.0113093
-0.0462288
0.00376465
-0.0113558
-0.0523439
-0.0331463
-0.0209833
-0.0891883
-0.0805789
0.0015495
-0.0524588
-0.0531054
0.041693
-0.0946512
-0.0845593
0.014493
-0.0724346
-0.0829116
0.0297482
0.0584537
-0.0150518
0.0122034
-0.0101684
0.00358946
-0.0424563
0.00762525
0.0107728
0.061588
-0.036818
-0.0168355
0.011388
0.00938141
0.00639055
0.0262153
0.00993998
0.0148071
0.00961748
0.00903091
0.0186554
0.0105162
-0.00329688
0.0160966
0.0150787
-0.0124403
0.0135903
0.0175136
0.00430978
-0.0064699
-0.00151407
-0.0129533
-0.00552881
0.0126049
-0.014376
0.0133736
0.010216
-0.00671099
0.0134537
0.0262453
0.0206839
-0.000100337
0
0
0
0
0
0
0
0
0
0
0
0
0
0
0
0
0
2.22461e-05
0
0
0
0
0
-1.3946e-05
0
-5.37852e-05
0
-3.00563e-05
0
0
0
0
0.0731933
0
-0.476327
-0.0170073
-0.0243819
-0.0497696
0.197245
-0.102022
-0.12688
-0.0118023
0.112673
0.0574258
-0.0178586
0.0118704
-0.0299677
-0.0728052
-0.0486249
-0.0228292
-0.0148244
0.0129609
-0.039874
0.0227864
0.0044401
0.0550779
0.062312
0.110032
-0.00942916
0.0679876
0.0568936
0.0502468
0.0186093
0.00830099
0.0450857
0.0379632
0.0151694
0.0147541
0.0337896
0.0390842
-0.0170369
0.088634
0.0233734
-0.0320753
0.033258
0.101825
-0.0857287
0.0202183
0.0971068
-0.0722859
0.0753373
0.00908088
0.0754254
0.115661
-0.0112997
-0.0860097
0.0800711
0.0336447
-0.0597319
0.0686147
0.0160968
-0.0593969
0.0613539
0.00468324
-0.0657716
0.0488549
-0.00624156
-0.062721
0.0329743
-0.0147633
-0.0642149
0.0127915
-0.0367937
0.0578013