/*--------------------------------*- C++ -*----------------------------------*\
  =========                 |
  \\      /  F ield         | OpenFOAM: The Open Source CFD Toolbox
   \\    /   O peration     | Website:  https://openfoam.org
    \\  /    A nd           | Version:  8
     \\/     M anipulation  |
\*---------------------------------------------------------------------------*/
FoamFile
{
    version     2.0;
    format      ascii;
    class       volScalarField;
    location    "18120";
    object      H;
}
// * * * * * * * * * * * * * * * * * * * * * * * * * * * * * * * * * * * * * //

dimensions      [0 1 0 0 0 0 0];

internalField   nonuniform List<scalar> 
526318
(
1.67231
1.62525
1.69542
1.61678
1.68345
1.64199
1.64949
1.57448
1.6383
1.50739
1.49561
1.6081
1.5591
1.5908
1.55786
1.5798
1.56019
1.75568
1.65313
1.71053
1.69701
1.65523
1.42378
1.66181
1.54167
1.4111
1.6838
1.68114
1.69091
1.69622
1.73261
1.77042
1.75335
1.63496
1.62741
1.62559
1.61092
1.69584
1.62258
1.57287
1.6252
1.61653
1.2744
1.3272
1.22743
1.28263
1.25529
1.37083
1.55321
1.44763
1.53346
1.55024
1.49283
1.45357
0.95406
1.19679
1.19585
0.993014
1.70603
1.72691
1.74958
1.68991
1.6371
1.77248
1.7591
1.73306
1.70498
1.71436
1.61402
1.61611
1.72154
1.49698
1.55363
1.44612
1.39682
1.38955
1.48819
1.48041
1.40607
1.44003
1.52789
1.51895
1.47621
1.43045
1.46387
1.52552
1.52437
1.50235
1.45805
1.52616
1.43409
1.37944
1.37697
1.306
1.30411
1.30423
1.307
1.30642
1.30255
1.3009
0.737075
0.68291
0.768609
0.801715
0.864612
0.643795
1.21492
1.02357
1.33832
1.30078
1.34785
1.46195
1.68844
1.57563
1.68204
1.69425
1.75903
1.74004
1.77849
1.29646
1.29637
1.29997
1.30416
1.25924
1.2996
1.20948
1.25082
1.16004
1.20853
1.16049
1.15945
1.14886
1.12362
1.1159
1.14322
1.086
1.13852
1.08775
1.10844
1.05514
1.05921
1.08109
1.10957
1.09597
1.05296
1.0532
1.06888
1.05584
1.05214
1.05933
1.0719
1.05881
1.06364
1.06328
1.06266
1.03058
1.06403
1.06303
1.02904
0.985909
1.063
1.01455
1.07195
1.5608
1.65752
1.60281
1.57879
1.39364
1.45758
1.39033
1.39004
1.39462
1.3873
1.41051
1.39328
1.32669
1.2976
1.26353
1.20662
1.2636
1.30775
1.30736
1.30364
1.19532
1.24385
1.13315
1.14147
1.15218
1.14017
1.14441
1.14488
1.13573
1.13556
1.13237
1.123
1.10514
1.12641
1.11877
1.09307
1.0725
1.09829
1.08197
1.07583
1.09566
1.08297
1.08953
1.04876
1.0703
1.09904
1.10001
1.54351
1.57248
1.60149
1.56601
1.55598
1.54838
1.55833
1.41582
1.47464
1.21358
1.18967
1.19075
1.31293
1.44008
1.32786
1.35527
1.36789
1.30529
1.29441
0.793096
0.598274
0.936994
1.13676
0.389972
0.229455
0.530864
0.624386
0.593817
0.598139
1.75321
1.74878
1.79353
1.78329
1.74838
1.73167
1.64904
1.73384
1.58506
1.52656
1.52472
1.53125
1.52323
1.531
1.51989
1.5126
1.43228
1.49557
1.3141
1.36943
1.29879
1.31248
0.106857
0.0343396
0.498607
0.27607
0.777784
0.72112
0.779462
0.928998
1.31191
1.12594
1.36441
1.36065
1.47466
1.56966
1.69674
1.70266
1.72047
1.70662
1.77736
1.80433
1.27668
1.27607
1.23764
1.20757
1.1052
1.14281
1.06972
1.07774
1.06883
1.06524
1.05394
1.05904
0.983383
1.01026
1.04374
1.07945
1.13552
1.10166
1.06583
1.05999
0.99905
0.986191
1.03767
1.09395
1.01416
1.05296
1.05287
1.02242
1.01756
0.988439
0.983114
0.946085
0.945602
0.950526
0.936655
1.06157
1.09922
1.0606
1.10254
1.45298
1.4209
1.32427
1.40814
1.32669
1.37928
1.38701
1.37772
1.39298
1.39147
1.30596
1.21759
1.1466
1.12946
1.20462
1.14577
1.13056
1.24421
1.13339
1.18414
1.1244
1.12282
1.13563
1.12317
1.13919
1.13328
1.13037
1.13606
1.13453
1.13162
1.14323
1.13622
1.15079
1.14579
1.14745
1.12965
1.14096
1.12665
1.09773
1.10108
1.12682
1.15374
1.14789
1.12499
1.10649
1.13317
1.17311
1.17127
1.18535
1.14709
1.17953
1.19576
1.23404
1.18664
1.19294
1.21749
1.25146
1.37998
1.44222
1.35916
1.3891
1.45936
1.53729
1.42651
1.30759
1.42729
1.33026
1.34283
1.07828
1.02989
1.0572
1.04502
1.15801
1.28247
1.21868
1.27874
1.28528
1.31006
1.28108
0.566246
0.699738
0.857056
0.697861
0.937814
0.825825
6.28882e-05
0.116589
0.045245
9.58347e-14
4.9177e-28
0.122121
0.351106
0.584452
0.473312
0.499836
1.77929
1.7808
1.81991
1.80121
1.77744
1.75405
1.67536
1.59239
1.53111
1.5347
1.51856
1.51441
1.49927
1.49814
1.47549
1.47887
1.42792
1.46594
1.39115
1.33512
1.27845
1.23557
0.000943167
0.00107252
0.00107252
0.000663073
0.000635555
0.000731205
0.00058049
0.00107252
0.00107257
0.00107252
0.00100247
0.00100984
0.000550093
0.00100942
1.32992e-05
3.73945e-05
0.0146845
0.108799
0.122627
0.284156
0.743895
0.52766
0.844104
0.817677
1.01345
0.863451
1.22487
1.38247
1.39916
1.48822
1.70622
1.60115
1.72777
1.7178
1.7321
1.77398
1.79197
1.80901
1.19561
1.19244
1.14596
1.17701
1.11614
1.07747
1.07069
1.07027
1.0647
1.07007
1.02165
1.01583
0.962341
0.977968
1.03122
1.00579
0.975744
1.02435
1.01924
1.03976
0.946239
0.937744
0.960529
0.969937
0.973459
0.927998
0.935764
0.928799
0.936701
0.91893
0.916397
1.21865
1.19222
1.19232
1.19188
1.21231
1.31835
1.27579
1.25648
1.14
1.18332
1.16968
1.1719
1.07152
1.00827
1.18157
1.29486
1.18492
1.19284
1.18051
1.2512
1.23196
1.30962
1.34077
1.26545
1.24541
1.27898
1.15701
1.1304
1.12893
1.12961
1.04481
1.09818
1.02378
0.974743
0.956343
1.07496
1.07563
1.12601
1.12512
1.12493
1.12841
1.12311
1.13073
1.12557
1.13852
1.1299
1.15049
1.14231
1.1482
1.15138
1.17557
1.15884
1.18578
1.18699
1.13501
1.12157
1.18329
1.16879
1.15627
1.17202
1.15628
1.14321
1.19388
1.17273
1.27654
1.28431
1.23545
1.27574
1.28667
1.25314
1.3442
1.31609
1.38314
1.40331
1.42861
1.34732
1.3472
1.34494
1.30798
1.31772
1.26161
1.37017
1.20264
1.18017
1.22913
1.25081
0.929742
0.970941
1.06207
1.17322
1.21174
1.24655
1.15306
1.11731
1.07946
1.02442
0.387451
0.469814
0.74445
0.546836
0.862342
0.918081
0.000993891
0.000234006
0.00100979
0.000545241
0.0221583
7.22163e-07
0.412797
0.168449
0.328987
0.33734
0.000766556
0.000551352
0.000138864
0.000388285
0.00097475
0.00101
0.000140003
0.000999779
0.000887004
0.000424178
0.0011369
0.000774738
0.000977429
0.00113673
0.00113673
0.00113674
0.000919686
0.000999494
0.0009727
0.000201819
9.59135e-05
0.000989075
0.000892979
0.0009482
0.00100959
0.000881287
0.00100965
0.000996543
2.65749e-05
0.000931251
1.78137
1.7955
1.81827
1.80066
1.78356
1.71541
1.52179
1.60938
1.5006
1.49603
1.47227
1.47958
1.47146
1.468
1.46608
1.46355
1.4054
1.37794
1.2784
1.31635
1.17101
1.21555
0.000902499
0.000636742
0.000948563
0.000967574
0.000969466
0.000982262
0.000984313
0.000870723
0.00101
0.000943531
0.000677989
0.000965569
0.000971308
0.000759356
0.000380116
0.000991326
0.000690401
0.00100737
0.000803925
0.000839513
0.000369052
0.000975289
0.000889611
0.00038544
0.000794706
0.0429191
0.207871
0.179498
0.250164
0.426735
0.880834
0.681763
0.900949
0.899734
1.19702
1.03097
1.40543
1.36737
1.43098
1.53897
1.64239
1.72028
1.73415
1.72169
1.76729
1.79855
1.77416
1.76814
0.00113872
0.000875321
0.000886173
0.000221707
0.000686266
0.000987943
0.00081396
0.000938951
0.000890554
0.000725685
0.000975785
0.00092383
0.000794854
2.99799e-07
0.000880516
0.00101
0.000170373
1.17602
1.1699
1.17791
1.13776
1.06201
1.09894
1.02289
1.01506
0.978629
0.972666
0.927659
0.927009
0.957235
0.952449
0.914361
0.94711
0.944807
0.994076
0.976049
0.976184
0.897633
0.867915
0.86707
0.910605
0.92038
0.917432
0.894009
0.900282
0.860969
0.848572
0.811561
0.818343
1.41593
1.3819
1.42414
1.43188
1.3823
1.33811
1.50596
1.5292
1.5931
1.60052
1.15062
1.19055
1.24108
1.32475
1.1472
1.0944
1.12864
1.13001
0.967924
1.01938
1.07831
0.956403
1.16632
1.1715
1.16828
1.17336
1.18868
1.16819
1.18189
1.20143
1.0787
1.07605
0.973695
1.05962
1.05051
1.01133
0.959789
0.981739
0.922461
0.941587
0.922484
1.01033
1.07356
1.00393
1.07016
1.127
1.1248
1.12322
1.1261
1.13023
1.14955
1.1438
1.15996
1.15606
1.17641
1.16816
1.18978
1.1902
1.19078
1.18937
1.19861
1.19475
1.23375
1.20481
1.17326
1.17113
1.23919
1.20553
1.2134
1.25117
1.29459
1.29487
1.29357
1.29316
1.32585
1.37901
1.44087
1.4604
1.46986
1.4465
1.58878
1.52811
1.65556
1.69588
1.68418
1.72514
1.77903
1.64309
1.73255
1.75347
1.83132
1.87967
1.90372
1.92594
1.95659
1.89755
1.95422
1.91128
1.99223
1.99356
2.04047
2.00895
2.07087
2.1006
2.09117
2.03942
2.1044
2.12765
2.09418
2.09201
2.15583
2.13254
2.1653
2.10417
2.10689
2.16846
2.13834
2.08903
2.09225
2.1241
2.15321
1.14714
1.11373
1.28996
1.27832
1.24347
1.23094
1.23128
1.00329
1.13482
0.844946
0.873733
0.977381
0.9636
0.836096
0.911841
0.902017
1.07799
0.983353
0.979434
0.891235
0.889012
0.903074
0.917705
0.445736
0.320303
0.706641
0.513554
0.704276
0.663011
0.00101
0.000966006
0.000995857
0.000384139
0.000355646
0.00027087
0.0382576
0.284685
0.182814
0.215338
0.000261077
0.00069126
0.000943677
0.000831092
0.00137528
0.000459415
0.00012748
0.000146108
0.000949
0.000431299
6.93167e-06
1.61879e-05
0.000990101
0.00093513
0.00100829
0.000658273
0.000911134
0.000410555
0.0010095
0.000975406
0.000923967
0.00102209
0.00068766
0.00101625
0.000974989
0.000924573
0.00101
0.00057983
0.000978791
0.000926142
0.00102469
0.00102193
0.000972583
0.00102365
0.00102284
0.00102309
0.00046868
0.000534903
0.000993933
0.000773625
0.000877713
0.00099375
0.000922247
0.000776475
0.0010078
0.000994205
0.000136415
0.000956593
0.000950381
0.000921886
0.000915695
0.000919934
0.000616217
0.00101
0.000623175
0.000968314
1.7709
1.75142
1.73744
1.72278
1.64583
1.71788
1.54445
1.4786
1.47251
1.47117
1.47088
1.47035
1.41048
1.4134
1.25292
1.21641
1.17043
1.35177
1.3452
1.29862
1.29934
1.29426
0.00081225
0.000380293
0.00115023
0.00115022
0.000962471
0.000414864
0.00093308
0.000410365
0.00115024
0.000914441
0.000161511
0.00100893
0.000972717
0.000941946
0.000297472
0.000985833
0.000726155
0.00091818
0.000127626
8.99251e-05
0.27152
0.0983604
0.313554
0.300828
0.541431
0.351416
0.744633
0.897796
1.02904
0.900845
1.19456
1.36457
1.39292
1.42366
1.50868
1.61706
1.68516
1.65609
1.69249
1.63973
1.69625
1.72866
1.68669
1.6883
0.00101
0.000865295
0.00100993
0.000849207
0.000924318
0.00119188
0.000759997
0.000801865
0.00119188
0.000964874
0.000981161
0.000996251
5.86801e-06
1.51015e-05
0.00101
0.000411253
9.2933e-15
0.00072123
0.00101
0.000253336
0.000277025
0.000765241
0.00096459
0.000879022
0.00220897
0.00101051
1.14588
1.15054
1.06933
1.0887
0.965966
0.988882
0.925676
0.925269
0.923753
0.924932
0.899242
0.899639
0.870853
0.871517
0.849448
0.887003
0.966831
0.928761
0.967851
0.966438
0.785953
0.807396
0.848977
0.828517
0.839512
0.842967
0.789174
0.783311
0.768216
0.779362
0.785526
0.784928
1.63744
1.63578
1.46625
1.37909
1.36763
1.35398
1.63509
1.54645
1.79112
1.86926
1.765
1.68742
1.88267
1.86284
1.92983
1.97899
2.00865
2.00882
2.0361
2.01063
2.06636
2.08977
2.08867
2.08566
2.10615
2.09191
2.08916
2.13513
2.07967
2.07709
1.19937
1.12834
1.26951
1.34202
1.12666
1.07542
1.12775
1.12851
0.956553
1.00895
0.84866
1.01114
0.901246
1.1681
1.11704
1.17727
1.16863
1.1674
1.06109
0.970381
0.89052
0.874405
0.890491
0.926027
0.853178
0.841289
0.768111
0.853742
0.935341
0.92879
0.850111
0.95206
1.02127
0.962768
1.07275
1.0159
1.05958
1.11641
1.15113
1.13086
1.16592
1.16282
1.17499
1.16607
1.19698
1.2076
1.20546
1.21957
1.22484
1.22602
1.2611
1.27194
1.26193
1.25657
1.25844
1.25438
1.27324
1.28574
1.33278
1.32359
1.29405
1.32551
1.31983
1.3523
1.38748
1.4499
1.48049
1.48067
1.49186
1.55965
1.64397
1.71487
1.73112
1.85551
1.72952
1.78297
1.93323
1.95465
1.95706
1.99163
2.04241
2.08926
2.10164
2.10297
2.13205
2.1591
2.18599
2.18601
2.18727
2.18598
2.18587
2.17034
2.10347
2.16789
2.13868
2.09161
2.09013
2.12442
2.15424
2.16457
2.09191
2.15365
2.1118
0.937666
0.929681
1.00146
1.07675
0.965987
1.03096
1.17496
1.11016
1.13456
0.976428
0.872124
0.848032
0.837186
0.939865
0.930559
0.583042
0.70263
0.892739
0.768389
0.882389
0.889076
0.89556
0.889917
0.905957
0.921079
0.117547
0.258141
0.36377
0.535834
0.566829
0.554784
0.00086849
0.000172666
0.000348616
0.00101
0.000483007
0.000511672
0.000140611
0.000212427
0.0247394
0.000952358
0.000502729
0.00137507
0.000928609
0.00101
0.000882358
0.000660221
0.000998234
0.000701989
0.000938544
0.000874495
0.00105183
0.000943184
0.000791252
0.000751098
0.000990039
7.57449e-05
0.00099613
0.000976554
0.000151024
0.000599779
0.000544652
0.000936558
0.000852461
0.000994642
0.000971024
0.001002
0.000978339
0.000944855
0.000974885
0.00092222
0.000207016
0.000979907
0.000919067
0.00101
0.000732523
0.00100962
0.000641972
0.000367709
0.000916152
0.000960434
0.000965348
0.000892128
0.000581413
0.000479733
1.67394
1.66955
1.6695
1.6639
1.60618
1.65873
1.46676
1.52701
1.43223
1.42942
1.37411
1.35731
1.30153
1.30333
1.21025
1.10988
1.08386
1.25434
1.29771
1.29853
1.29467
1.2993
0.00115029
0.000969922
0.00115029
0.000750777
0.000973634
0.000973647
0.00094649
0.000972052
0.00100548
0.000830393
0.000135327
0.000443538
0.00093376
0.000997208
0.00060297
0.00100999
0.00098232
3.53596e-05
0.000243644
0.000530184
0.163631
0.304758
0.363562
0.331784
0.532671
0.707139
0.862077
0.89907
1.09474
0.926278
1.23484
1.36511
1.34126
1.44845
1.6144
1.51762
1.60044
1.59699
1.58218
1.61196
1.6814
1.66473
1.67966
1.64858
0.000769413
0.000922585
0.000563688
0.000958878
0.000712787
0.000933944
0.000627141
0.000452485
0.000820883
0.000879841
0.000957505
0.000856862
0.000968979
3.857e-21
0.000922039
0.000873917
0.00096514
0.000987798
0.000743529
0.00100999
0.000468733
1.44699e-09
0.00206948
0.000901385
0.00101
0.000860782
0.000668131
0.000489708
0.000136748
2.19568e-18
0.00098545
1.02427
1.02546
0.990349
0.968129
0.924888
0.947013
0.912729
0.912848
1.06808
1.01024
0.988887
0.842904
0.851793
0.783927
0.785204
0.848673
0.850654
0.842005
0.880739
0.941199
0.894753
0.929673
0.914215
0.807988
0.787312
0.80308
0.822978
0.750949
0.75063
0.751406
0.761629
0.776184
0.764898
0.728025
0.73719
2.20717
2.21963
2.24781
2.21985
2.27025
2.25386
2.28204
2.26766
2.32503
2.31171
2.28201
2.33289
2.29435
2.35119
2.17972
2.13129
2.15191
2.20079
2.1821
2.15068
2.15498
2.20725
2.21028
2.18645
2.16681
2.21916
2.20308
2.21107
2.23748
2.09083
2.08964
2.09035
2.08872
2.10696
2.13017
1.68339
1.62724
1.5254
1.42862
1.34128
1.41797
1.61893
1.60097
1.83864
1.86407
1.749
1.83201
1.87054
1.91955
1.96763
2.00872
2.00766
2.00751
2.00644
2.03446
2.04975
2.07363
2.06228
2.06376
2.06772
2.07689
2.05498
2.05494
1.24954
1.17854
1.12158
1.11187
1.16934
1.34239
1.32042
1.0503
1.10742
0.979821
0.91239
2.19823
2.21735
2.23437
2.24034
2.24491
2.25546
2.25952
2.28604
2.27218
2.28907
2.28601
2.34017
2.36187
2.38708
2.38716
2.39251
2.4038
2.42439
0.891289
0.837012
0.844267
1.09694
0.988382
1.15644
1.0544
0.979208
0.877811
0.874579
0.874261
0.875962
0.72764
0.804055
0.65936
0.676057
0.757883
0.681479
0.941888
0.874083
0.770659
0.967546
0.96301
0.968669
1.02315
0.976573
1.10327
1.05232
1.13603
1.1068
1.14226
1.16207
1.18878
1.20894
1.23075
1.23173
1.23906
1.233
1.29041
1.27836
1.27506
1.27129
1.32367
1.29774
1.36589
1.33012
1.3123
1.35227
1.39673
1.38557
1.41095
1.44733
1.44704
1.39246
1.50302
1.53118
1.50249
1.49182
1.5749
1.65708
1.73142
1.79777
1.74594
1.76314
1.89262
1.94968
1.99433
1.97323
2.0395
2.0685
2.10885
2.12664
2.12008
2.13757
2.19505
2.17717
2.18822
2.19758
2.18871
2.18738
2.18839
2.1867
2.18879
2.18663
2.1866
0.924681
0.908149
0.93416
0.854549
0.879191
0.890232
0.83435
0.966904
0.877657
0.814801
0.826054
0.806849
0.724919
0.825041
0.831339
0.61991
0.606604
0.555542
0.679302
0.892319
0.768117
0.783355
0.781874
0.568478
0.469328
0.257814
0.276181
0.191277
0.0202571
0.0245493
0.570594
0.387845
0.558673
0.557982
0.000776109
0.00096702
0.000896738
0.000998449
0.00026155
0.000888291
0.00100984
0.000876435
0.0191303
0.000942487
0.000398457
0.000668916
0.00101
0.000330569
0.000740386
1.32257e-19
7.8653e-13
0.00239709
0.000379096
0.000850418
0.000694792
0.000545923
0.000997667
0.0003892
0.00100993
0.000972649
0.000977525
0.000963111
0.000999516
0.000745086
0.00101281
0.000937607
0.000733578
0.000959828
0.000648762
0.00101301
0.00089779
0.000955844
0.000631827
0.000258775
0.000726513
0.000964465
0.000941166
0.000838222
0.00101
0.000334973
0.000769708
0.000685233
0.000978177
0.000925692
0.000935309
0.000880013
0.00091709
0.000695524
0.000567275
0.00214882
0.000166849
0.000674617
0.000835469
0.000897005
0.00214878
2.38548
2.34593
2.30864
2.41951
2.45535
2.45247
1.66569
1.6613
1.65266
1.64473
1.56331
1.6355
1.47183
1.39112
1.31741
1.33167
1.29736
1.29637
1.30271
1.29984
1.17407
1.09535
1.18543
1.26063
1.26161
0.00093523
0.000755959
0.000875173
0.000890082
0.000922295
0.0009764
0.000965395
0.000493094
0.000931051
0.000554111
0.00100943
0.000959595
0.000969088
0.86068
0.893537
0.925654
0.00100998
0.000498781
0.000716411
0.000915723
0.156989
0.0336405
0.329991
0.357661
0.516302
0.38835
0.693405
1.06494
1.20902
1.323
1.3181
1.63547
1.55331
1.57247
1.35671
1.44906
1.53739
1.58537
1.59647
1.59169
1.60286
1.63848
1.61907
0.000688907
0.00117139
0.000627563
0.000982796
0.000704864
0.000720222
0.00100904
0.000845157
0.00071885
0.000865554
0.000823186
0.000932446
0.000763197
0.000831138
0.000896425
0.000477651
0.000627663
0.00100504
0.000978863
0.000935387
0.000938185
0.000682923
0.000770427
0.000937995
0.000997599
0.000978674
0.000347723
0.000953032
0.000978459
0.000973622
0.00101
0.000984843
0.000871643
0.000978065
0.000827832
0.000965221
0.000811322
1.0251
1.06007
1.04942
0.988985
0.989649
0.960126
0.982882
0.849455
0.878838
0.790651
0.790119
0.995393
0.982427
0.743646
0.742295
0.743798
0.74858
0.800293
0.780898
0.818532
0.764135
0.888622
0.839334
0.887583
0.898328
0.729803
0.684733
0.706834
0.739506
0.714468
0.717669
0.65603
0.696084
0.67912
0.658017
0.634311
0.635231
2.20918
2.22449
2.24904
2.26512
2.27332
2.27393
2.32583
2.29562
2.14478
2.14102
2.12483
2.14764
2.17966
2.14006
2.18136
2.15964
2.07712
2.06393
2.06185
2.09552
2.12491
2.09576
1.68831
1.61061
1.50506
1.59514
1.44282
1.35368
1.60708
1.60765
1.84628
1.84993
1.86491
1.7613
1.83918
1.95249
1.8982
1.84081
1.88339
1.98515
1.99771
1.98986
1.99483
2.00412
2.02612
2.05372
2.04393
2.054
2.05335
2.05265
2.05134
2.05213
2.05381
1.09428
1.09974
1.2371
1.31891
1.09751
1.18006
1.33457
1.35057
1.08831
1.02916
0.939682
1.00745
2.22808
2.1878
2.20516
2.25116
2.24863
2.24999
2.26085
2.28191
2.3044
2.31673
2.31584
2.32093
2.34551
2.38445
2.36885
2.3885
2.40528
2.4516
2.42818
2.25619
2.26679
2.28342
2.45533
2.45622
2.4566
0.836821
0.840923
0.831555
0.808503
0.903436
0.92327
0.721508
0.765499
0.79573
0.683547
0.721126
0.722912
0.654341
0.65446
0.654561
0.661355
0.689989
0.71949
0.819579
0.753116
0.748651
0.897486
0.97255
0.882802
1.04365
1.0678
1.00084
1.04135
1.1001
1.07351
1.19231
1.1406
1.20919
1.21982
1.22879
1.21891
1.26784
1.30796
1.34542
1.34565
1.35333
1.34088
1.36526
1.34773
1.39694
1.39795
1.42242
1.42459
1.39964
1.40015
1.52076
1.56852
1.46529
1.52946
1.57703
1.54142
1.64075
1.68758
1.78564
1.825
1.80201
1.89351
1.94769
2.04728
2.03206
2.09011
2.06536
2.15935
2.16418
2.15662
2.18696
2.21511
2.21271
2.2698
2.23347
2.26219
2.22429
2.22415
2.26024
2.19183
2.22791
2.19067
0.297826
0.60073
0.294643
0.574699
0.843678
0.825039
0.836568
0.807197
0.837818
0.683297
0.576948
0.57187
0.484896
0.672272
0.567752
0.586842
0.695695
7.52536e-07
0.000620618
0.336447
0.477319
0.460549
0.2584
0.133573
0.14006
0.000816146
1.97911e-07
8.27541e-06
0.0192969
0.015898
0.000915112
0.109408
0.0113153
0.273307
0.0658394
0.000664041
0.0010004
0.000112849
0.00044385
0.000919656
1.74432e-15
0.000297927
0.00221927
5.49728e-14
0.000984734
0.000230499
0.0009581
0.000364482
0.00101
0.000172236
0.000980786
0.00220527
0.000998315
0.000134455
0.00096781
0.00100982
0.00134796
0.000357112
0.00100983
0.000979813
0.000465046
0.000983408
0.00101
0.000808151
0.00101254
0.00101201
0.000896998
0.000917338
0.00101176
0.00101214
0.000955402
0.000809009
0.000711032
0.000919589
0.00166062
6.55855e-05
0.00166052
0.000758779
0.00098702
0.000966821
0.00099923
0.00100984
0.00101
0.00100994
0.000799141
0.000805878
0.000827454
1.20946e-05
9.12481e-06
0
0.00090453
0.000799517
0.000430028
0.000835165
0.00134791
0.000898711
0.00100958
0.00100997
0.000735745
0.000998553
0.000946811
0.000914726
0.00101
2.36535
2.34343
2.34945
2.35718
2.38828
2.49441
2.46876
2.47612
2.49849
2.4395
1.56754
1.55621
1.49572
1.48914
1.45725
1.48058
1.39188
1.34369
1.34138
1.30289
1.2687
1.26803
1.18157
1.19705
1.06554
1.10325
1.1067
0.000529692
0.000965684
0.000913493
0.00101
0.000949844
0.000924031
0.000585991
0.895042
1.03593
0.8936
0.000919443
0.000220381
0.000959565
0.000979614
0.759335
0.597188
0.000921689
0.000973661
0.000772033
0.0694686
0.367142
0.21137
0.401125
0.403874
0.42975
1.4396
1.44885
1.48771
1.17856
1.31833
1.31789
1.3532
1.47686
1.54527
1.50974
1.418
1.493
1.51669
1.52259
1.45372
1.48567
0.000957717
0.0009803
0.00117143
0.00101
0.000641114
0.000823908
0.00101
0.00117354
0.000945395
0.000977785
0.000160682
0.000986054
0.000875008
0.000936631
0.000510229
0.00104101
0.000977643
0.00104129
0.00104115
0.00101
0.000771965
0.000895476
0.000833864
0.000976221
0.00092185
0.00100577
0
0
0
0.000679208
0.0011076
0.000996457
0.00100563
0.000944429
0.000473953
0.000911195
0.000978965
0.000968087
0.00097325
0.000338297
0.000895901
0.000914242
0.000926795
0.000859264
0.00104111
1.04275
1.0549
1.06315
0.929844
0.952134
0.909785
0.910434
0.83942
0.828176
0.742765
0.75597
0.740699
0.743985
0.842471
0.838789
0.690405
0.688525
0.654489
0.63175
0.730799
0.721848
0.747325
0.804358
0.884443
0.847266
0.914558
0.865515
0.667879
0.63659
0.695975
0.723677
0.598656
0.594891
0.570377
0.595039
0.635835
0.613959
0.632763
0.637726
2.21974
2.16701
2.2581
2.20563
2.22404
2.26724
2.23572
2.30531
2.24822
2.33372
2.28407
2.27987
2.34106
2.31789
2.10701
2.10966
2.09728
2.11278
2.12447
2.13772
2.13652
2.15024
2.05236
2.04965
2.07545
2.05682
2.0872
2.09845
1.69041
1.6126
1.53111
1.60773
1.40278
1.4956
1.60786
1.61455
1.83858
1.83935
1.84136
1.76856
1.92841
1.97568
1.88653
1.83895
1.98184
1.98189
1.99606
1.98204
2.01901
2.04261
2.04998
2.05231
2.05267
2.04752
2.05047
2.05291
2.05196
2.04676
1.0948
1.08702
1.25493
1.33221
1.23542
1.15222
1.3876
1.33053
1.06258
1.08896
1.05837
0.973095
2.22761
2.26292
2.24626
2.27052
2.2893
2.27793
2.31274
2.32467
2.30179
2.31642
2.305
2.31647
2.3215
2.34543
2.36963
2.38483
2.38622
2.43774
2.41519
2.46483
2.47245
2.33861
2.35115
2.47113
2.48164
0.574858
0.733497
0.594431
0.708633
0.629552
0.608053
0.567126
0.537567
0.56051
0.592003
0.489178
0.540012
0.538925
0.434863
0.494519
0.634384
0.75114
0.665995
0.758812
0.757767
0.749762
0.823657
0.968934
0.87256
1.05685
1.06091
1.02457
0.974312
1.09792
1.1361
1.19261
1.18569
1.20377
1.19498
1.31354
1.26052
1.36162
1.35587
1.38045
1.38873
1.35869
1.4186
1.46271
1.43652
1.41844
1.44722
1.49728
1.48259
1.46318
1.50652
1.59163
1.59283
1.5853
1.60555
1.73806
1.65147
1.82232
1.84944
1.84909
1.91645
1.99189
2.06778
2.07499
2.08681
2.13292
2.18086
2.21659
2.21625
2.25412
2.229
2.28176
2.29534
2.2975
2.29577
2.29747
2.29604
2.2643
2.297
2.26432
0.000822813
3.02435e-06
0.00399108
0.00073451
0.23631
0.537957
0.239865
0.705931
0.57339
0.579886
0.423463
0.43709
0.444426
0.43148
0.456461
0.460676
0.435936
0.434953
0.449173
0.00358639
0.000996337
0.000797805
5.10878e-23
6.59133e-25
0.000344384
0.000893012
0.000589735
0.000451392
4.65658e-05
0.000167511
0.000993637
0.000687571
6.27611e-14
4.3883e-09
0.00101
0.00224707
4.55377e-05
0.000959982
0.00100986
0.000887496
0.000962023
0.000978086
0.00188689
0.000995926
0.000146754
1.36216e-05
0.000607696
0.00096357
0.000988249
0.000479144
0.000826696
0.000961729
0.00100941
0.00031059
2.80216e-05
0.000987756
0.00100992
0.000817418
0.000560979
0.000649221
0.00101
0.000799183
0.00097087
0.000279366
0.000905419
0.000941315
0.000860275
0.0010008
0.000939674
0.000880492
0.000886752
0.00100949
0.00097168
0.000773375
0.000984106
0.000952799
0.000472947
0.00098992
0.000934564
0.000964099
0.000974876
0.000974485
0.00101
0.00099424
0.000905098
0.000464111
0
0
0
0
0
0
0
0
0
0
0
0
0
0
0
0
0
0
0
0.00099334
0.000879602
0.000937661
0.000812305
0.000919372
0.000434354
0.000930589
0.00106313
0.000325168
0.000811332
0.000803822
0.000885277
2.52369
2.51191
2.53007
2.52502
2.53493
2.5317
2.36635
2.366
2.44092
2.40292
2.49263
2.52017
2.48711
2.38028
2.36546
1.43717
1.43435
1.43082
1.4248
1.43724
1.3576
1.39971
1.19417
1.25386
1.1128
1.11371
1.06326
1.06258
1.0639
4.53839e-05
0.000724691
0.000495047
0.000982711
0.867322
1.06048
0.892975
0.000948865
0.000967043
0.848234
0.74099
0.000977274
0.00068049
0.000970402
0.000977458
0.441726
0.58354
0.000888882
0.000762358
0.104926
0.000963463
0.403073
0.263417
0.413336
1.42545
1.43155
1.43964
1.429
1.43921
1.14452
1.26313
1.20238
1.32323
1.38627
1.4166
1.34195
1.42919
1.37939
1.37913
1.3569
0.000954778
0.00107938
0.000926207
0.000970576
0.000973219
0.000935143
0.000635378
0.00101448
0.000148858
0.000884439
0.00100352
0.000773634
6.02936e-05
0.000674784
0.000939885
3.00262e-06
0.00100355
0.000455448
0.000833417
0.000753516
0.00086094
0.00099518
0.000740767
0.000908685
0.000621516
0.00100955
0.000627569
0.000973579
0.000348921
2.15212e-05
0
0
0
0
0
0.000833148
0.00110749
0.000978274
0.00110743
0.000988902
0.000872265
0.000778917
0.000862849
0.00098805
0.000779721
0.00093197
0.000953825
0.000920637
0.000104407
0.000406674
0.000614577
0
0
0
0
0
0
1.04196
0.970213
0.956246
0.888756
0.878629
0.797255
0.784141
0.7748
0.772933
0.765135
0.775232
0.702717
0.7155
0.637448
0.625497
0.775019
0.776445
0.5654
0.557264
0.562589
0.570147
0.845459
0.908741
0.826036
0.723407
0.701811
0.782948
0.7117
0.796795
0.634845
0.603928
0.663869
0.618226
0.573745
0.570785
0.562282
0.586408
0.582593
0.555386
0.547002
0.530246
2.15109
2.16211
2.17961
2.18335
2.18688
2.19091
2.29165
2.27408
2.24968
2.21518
2.32671
2.27829
2.26929
2.09951
2.09588
2.12624
2.11166
2.13433
2.13685
2.16583
2.14455
2.04915
2.05937
2.08237
2.06297
2.07872
2.08937
1.72951
1.65069
1.57269
1.6095
1.55648
1.46231
1.64667
1.60948
1.84381
1.84359
1.80377
1.84888
1.93521
1.9837
1.84602
1.89292
1.98523
1.9838
2.007
1.98606
2.02708
2.04761
2.04522
2.04728
2.04531
2.04748
2.04998
2.04539
2.04473
2.04689
1.08453
1.14788
1.33238
1.30858
1.23053
1.3161
1.33213
1.40882
1.0806
1.07306
1.06872
0.984359
0.823435
0.865214
0.948003
2.29584
2.29939
2.32572
2.31824
2.34191
2.35341
2.35355
2.354
2.39033
2.37025
2.38299
2.34971
2.38146
2.39098
2.41691
2.43681
2.45004
2.44718
2.49719
2.49997
2.52271
2.50005
2.41043
2.41589
2.5363
2.53346
0.361441
0.427634
0.290842
0.537325
0.444926
0.530619
0.535345
0.519741
0.453117
0.382734
0.320146
0.320014
0.342739
0.399569
0.570568
0.473402
0.45332
0.653336
0.809845
0.770522
0.622263
0.861667
0.905368
0.923904
0.904393
1.00957
1.07599
0.956053
1.17824
1.11912
1.1881
1.18934
1.27957
1.21844
1.33894
1.37496
1.37256
1.37158
1.50238
1.46183
1.43002
1.48704
1.514
1.50692
1.49847
1.49034
1.50513
1.50527
1.58618
1.62847
1.66908
1.62417
1.66755
1.69392
1.83622
1.76799
1.86142
1.84962
1.92936
2.00509
2.09051
2.08624
2.12054
2.15846
2.23411
2.22221
2.24608
2.25075
2.27966
2.28907
2.30843
2.29998
2.31265
2.30667
2.29628
2.3102
2.29501
2.29742
0.000973489
0.000862298
0.00101
0.00067133
0.000583205
5.4207e-21
0.000509168
0.0535991
0.000969643
0.451881
0.464552
0.00150162
0.184938
0.418081
0.430517
0.450417
0.432639
0.437747
0.4346
0.368427
0.27454
0.00100986
0.000648283
0.000938422
0.000788581
0.00100179
0.000616531
0.000997704
0.000180038
0.000954666
0.000624923
0.00101
0.000209386
0.000613088
0.00100863
0.00198117
0.000992665
0.000918269
0.00098002
0.00365867
4.39685e-05
0.000210438
0.00024578
0.00100938
0.00081657
6.4021e-09
0.000999846
0.00100983
0.000216328
0.000848872
0.00100647
0.000131712
0.00100976
0.000959372
0.000155599
0.000986414
0.000975827
0.000989729
0.0035987
0.000980885
0.000655125
0.00098777
0.000776699
0.000636538
0.00129452
0.00129444
0.00129446
0.000900202
0.000946957
0.000832782
0.000987787
0.000948013
0.000941776
0.000961192
0.000871734
0.000897996
0.000947049
0.000951887
0.000925848
1.67713e-05
0.000881191
0.00092376
0.0003855
0.000414352
0.00098456
0
0
0
0
0
0
0
0
0
0
0
0
0
0
0
0
0
0
0
0.000869836
0.000943785
0.00101
0.000948967
0.00156582
0.000652387
0.00107596
0.000895755
0.00106225
0.000903446
0.000736427
0.000991424
2.54527
2.56894
2.57591
2.5295
2.53789
2.52419
2.53169
2.40945
2.43926
2.45787
2.4686
2.46259
2.50048
2.52943
2.36335
2.40841
2.3292
2.36814
2.36961
1.42993
1.42264
1.33013
1.29211
1.39573
1.32646
1.33182
1.19259
1.22263
1.08701
1.06068
1.06299
1.06206
1.03875
0.000942185
0.000660908
0.978785
1.08967
0.866195
0.000952845
0.000974084
0.822327
0.820548
0.000671453
0.000632291
0.559771
0.698886
0.000645533
0.000907269
0.000600648
0.000773735
0.419092
0.429758
0.016054
0.048084
0.101099
0.189642
0.347698
1.39573
1.44377
1.41503
1.37793
1.15218
1.14977
1.17343
1.24297
1.3651
1.36573
1.31256
1.3549
1.36563
0.00100999
0.00060532
0.000473483
0.000951636
0.000983083
0.000986674
0.00109907
0.00109799
0.00032278
0.000835793
0.000166837
0.0218476
0.0189829
0.0334119
0.074847
0.111666
0.0663948
0.156091
0.11318
0.0630866
0.10937
0.114614
0.112287
0.000995064
0.000851307
0.00110779
0.000570634
0.00039799
0.00101
0.000988953
3.7271e-05
0.000733696
0
0
0
0
0
0.000500823
0.000891535
0.000776104
0.000527547
0.000853662
0.000543471
0.0422532
0.0756997
0.131186
0.000248083
0.000377846
0.000173986
0.238067
0.109282
0.150378
0.191751
0
0
0
0
0
0
0
0
0
0
0.959583
0.870949
0.87646
0.813134
0.813449
0.789415
0.805174
0.777257
0.81615
0.741038
0.742645
0.648152
0.667107
0.575784
0.576805
0.549516
0.547391
0.696875
0.667487
0.556405
0.544218
0.553024
0.54119
0.770302
0.8124
0.652855
0.623111
0.695856
0.813414
0.871553
0.827162
0.557145
0.515414
0.580561
0.604633
0.502714
0.483528
0.478937
0.442584
0.476735
0.452552
0.478856
0.49542
2.24948
2.18179
2.20711
2.21219
2.13472
2.21553
2.22695
2.24232
2.24906
2.29305
2.23307
2.32522
2.29442
2.35769
2.07896
2.10209
2.0978
2.12048
2.10203
2.13128
2.12911
2.11825
2.04468
2.0566
2.06131
2.07243
2.07019
2.07166
1.78427
1.70266
1.59116
1.61075
1.51197
1.60483
1.61553
1.67454
1.85136
1.85
1.85168
1.82723
1.94094
1.98787
1.90824
1.86108
1.98766
1.98859
1.99435
2.01467
2.04627
2.03245
2.04698
2.04482
2.04522
2.04692
2.04632
2.04418
2.04659
2.0454
1.16817
1.0717
1.3403
1.34113
1.25282
1.34858
1.34291
1.44506
1.06646
1.06993
1.04705
1.02826
0.969109
1.06851
2.30949
2.32752