/*--------------------------------*- C++ -*----------------------------------*\
  =========                 |
  \\      /  F ield         | OpenFOAM: The Open Source CFD Toolbox
   \\    /   O peration     | Website:  https://openfoam.org
    \\  /    A nd           | Version:  8
     \\/     M anipulation  |
\*---------------------------------------------------------------------------*/
FoamFile
{
    version     2.0;
    format      ascii;
    class       volScalarField;
    location    "19560";
    object      H;
}
// * * * * * * * * * * * * * * * * * * * * * * * * * * * * * * * * * * * * * //

dimensions      [0 1 0 0 0 0 0];

internalField   nonuniform List<scalar> 
526318
(
1.8021
1.76515
1.84093
1.74934
1.81692
1.77434
1.79414
1.70382
1.76368
1.64462
1.62672
1.747
1.69724
1.74305
1.68839
1.72165
1.69258
1.88928
1.80913
1.83987
1.84822
1.7923
1.56172
1.8
1.68869
1.54491
1.81923
1.81883
1.8185
1.83485
1.86343
1.90739
1.89033
1.7686
1.78863
1.71851
1.74924
1.85281
1.77051
1.6986
1.77326
1.73817
1.40582
1.4633
1.36755
1.41323
1.38607
1.51795
1.70116
1.59499
1.68123
1.66946
1.63113
1.59071
1.08627
1.33685
1.3299
1.13281
1.85772
1.85711
1.87654
1.83912
1.78383
1.9002
1.90524
1.85227
1.85708
1.84797
1.74788
1.728
1.85692
1.63791
1.68927
1.57982
1.54531
1.53304
1.636
1.62925
1.53319
1.57625
1.65043
1.65989
1.61583
1.56619
1.60042
1.66543
1.66617
1.64474
1.5889
1.66775
1.56333
1.51905
1.51532
1.44388
1.44112
1.44798
1.44374
1.43795
1.43555
1.43935
0.874404
0.814923
0.903809
0.942614
0.99816
0.779899
1.34607
1.16287
1.4715
1.43988
1.47624
1.59206
1.82509
1.71768
1.82021
1.83412
1.90837
1.87317
1.91216
1.43551
1.43697
1.43842
1.44109
1.39579
1.43181
1.3476
1.38829
1.29855
1.3483
1.29664
1.29802
1.28757
1.26233
1.2555
1.28221
1.22433
1.27773
1.22777
1.24674
1.19271
1.19791
1.21917
1.24889
1.23357
1.19166
1.19199
1.20838
1.18839
1.19179
1.19949
1.20965
1.19947
1.21077
1.20181
1.20387
1.15644
1.18919
1.20565
1.16652
1.12633
1.19895
1.15259
1.2205
1.71643
1.78962
1.74424
1.73601
1.52864
1.60224
1.52703
1.53003
1.53429
1.53373
1.5527
1.52817
1.46267
1.43852
1.40389
1.34341
1.4009
1.44249
1.44394
1.44626
1.33052
1.38379
1.26998
1.27873
1.28959
1.27859
1.28087
1.28422
1.27402
1.27498
1.27136
1.26131
1.24436
1.26571
1.25501
1.23183
1.21108
1.23437
1.21488
1.20328
1.23151
1.22159
1.2194
1.18806
1.20068
1.23765
1.23654
1.68125
1.68116
1.73548
1.69723
1.69424
1.68103
1.67496
1.58453
1.60205
1.35072
1.32928
1.32677
1.44639
1.59003
1.4565
1.50542
1.49971
1.44541
1.42055
0.928629
0.73413
1.07439
1.27118
0.52687
0.365354
0.662249
0.764068
0.729743
0.730311
1.91329
1.86963
1.92622
1.92625
1.89327
1.8928
1.7915
1.88234
1.71854
1.66358
1.66475
1.66386
1.66995
1.66406
1.64939
1.64942
1.56828
1.63502
1.44959
1.50727
1.43595
1.44693
0.245877
0.174961
0.631994
0.412215
0.911992
0.856211
0.914774
1.06321
1.44541
1.26051
1.4982
1.50003
1.60683
1.70803
1.82252
1.83658
1.87436
1.85357
1.90995
1.94597
1.41283
1.41601
1.37285
1.34817
1.24579
1.2798
1.20875
1.21679
1.20797
1.20289
1.19042
1.19754
1.1236
1.14958
1.17903
1.2177
1.27067
1.24047
1.2018
1.19857
1.13409
1.12561
1.17492
1.22694
1.15312
1.19225
1.19407
1.1532
1.15682
1.12851
1.12251
1.08195
1.08395
1.08552
1.07575
1.19796
1.23606
1.19893
1.2403
1.59909
1.56017
1.45456
1.54811
1.47147
1.52208
1.52967
1.52329
1.52762
1.53002
1.44307
1.35535
1.28551
1.26635
1.34478
1.28339
1.27028
1.38357
1.27145
1.32088
1.26054
1.26101
1.27073
1.26337
1.27607
1.27013
1.26918
1.27353
1.27165
1.2717
1.28112
1.27553
1.28775
1.28408
1.28686
1.26638
1.27512
1.26231
1.23051
1.23747
1.26345
1.29055
1.28777
1.25895
1.23856
1.26927
1.30822
1.31158
1.32105
1.28268
1.31486
1.33219
1.3724
1.32378
1.33033
1.35359
1.38745
1.50468
1.60659
1.50348
1.5431
1.63474
1.67903
1.59823
1.46165
1.56311
1.45336
1.48245
1.21876
1.16463
1.19599
1.18267
1.30112
1.4202
1.35083
1.42356
1.41941
1.44035
1.42835
0.698752
0.836644
0.991871
0.835446
1.07431
0.962399
0.0941367
0.256573
0.185115
0.118889
0.0225924
0.255334
0.485183
0.72054
0.605541
0.636676
1.93563
1.90993
1.93863
1.94614
1.9178
1.88232
1.82083
1.73489
1.65583
1.67529
1.651
1.65802
1.63116
1.63364
1.61249
1.61341
1.56415
1.60533
1.52896
1.46952
1.4153
1.3765
0.000946193
0.00107026
0.00107026
0.000663073
0.000638429
0.000731205
0.00057902
0.00107026
0.00107026
0.00107026
0.0979717
0.000863451
0.000890343
0.00059717
0.0451242
6.6255e-07
0.151713
0.25252
0.25577
0.421006
0.879124
0.665758
0.980146
0.953934
1.14954
0.997623
1.36027
1.51869
1.53194
1.62848
1.84967
1.74097
1.85451
1.85721
1.86792
1.9016
1.93715
1.95462
1.33159
1.3344
1.28891
1.31171
1.25106
1.21818
1.20887
1.20683
1.20345
1.20798
1.1612
1.15284
1.10323
1.1127
1.1716
1.14197
1.11518
1.16115
1.15643
1.17568
1.08559
1.07582
1.10043
1.11083
1.1129
1.06857
1.06991
1.06875
1.07296
1.05745
1.05506
1.35724
1.33072
1.33019
1.33126
1.35171
1.45893
1.41582
1.39527
1.27762
1.32037
1.30731
1.31098
1.20889
1.14498
1.32625
1.44468
1.32563
1.33213
1.30403
1.39527
1.37255
1.43989
1.47477
1.40717
1.38255
1.42183
1.2963
1.26626
1.26719
1.26863
1.18369
1.23628
1.16104
1.1125
1.09488
1.21222
1.21522
1.26048
1.2613
1.25991
1.26266
1.26456
1.26789
1.26522
1.27461
1.26953
1.28439
1.2823
1.28747
1.28622
1.3083
1.29777
1.32301
1.32681
1.27383
1.259
1.3178
1.30488
1.29163
1.31033
1.29703
1.2781
1.33423
1.30742
1.41155
1.42168
1.37201
1.41404
1.42353
1.38917
1.48168
1.45396
1.52198
1.54211
1.56711
1.48048
1.48018
1.49473
1.43987
1.39763
1.38309
1.46796
1.32921
1.30718
1.36226
1.38147
1.06434
1.11015
1.19787
1.31441
1.35157
1.38323
1.28734
1.25254
1.21235
1.15903
0.520188
0.60405
0.879772
0.681574
0.995805
1.06078
0.0295771
0.000925351
0.0214526
0.0212211
0.158819
0.000875051
0.541731
0.310692
0.464878
0.469111
0.000766556
0.000551352
0.000138864
0.000388285
0.000838112
0.00101
0.000142183
0.000999779
0.000889023
0.000420008
0.00114025
0.000756739
0.000996993
0.0011401
0.00114009
0.0011401
0.000936392
0.000999494
0.0009727
0.000201819
9.59135e-05
0.000989075
0.000892979
0.0009482
0.00100959
0.000881287
0.00100965
0.000996543
2.65749e-05
0.000931251
1.91919
1.92653
1.94405
1.93769
1.91254
1.83444
1.67155
1.75039
1.63545
1.64088
1.61245
1.61355
1.60656
1.60591
1.59852
1.59816
1.54376
1.51637
1.4173
1.45642
1.31405
1.35102
0.000902499
0.000636742
0.000948563
0.000967574
0.000969466
0.000982262
0.00098705
0.000870723
0.00101
0.000969265
0.000677989
0.000965569
0.000971308
0.000759356
0.000380116
0.000991326
0.000690401
0.00100737
0.000803925
0.000839513
0.000369052
0.000975289
0.000843312
0.000681906
0.0342552
0.177921
0.347494
0.319036
0.389484
0.56529
1.0196
0.823487
1.03814
1.03766
1.33587
1.16521
1.54299
1.49866
1.5658
1.67359
1.78095
1.86328
1.87265
1.85609
1.89562
1.93391
1.91282
1.93064
0.00113245
0.000874255
0.000886173
0.000213344
0.000703064
0.000987943
0.00081396
0.000939339
0.000890554
0.000725685
0.000975785
0.00092383
0.000794854
2.99799e-07
0.000880516
0.00101
0.000170373
1.3109
1.31521
1.31102
1.28004
1.20072
1.23231
1.16023
1.15028
1.11804
1.11116
1.06841
1.06452
1.09757
1.09263
1.05218
1.08715
1.08164
1.13116
1.11239
1.11221
1.03536
1.00752
1.00656
1.0502
1.05763
1.05843
1.03411
1.03821
1.00031
0.988152
0.951844
0.95797
1.55229
1.52231
1.56017
1.57182
1.52027
1.47874
1.64602
1.66392
1.72796
1.73897
1.28986
1.32999
1.38175
1.46401
1.28547
1.23178
1.26722
1.26742
1.10374
1.15688
1.19922
1.09442
1.31241
1.31106
1.31397
1.30623
1.3296
1.3128
1.32458
1.3348
1.21992
1.20869
1.11258
1.19723
1.19112
1.14936
1.10087
1.11866
1.05863
1.07911
1.06241
1.1475
1.20673
1.14219
1.21367
1.26026
1.25993
1.26302
1.26755
1.26299
1.28406
1.28284
1.29924
1.28939
1.30929
1.30968
1.32773
1.32511
1.33056
1.32302
1.33598
1.3313
1.37422
1.34407
1.30747
1.3116
1.37714
1.34462
1.35162
1.39072
1.43369
1.43114
1.43184
1.43171
1.46284
1.51695
1.57898
1.59748
1.60696
1.58434
1.72768
1.66358
1.78957
1.83132
1.82341
1.86016
1.91843
1.78278
1.86668
1.89189
1.96609
2.01547
2.04152
2.06251
2.09182
2.03681
2.09257
2.05157
2.13048
2.12976
2.18035
2.14876
2.20989
2.24091
2.22982
2.17912
2.24381
2.26802
2.23204
2.23126
2.29487
2.27111
2.30496
2.24477
2.2443
2.30778
2.27655
2.22949
2.22809
2.26053
2.29331
1.28143
1.25009
1.41792
1.42813
1.38093
1.38176
1.39979
1.15016
1.28454
0.982362
1.01055
1.10992
1.09857
0.973599
1.0524
1.04486
1.21277
1.11712
1.12243
1.02499
1.02703
1.03504
1.05289
0.581431
0.452515
0.854242
0.642762
0.849288
0.801979
0.00101
0.000376346
0.000995857
0.000368048
6.86341e-05
1.4714e-07
0.181933
0.413777
0.320875
0.350027
0.000241844
0.00069126
0.000943677
0.000831092
0.00136401
0.000478297
0.00012748
0.000146108
0.000949
0.000431299
6.93167e-06
1.61879e-05
0.000990101
0.00093513
0.00100829
0.000627701
0.000911134
0.000410555
0.0010095
0.000962312
0.000954038
0.00101998
0.000714286
0.00101531
0.000974989
0.000913629
0.00101
0.00057983
0.00103729
0.000882416
0.00103157
0.00104682
0.000978052
0.00103263
0.00103286
0.0010327
0.000477211
0.000553683
0.000993933
0.000773625
0.000877713
0.00099375
0.000922247
0.000776475
0.0010078
0.000994205
0.000136415
0.000956593
0.000950381
0.000921886
0.000915695
0.000919934
0.000616218
0.00101
0.000623175
0.000968314
1.90263
1.90876
1.86544
1.87289
1.78216
1.85862
1.67333
1.61849
1.60371
1.60264
1.60999
1.60458
1.54123
1.5504
1.39647
1.35205
1.31467
1.4885
1.48659
1.43451
1.43476
1.43486
0.00081225
0.000372046
0.00113794
0.00113793
0.000962471
0.000414864
0.00093308
0.000410365
0.00113794
0.00090327
0.000161511
0.00100893
0.000972717
0.000941946
0.000297472
0.000985833
0.000696512
0.00091818
0.000788868
0.0193426
0.414907
0.233015
0.442121
0.440214
0.683103
0.488378
0.884887
1.03711
1.16561
1.03756
1.33243
1.49893
1.5328
1.56516
1.63348
1.75351
1.82761
1.79389
1.8477
1.78186
1.8202
1.86966
1.81814
1.82468
0.00101
0.000865295
0.00100993
0.000849207
0.000924318
0.00119133
0.000760181
0.000802065
0.00119133
0.000964874
0.000981161
0.000996251
1.04584e-07
1.51015e-05
0.00101
0.000411253
1.71262e-24
0.00072123
0.00101
0.000253336
0.000277025
0.000765241
0.00096459
0.000879022
0.00221055
0.00101066
1.2884
1.2862
1.20864
1.22296
1.10361
1.12219
1.06119
1.06303
1.06144
1.06274
1.03516
1.03746
1.01179
1.00982
0.985318
1.02728
1.10423
1.06378
1.10393
1.10442
0.926435
0.946782
0.987597
0.966032
0.976546
0.979219
0.927615
0.918991
0.904488
0.920011
0.926879
0.924379
1.77262
1.77465
1.60275
1.51883
1.50514
1.49475
1.77119
1.68602
1.93055
2.00539
1.90105
1.82644
2.01874
2.00264
2.06947
2.11634
2.14543
2.14745
2.17428
2.14916
2.20339
2.22966
2.2241
2.22524
2.24209
2.22814
2.22924
2.27534
2.21851
2.21306
1.33824
1.26709
1.41008
1.48118
1.26571
1.2116
1.26631
1.26585
1.09293
1.14675
0.983566
1.14788
1.03399
1.31257
1.24635
1.30486
1.29752
1.31337
1.2063
1.10109
1.02494
1.0149
1.03
1.06584
0.995602
0.979364
0.903658
0.996106
1.07337
1.06822
0.985098
1.08742
1.15648
1.10481
1.2051
1.15865
1.20218
1.2504
1.28816
1.26926
1.30272
1.29634
1.30831
1.30434
1.33731
1.34254
1.34101
1.36056
1.36217
1.36153
1.39388
1.41044
1.39849
1.39654
1.39985
1.38966
1.40848
1.42541
1.47093
1.46571
1.43377
1.46189
1.45896
1.49219
1.52617
1.58519
1.61809
1.61872
1.62739
1.69904
1.77978
1.8533
1.86569
1.99313
1.86666
1.91726
2.06828
2.09213
2.09215
2.13071
2.17798
2.22985
2.23923
2.24396
2.27137
2.29972
2.32501
2.3257
2.32605
2.32483
2.32519
2.30725
2.24304
2.30689
2.27404
2.22846
2.22947
2.2596
2.29263
2.30253
2.22931
2.29008
2.24963
1.07319
1.0643
1.1417
1.2166
1.10081
1.16681
1.30029
1.23357
1.26394
1.10347
1.00359
0.972527
0.968784
1.07678
1.06323
0.7338
0.83476
1.02094
0.919476
1.02785
1.02141
1.03377
1.02434
1.03633
1.06093
0.25525
0.407184
0.499274
0.683233
0.697263
0.699143
0.00086849
0.000172666
0.000348616
0.00101
5.1626e-05
6.24801e-05
0.026435
0.000930149
0.150759
0.0010033
0.000450922
0.00136384
0.000928609
0.00101
0.000956982
0.000660221
0.000998234
0.000701989
0.000938544
0.000874495
0.00105178
0.000942718
0.000791252
0.000751098
0.000990039
7.57449e-05
0.00099613
0.000976554
0.000151024
0.000589346
0.000544652
0.000936558
0.00085509
0.000982044
0.000944511
0.00100379
0.000978339
0.000944855
0.000974885
0.00092222
0.000207016
0.000979907
0.000919067
0.00101
0.000732523
0.00100962
0.000641972
0.000367709
0.000916152
0.000960434
0.000965869
0.000892128
0.00057757
0.000479733
1.82266
1.82573
1.79203
1.81017
1.72958
1.80074
1.60705
1.67266
1.56656
1.56604
1.50848
1.49255
1.43454
1.4355
1.3522
1.24748
1.225
1.39195
1.43706
1.43902
1.4386
1.43378
0.001138
0.000962538
0.001138
0.000811799
0.000973634
0.000973647
0.00094649
0.000972052
0.00100548
0.000830393
0.000135327
0.000443538
0.00093376
0.000997208
0.00060297
0.00100999
0.00098232
3.31541e-05
0.00020268
0.121929
0.297439
0.44356
0.505431
0.460851
0.671757
0.847855
1.00223
1.03626
1.23153
1.06293
1.36677
1.50488
1.47529
1.58908
1.76026
1.65809
1.72615
1.73103
1.73133
1.75889
1.80391
1.81754
1.81083
1.77644
0.000769413
0.000922585
0.000563688
0.000958878
0.000712787
0.000933944
0.000627141
0.000452485
0.000821255
0.000879841
0.000957505
0.000856862
0.000968979
7.55439e-24
0.000922039
0.000873917
0.00096514
0.000987798
0.000743529
0.00100999
0.000468733
1.42903e-10
0.00207357
0.000901385
0.00101
0.000860782
0.000668131
0.000489708
0.000816537
9.28623e-21
0.00098545
1.16279
1.16349
1.12631
1.1063
1.06351
1.08226
1.04888
1.05017
1.2064
1.14923
1.12615
0.977363
0.987269
0.918685
0.919825
0.988426
0.986148
0.977777
1.0202
1.0795
1.03162
1.06748
1.0521
0.946241
0.925775
0.939422
0.960457
0.886046
0.885356
0.885914
0.898406
0.915976
0.900344
0.865546
0.874914
2.34604
2.35338
2.38317
2.36321
2.40611
2.39217
2.41799
2.4057
2.4623
2.45139
2.41701
2.46768
2.43384
2.48492
2.3167
2.26858
2.28845
2.3384
2.31865
2.28792
2.29243
2.34448
2.34986
2.32261
2.30454
2.35617
2.3422
2.35346
2.37496
2.22882
2.23007
2.22947
2.22755
2.2455
2.26731
1.82016
1.76654
1.66161
1.5685
1.48209
1.55595
1.75555
1.7399
1.97652
1.99999
1.88809
1.9688
2.00902
2.05589
2.10587
2.14598
2.14514
2.14594
2.14267
2.17321
2.18459
2.21126
2.19738
2.20073
2.20534
2.2165
2.19144
2.19245
1.38826
1.31721
1.25901
1.24931
1.3064
1.4819
1.45967
1.1865
1.24471
1.1173
1.04986
2.3331
2.35469
2.37087
2.37797
2.38263
2.39307
2.39616
2.42343
2.40955
2.4246
2.42599
2.47399
2.4939
2.5223
2.52099
2.52524
2.53968
2.55922
1.0281
0.970253
0.971905
1.2347
1.11934
1.29194
1.19698
1.10926
1.00835
1.01599
1.01146
1.0157
0.868902
0.944026
0.796101
0.818028
0.8985
0.815383
1.08074
1.0113
0.906962
1.10362
1.10554
1.1021
1.1582
1.11901
1.23983
1.19205
1.27189
1.24263
1.27706
1.30178
1.32555
1.34669
1.36307
1.37008
1.37827
1.37576
1.4295
1.4181
1.41487
1.41155
1.46259
1.43427
1.5065
1.46834
1.45038
1.49145
1.53836
1.52574
1.54994
1.58349
1.58626
1.53327
1.63886
1.66881
1.64053
1.62737
1.71066
1.7931
1.86612
1.93451
1.88196
1.8978
2.02723
2.08671
2.13085
2.11107
2.17707
2.20795
2.24974
2.26351
2.25815
2.27912
2.33557
2.31619
2.32666
2.33545
2.32622
2.32493
2.32484
2.32493
2.32353
2.32464
2.32401
1.05928
1.04978
1.07218
0.996979
1.01319
1.03574
0.967551
1.11471
1.01392
0.949016
0.968285
0.947151
0.845842
0.94679
0.970996
0.756074
0.739676
0.70225
0.806459
1.02156
0.918487
0.920615
0.92212
0.716678
0.599714
0.399841
0.419746
0.339948
0.162827
0.158989
0.703989
0.512978
0.681221
0.68076
0.000776109
0.00096702
0.000896738
0.000998449
0.000225707
0.000888291
0.00100984
0.000185263
0.149545
0.000699864
0.000398457
0.000668916
0.00101
0.000330569
0.000740386
9.08518e-21
1.47226e-13
0.00238877
0.000379096
0.000850418
0.000694792
0.000545923
0.000997667
0.0003892
0.00100993
0.000972649
0.000977525
0.000963111
0.000999516
0.000748903
0.00101235
0.000944613
0.000746048
0.000975967
0.000610409
0.00101252
0.00089779
0.000955844
0.000631827
0.000258775
0.000722079
0.000964465
0.000941166
0.000838222
0.00101
0.000334973
0.000769708
0.000685233
0.000978177
0.000925692
0.000935309
0.00087655
0.00091709
0.000695524
0.000567275
0.00216934
0.000161955
0.000674617
0.000835469
0.000886639
0.0021693
2.52209
2.48475
2.44772
2.55435
2.59024
2.58726
1.79136
1.78993
1.7815
1.78243
1.71608
1.76941
1.59868
1.52092
1.45364
1.4669
1.44058
1.44044
1.43116
1.43511
1.3136
1.23217
1.32107
1.40186
1.40202
0.00093523
0.000758
0.000875173
0.000890082
0.000922295
0.0009764
0.000965395
0.000493094
0.000931051
0.000554111
0.00100943
0.000959595
0.000969088
0.999467
1.03374
1.06248
0.000911277
0.000497859
0.00254757
0.0108796
0.290925
0.172976
0.467881
0.493059
0.656793
0.526486
0.83451
1.20444
1.34454
1.45896
1.45911
1.76803
1.69623
1.71205
1.49165
1.58836
1.67658
1.72978
1.72473
1.72226
1.74847
1.77579
1.78668
0.000683862
0.00117585
0.000628355
0.000982796
0.000704864
0.000720222
0.00100904
0.000845157
0.000713749
0.000865554
0.000823186
0.000932446
0.000763197
0.000831138
0.000896425
0.000464554
0.000627663
0.00100504
0.000978863
0.000935387
0.000938185
0.000682923
0.000677014
0.000937995
0.000997599
0.000978674
0.000347723
0.000953032
0.000978459
0.000973622
0.00101
0.00100979
0.000838321
0.000978065
0.000644837
0.000954507
0.000811322
1.16
1.19647
1.1868
1.12698
1.12869
1.10025
1.12076
0.989125
1.01633
0.927245
0.927241
1.13385
1.11868
0.880037
0.879531
0.882347
0.883857
0.939254
0.917725
0.957389
0.902062
1.02744
0.977864
1.0266
1.03731
0.866493
0.822812
0.847245
0.877369
0.852257
0.851986
0.792972
0.831228
0.813117
0.792018
0.769853
0.770293
2.34844
2.36383
2.38432
2.4058
2.40612
2.41277
2.45238
2.43148
2.28117
2.2791
2.26386
2.28634
2.31684
2.27904
2.31957
2.30026
2.21666
2.20295
2.20147
2.23332
2.26284
2.23564
1.82594
1.75043
1.64461
1.73262
1.58273
1.49297
1.74601
1.74622
1.98457
1.98771
2.00241
1.90063
1.97697
2.09057
2.03611
1.97838
2.021
2.12222
2.13568
2.12575
2.13184
2.13901
2.16243
2.18973
2.17901
2.19033
2.18931
2.19092
2.189
2.18877
2.19018
1.22996
1.23507
1.37514
1.45731
1.23368
1.31598
1.47315
1.48931
1.22379
1.16543
1.07804
1.14448
2.36395
2.32324
2.34191
2.38823
2.38555
2.38739
2.39824
2.41895
2.44233
2.45035
2.452
2.45732
2.48356
2.5241
2.50242
2.52071
2.53932
2.59023
2.56475
2.39366
2.40364
2.41994
2.58918
2.59548
2.57915
0.974427
0.971238
0.97305
0.945372
1.04555
1.05479
0.861073
0.895138
0.930195
0.819876
0.860599
0.861805
0.793324
0.795919
0.795407
0.793501
0.824452
0.856999
0.959913
0.888976
0.88785
1.03226
1.11013
1.02283
1.17697
1.20771
1.13837
1.17829
1.24091
1.20468
1.33
1.27468
1.34827
1.35926
1.37017
1.35718
1.40935
1.44319
1.49032
1.48477
1.4928
1.47662
1.5038
1.48709
1.53695
1.53847
1.56298
1.56406
1.54043
1.54008
1.65803
1.7062
1.60546
1.66705
1.71479
1.67723
1.77801
1.82363
1.92116
1.96069
1.93695
2.02846
2.08291
2.1819
2.16777
2.22693
2.20384
2.29917
2.30272
2.29739
2.32593
2.35428
2.35449
2.40787
2.3731
2.39866
2.36136
2.36062
2.39681
2.32812
2.36486
2.32771
0.42566
0.743468
0.431357
0.708118
0.988828
0.969629
0.969552
0.948584
0.967294
0.821749
0.719711
0.717712
0.609964
0.818294
0.685075
0.709401
0.844866
0.101857
0.101427
0.478125
0.605181
0.59947
0.391812
0.280186
0.2851
0.0602716
0.0742215
0.0842984
0.166276
0.148655
0.0691143
0.248271
0.142097
0.397778
0.201234
0.116814
0.0010004
0.000112849
0.00044385
0.000919656
7.69601e-17
0.000297927
0.00224771
1.65506e-06
0.00109163
0.0286042
0.0009581
0.000364482
0.00101
0.000172236
0.000993489
0.00221733
0.00098187
0.000134455
0.00096781
0.00100982
0.00136396
0.000348934
0.00100983
0.000979813
0.000465046
0.000983408
0.00101
0.000808151
0.00101221
0.00101229
0.000896998
0.000919276
0.00101218
0.00101229
0.000955402
0.000759312
0.000711032
0.000919589
0.00168192
6.25792e-05
0.00168183
0.000748791
0.00098702
0.000966821
0.00099923
0.00100984
0.00101
0.00100994
0.000799141
0.000805878
0.000827454
1.20946e-05
9.12481e-06
0
0.00090453
0.000799517
0.000430028
0.000831168
0.00136391
0.000898711
0.00100958
0.00100997
0.000713848
0.000998553
0.000946811
0.000914726
0.00101
2.4913
2.47911
2.4866
2.48834
2.51237
2.61776
2.62169
2.61882
2.64766
2.57708
1.70955
1.70052
1.62616
1.6418
1.5874
1.61995
1.53188
1.49367
1.46177
1.43165
1.41633
1.41731
1.32176
1.33007
1.20175
1.24207
1.24321
0.000529692
0.000965684
0.000913493
0.00101
0.000949844
0.000924031
0.000585991
1.03418
1.17523
1.03367
0.000856546
0.000219588
0.000907251
0.000979614
0.901155
0.735224
0.069411
0.0188627
0.101143
0.205068
0.500449
0.355408
0.53522
0.536961
0.569265
1.57568
1.56183
1.61286
1.31503
1.45897
1.45422
1.49316
1.62091
1.68841
1.64403
1.55373
1.63417
1.67227
1.6703
1.59423
1.60463
0.000957717
0.000979733
0.00117589
0.00101
0.000637077
0.000823908
0.00101
0.00117005
0.000941908
0.0009238
0.000160682
0.000986054
0.000875008
0.000784345
0.000380395
0.000970585
0.000436458
0.000267816
0.000982444
0.00101
0.000771965
0.000895476
0.000833864
0.000976221
0.00092185
0.00100577
0
0
0
0.00065666
0.000799623
0.00101
0.00100563
0.000944429
0.000473953
0.000911195
0.000978965
0.000968087
0.00097325
0.000338297
0.00093345
0.000914242
0.000926795
0.000822171
0.000169476
1.17793
1.19213
1.19952
1.06444
1.08864
1.04876
1.04922
0.977947
0.96784
0.881549
0.893273
0.879911
0.882704
0.979646
0.974794
0.827008
0.828705
0.790727
0.771598
0.869005
0.863384
0.886935
0.942385
1.02202
0.985934
1.05271
1.00374
0.806104
0.777318
0.839724
0.863021
0.733241
0.733857
0.707364
0.728533
0.769163
0.748739
0.768318
0.774102
2.35583
2.30414
2.39222
2.34947
2.35585
2.41776
2.3825
2.44742
2.39679
2.46952
2.41096
2.39629
2.48022
2.43119
2.24643
2.24709
2.23619
2.25028
2.26251
2.27601
2.27384
2.28779
2.19049
2.1893
2.21341
2.198
2.22789
2.23644
1.8295
1.75191
1.67075
1.74782
1.54094
1.63528
1.74806
1.75471
1.97652
1.9766
1.97992
1.90758
2.06504
2.11232
2.02288
1.97564
2.11765
2.1176
2.13227
2.11739
2.15458
2.17904
2.18579
2.1883
2.18775
2.18355
2.1888
2.18993
2.18726
2.18338
1.22995
1.22259
1.39175
1.46987
1.37023
1.28746
1.52658
1.46852
1.19967
1.22453
1.19542
1.11156
2.36451
2.40006
2.38314
2.40722
2.42606
2.41476
2.45053
2.46162
2.43913
2.45258
2.44142
2.45143
2.45806
2.47992
2.49955
2.52156
2.52133
2.57318
2.55161
2.6027
2.60926
2.47584
2.48757
2.60633
2.61719
0.708481
0.871395
0.740769
0.847075
0.770781
0.742318
0.70183
0.667201
0.695261
0.727557
0.629307
0.677223
0.686031
0.569223
0.62784
0.774256
0.888531
0.804491
0.897442
0.895511
0.888843
0.96088
1.10357
1.00872
1.19497
1.19607
1.16423
1.10967
1.23234
1.27721
1.33382
1.31747
1.34445
1.3317
1.45386
1.4043
1.50121
1.49667
1.52291
1.52754
1.49948
1.56145
1.60088
1.5765
1.56039
1.58633
1.63854
1.62171
1.60503
1.64433
1.72975
1.72801
1.72364
1.74266
1.87324
1.78727
1.9573
1.98441
1.98583
2.05061
2.12656
2.2022
2.21013
2.22257
2.27185
2.31783
2.35644
2.3545
2.39424
2.36862
2.42048
2.43603
2.43432
2.43446
2.43377
2.43305
2.40114
2.43321
2.40092
0.0897143
0.0736793
0.0963779
0.0629531
0.377439
0.678601
0.369765
0.84233
0.709816
0.716362
0.563723
0.585749
0.583057
0.585209
0.579757
0.581337
0.58793
0.584959
0.579349
0.100658
0.0844057
0.000552591
0.0295542
0.0646676
0.0189482
0.0671355
0.0644349
0.0356424
0.0462523
1.47403e-07
0.000976517
0.000555123
6.72677e-07
3.96977e-11
0.000768598
0.00211505
3.62273e-06
0.000959982
0.00100986
0.000887496
0.000962023
0.00099164
0.00188842
0.000978147
6.09314e-05
1.36216e-05
0.000607696
0.000271159
0.000988249
0.000479144
0.000826696
0.000961729
0.00100941
0.00031059
4.17351e-05
0.000987756
0.00100992
0.000817418
0.000560979
0.000632861
0.00101
0.000799183
0.000973675
0.000279366
0.000905419
0.000941315
0.000825814
0.0010008
0.000939674
0.000880492
0.000886752
0.00100949
0.00097168
0.000773375
0.000984106
0.000952799
0.000451209
0.00098992
0.000934564
0.000964099
0.000974876
0.000974485
0.00101
0.00099424
0.000905098
0.000464111
0
0
0
0
0
0
0
0
0
0
0
0
0
0
0
0
0
0
0
0.00099334
0.000875576
0.000937661
0.000812305
0.000919893
0.000434354
0.000930589
0.00106293
0.000325168
0.000811332
0.000878804
0.000885277
2.65122
2.65078
2.65671
2.62056
2.67865
2.66907
2.5132
2.50599
2.58724
2.53869
2.63091
2.67997
2.63695
2.52815
2.48484
1.56175
1.56657
1.58162
1.55804
1.57011
1.50762
1.55305
1.33156
1.38291
1.25375
1.25491
1.20129
1.20017
1.20197
4.53839e-05
0.000617054
0.000495047
0.000982711
1.00821
1.2
1.03278
0.000948865
0.000967043
0.987596
0.880874
0.000491813
0.0424301
0.000837239
0.000871626
0.577543
0.720646
0.103772
0.106088
0.24892
0.108555
0.542135
0.395446
0.542838
1.56994
1.56881
1.57292
1.58307
1.57449
1.28457
1.39999
1.34326
1.46705
1.52281
1.55149
1.48084
1.56333
1.513
1.5119
1.50535
0.000625393
0.000861474
0.000981772
0.000813843
0.000571953
0.000511218
0.000777785
0.000457353
0.000733051
0.000657652
0.000975447
0.0164718
0.000938159
4.13951e-06
0.000972134
0.10258
0.10252
0.0465815
0.000952623
0.000937337
0.0513319
0.000984753
0.000740767
0.000908685
0.000621516
0.00100955
0.000627569
0.000973579
0.000348921
2.15212e-05
0
0
0
0
0
0.000882625
0.00107335
0.000978274
0.00107332
0.000697665
0.000557721
4.71886e-06
0.000603352
0.000437746
0.000357143
0.00093197
0.000953825
0.000318252
0.000390862
0.00402749
0.0939997
0
0
0
0
0
0
1.17637
1.10639
1.09659
1.02564
1.01485
0.933765
0.918742
0.911277
0.911041
0.90182
0.912678
0.842215
0.854326
0.778069
0.762932
0.90902
0.913896
0.703295
0.699142
0.702068
0.706285
0.981956
1.04688
0.964257
0.861962
0.845067
0.920052
0.85041
0.934169
0.773343
0.743064
0.805242
0.760173
0.709932
0.708761
0.701982
0.724127
0.719425
0.692044
0.68352
0.666044
2.30116
2.30959
2.31129
2.30711
2.33316
2.30083
2.38362
2.43001
2.38667
2.3851
2.47388
2.41756
2.39436
2.23626
2.23479
2.26253
2.24914
2.27343
2.27537
2.30137
2.28499
2.18991
2.19736
2.22048
2.20403
2.21849
2.22628
1.86979
1.79125
1.71264
1.74946
1.69664
1.60135
1.78701
1.75002
1.98231
1.98133
1.94411
1.98854
2.07123
2.11997
1.98374
2.03017
2.12097
2.12074
2.14378
2.12165
2.16233
2.18333
2.18031
2.18209
2.18087
2.182
2.1869
2.18401
2.18142
2.18226
1.22037
1.28222
1.46954
1.44442
1.36708
1.45204
1.46981
1.5472
1.21593
1.21027
1.20552
1.1236
0.96038
1.00454
1.08589
2.43297
2.43685
2.46355
2.45546
2.48002
2.49178
2.49231
2.49161
2.52758
2.50791
2.519
2.48436
2.51779
2.52631
2.55233
2.56983
2.58513
2.5797
2.63517
2.63499
2.66154
2.63488
2.54652
2.55261
2.67433
2.67083
0.48915
0.55928
0.437261
0.669043
0.58858
0.669057
0.667003
0.653786
0.587947
0.512702
0.462406
0.456438
0.483507
0.548344
0.708563
0.616729
0.5904
0.794094
0.946749
0.90736
0.759749
0.99899
1.0381
1.05972
1.04292
1.1351
1.21489
1.09199
1.31893
1.25099
1.32453
1.33287
1.41864
1.35733
1.47966
1.5171
1.51186
1.51469
1.63889
1.60227
1.57131
1.62689
1.65206
1.64444
1.63841
1.63234
1.64424
1.64436
1.72417
1.7692
1.80495
1.76212
1.80603
1.83001
1.97268
1.90293
1.99724
1.98517
2.06718
2.1399
2.22661
2.22206
2.25767
2.29613
2.37242
2.36092
2.38407
2.38995
2.41853
2.42746
2.44567
2.43877
2.44889
2.44499
2.4339
2.447
2.43224
2.43425
0.0281945
0.00181627
0.0549235
0.0302038
0.0320571
0.0563139
0.0307555
0.223121
0.0243443
0.585233
0.592738
0.122027
0.324855
0.583121
0.587639
0.583034
0.586098
0.587725
0.583715
0.512989
0.419921
0.000839312
0.000553395
0.000935585
0.000679404
0.000702163
0.0276086
0.000793998
0.000364069
0.0008968
0.000624923
0.00101
0.000209386
0.000613088
0.00100863
0.00189303
0.000979643
0.000918269
0.000996183
0.00372843
6.00598e-05
0.000210438
0.00024578
0.00100974
0.00081637
6.39222e-09
0.000980809
0.00100983
0.000216105
0.000848872
0.00100647
0.000131712
0.00100976
0.000959372
0.000152958
0.000986414
0.000975827
0.000979789
0.0035107
0.000980885
0.000643889
0.00098777
0.000776699
0.00062625
0.00130914
0.00130907
0.00130909
0.000900202
0.000946957
0.000832782
0.000987787
0.000948013
0.000941776
0.000961192
0.000871734
0.000897996
0.000947049
0.000951887
0.000925848
1.67713e-05
0.000881191
0.00092376
0.0003855
0.000414352
0.00098456
0
0
0
0
0
0
0
0
0
0
0
0
0
0
0
0
0
0
0
0.000855512
0.000943785
0.00101
0.000948967
0.0016147
0.000640025
0.00106175
0.000886549
0.0010444
0.000887825
0.000709222
0.000991424
2.68397
2.70692
2.70913
2.67571
2.67737
2.65893
2.6634
2.54408
2.54578
2.58714
2.60731
2.60227
2.6361
2.67806
2.51541
2.53649
2.46108
2.5048
2.49738
1.56321
1.56865
1.46466
1.43198
1.53081
1.45428
1.463
1.33677
1.36659
1.22648
1.20017
1.19979
1.20024
1.17836
0.000873819
0.000560469
1.11707
1.22813
1.00635
0.00094012
0.000611992
0.962697
0.957094
0.00068438
0.000733799
0.69982
0.831513
0.0644168
0.139246
0.0781726
0.0367819
0.559519
0.561156
0.155624
0.189758
0.232731
0.335762
0.484485
1.53331
1.56628
1.54396
1.52826
1.2883
1.28884
1.31198
1.38197
1.50582
1.49925
1.4536
1.50234
1.50115
0.0273278
0.0244204
0.0264441
0.0424458
0.0615319
0.0790824
0.0906458
0.0851442
0.0926303
0.114504
0.131894
0.166119
0.158866
0.173347
0.216696
0.249186
0.206291
0.293804
0.248648
0.206702
0.249732
0.254165
0.257992
0.000995064
0.000836863
0.00107331
0.000570634
0.00039799
0.00101
0.000990588
3.7271e-05
0.000733696
0
0
0
0
0
0.000500823
0.000891535
0.000776104
0.000529348
0.0758121
0.107576
0.182259
0.213941
0.274547
0.15511
4.80117e-05
5.94166e-05
0.369195
0.255405
0.294149
0.329222
0
0
0
0
0
0
0
0
0
0
1.09363
1.01219
1.01008
0.950039
0.953512
0.92634
0.940945
0.911153
0.952931
0.878172
0.877839
0.788259
0.805537
0.714868
0.713883
0.68761
0.6867
0.833386
0.80495
0.692612
0.685956
0.686716
0.679343
0.906795
0.950515
0.793473
0.765347
0.835555
0.950052
1.00849
0.965212
0.695774
0.651049
0.71871
0.745101
0.643993
0.625068
0.618707
0.58694
0.616844
0.591731
0.61307
0.63054
2.3598
2.29598
2.4087
2.32341
2.30326
2.34993
2.36357
2.36155
2.38207
2.43095
2.37451
2.45626
2.42733
2.48912
2.21745
2.23859
2.23524
2.25754
2.23891
2.26687
2.28412
2.25888
2.18432
2.19448
2.20043
2.2097
2.20888
2.20882
1.92453
1.84282
1.73145
1.75101
1.65112
1.74383
1.75561
1.81422
1.98971
1.98915
1.99104
1.96643
2.07774
2.12494
2.04531
1.99859
2.12391
2.12516
2.12994
2.15031
2.1814
2.16777
2.1822
2.18053
2.18126
2.18237
2.18265
2.18166
2.18224
2.18137
1.30264
1.20832
1.47746
1.47835
1.38975
1.48371
1.48078
1.58296
1.20516
1.20572
1.18515
1.16823
1.10789
1.20603
2.44665
2.46595
2.48591
2.52125
2.51636
2.53651
2.55055
2.55724
2.56513
2.5518
2.56247
2.58157
2.59994
2.6175
2.61421
2.62711
2.6497
2.66877
2.67785
2.6785
2.69109
2.56367
2.5532
2.7138
2.72573
0.310125
0.345183
0.323823
0.417243
0.536312
0.61484
0.50923
0.530218
0.445597
0.457065
0.4583
0.486752
0.582886
0.530133
0.602142
0.603322
0.608026
0.669038
0.734175
0.907949
0.834822