/*--------------------------------*- C++ -*----------------------------------*\
  =========                 |
  \\      /  F ield         | OpenFOAM: The Open Source CFD Toolbox
   \\    /   O peration     | Website:  https://openfoam.org
    \\  /    A nd           | Version:  8
     \\/     M anipulation  |
\*---------------------------------------------------------------------------*/
FoamFile
{
    version     2.0;
    format      ascii;
    class       volScalarField;
    location    "19560";
    object      nut;
}
// * * * * * * * * * * * * * * * * * * * * * * * * * * * * * * * * * * * * * //

dimensions      [0 2 -1 0 0 0 0];

internalField   nonuniform List<scalar> 
526318
(
0.000229797
0.000511421
0.000211385
0.00061259
0.000233044
0.000301101
0.000173565
0.000365215
7.14066e-05
0.000425046
0.00046846
0.00048257
5.19902e-05
0.000373412
0.000414104
0.00039989
0.000160528
0.000200961
0.000129401
0.000255043
0.000569042
0.000543778
0.000317353
0.000381906
0.000291204
0.000215457
0.000451467
0.000299236
0.000223567
0.000378378
0.000212076
0.000262773
0.000278176
0.000267497
0.000431653
0.000355544
0.000722217
0.00039232
0.0006786
0.000264215
0.000145968
0.000361324
0.000385314
0.000331021
0.000244025
0.000375766
0.000147963
0.000234665
0.000530622
0.000488022
0.000173375
0.000396696
0.000324077
0.000323649
0.000302707
0.000234131
0.000274207
0.000230009
0.000408337
0.000391069
0.000232686
0.000228486
9.71234e-05
0.000213684
0.000172504
0.000351435
0.000260059
0.000418393
0.000345012
0.00029778
0.000230219
0.000445007
0.000264929
0.000436289
0.000454862
0.000442193
0.000497274
0.00052494
0.000364342
0.000320488
0.000322753
0.000393465
0.000454519
0.000502354
0.000268372
0.000291199
0.000502876
0.000247902
0.000298382
0.000329384
0.00039238
0.000332746
0.000288356
0.00025564
0.000299365
0.000239696
0.000302427
0.000353215
0.000149611
0.00031045
0.00033331
0.000235599
0.000257366
0.000221978
0.00031381
0.000277336
0.00036534
0.0002386
0.000396358
0.000210249
9.26604e-05
0.000296153
0.000433758
0.000326281
0.000103453
0.000293865
0.000101514
0.000344425
6.6147e-05
0.000101795
0.000152905
0.000154432
0.000205144
0.000115265
0.000178539
0.000133645
0.000168808
4.3166e-05
1.66668e-05
4.70103e-05
9.09173e-05
8.13627e-05
5.72141e-06
5.4945e-05
3.191e-06
6.38017e-05
7.60892e-05
5.04375e-05
4.6659e-05
4.21383e-05
5.16371e-05
6.79719e-05
0.000108812
6.89212e-05
7.17017e-05
4.6663e-05
9.0972e-05
5.47873e-05
5.00926e-05
0.00015207
2.42017e-05
0.000273513
0.000365318
7.47539e-05
0.000149509
0.000264952
0.000216178
0.000450513
0.000116756
0.000210889
0.000207835
0.000321967
0.000550558
0.00049747
0.000293998
0.000307585
0.000133566
0.000329783
0.000308159
0.000370246
0.000488278
0.000332198
0.000324376
0.000429334
0.000447753
0.000441188
0.000357107
0.000251858
0.000259455
0.000255715
0.000315429
0.000237828
0.00021045
0.000271237
0.000223565
0.000203054
7.62039e-05
7.15516e-05
9.52133e-05
3.20666e-05
0.000129562
5.40273e-05
0.000111033
0.000105213
8.30368e-05
8.41268e-05
6.36588e-05
2.81075e-05
0.000120987
0.000167967
0.000111009
5.24205e-05
5.3316e-05
0.000355514
6.94935e-05
0.000226973
0.00024723
0.000272227
0.000257354
0.000273863
0.000209001
0.000419266
0.000485108
0.000178231
0.000386636
0.00037551
0.000213957
0.000543007
0.000532098
0.000397701
0.000296349
0.000318123
0.00040797
0.000227513
4.79331e-05
0.000549432
0.000427803
0.000144443
0.000134182
0.000229419
0.00020348
0.00021616
0.000263413
0.000135369
0.000201726
0.000282562
0.000271902
0.000200224
0.000180142
0.000257786
0.000149135
0.000289354
0.000227677
0.000210986
0.000235013
0.000350149
0.000213258
0.000387569
0.000306661
0.000343554
0.000343248
0.000381849
0.000303936
0.000321931
0.000326615
0.000193958
0.000251697
0.000117836
0.000201379
0.00015637
0.000284454
6.52415e-05
9.40151e-05
0.000253373
0.000118001
0.000356729
0.000285199
0.000268359
0.000330929
0.000393835
0.000234885
0.000392027
0.000338693
0.000333354
0.000303488
0.000104419
0.000230494
0.000289237
0.000245471
0.000603985
0.000171759
8.1654e-05
5.42863e-05
9.10039e-05
7.16542e-05
3.61982e-05
5.15435e-05
3.81102e-05
5.0105e-05
3.7688e-05
2.7977e-05
2.03269e-05
2.00356e-05
0.000219059
0.000153215
0.000259629
0.000270615
0.000229472
0.00030455
0.000267514
0.000261132
0.000207371
0.000244023
0.000287317
0.000244287
0.000244368
7.76578e-05
0.000121973
6.65825e-05
4.6369e-05
0.000317438
0.000185362
6.78818e-05
0.000157996
0.000182883
0.000110734
0.000296937
0.000294386
0.000313256
0.000309769
0.000291706
0.000352381
0.000305662
0.000346273
0.000433073
0.000378916
0.000440385
0.000551603
0.000363263
0.000504848
0.000338794
0.000225989
0.00021622
0.000216377
0.000248048
0.000228676
0.000299243
0.000249401
0.0001413
0.000335053
0.000247836
0.000236831
0.000142353
0.000244879
3.17803e-05
0.000177007
6.11275e-05
2.09442e-05
4.02112e-05
0.000161251
4.29449e-05
0.000109246
0.000111259
2.16896e-05
6.54184e-05
7.148e-05
6.47189e-05
0.000212842
0.000215692
0.000283124
0.000297283
0.000160791
0.000288902
0.000180968
0.000205947
0.000242011
0.000221161
0.000283505
0.000341398
0.000292355
0.000283008
0.00026339
0.000330291
0.000364243
0.000312765
0.000357942
0.000316711
0.000272689
0.000209895
0.000117774
0.000360413
0.000668917
0.000165795
0.000180685
0.00058419
0.000365847
0.00032194
0.00027039
0.000332313
8.86602e-05
0.000449556
0.000227375
0.000318403
0.000260019
0.000328385
0.000216545
0.000153809
0.000316026
0.000434269
0.000159816
0.000211696
0.000270217
0.000151394
0.000273934
0.000199119
5.70612e-05
2.9196e-05
6.30091e-05
5.36379e-05
1.76527e-05
0.000193295
0.000266713
0.000180311
0.000178588
4.40324e-05
5.83133e-05
0.000205233
0.000148295
0.000255749
0.000296574
0.000339661
0.000478142
0.000327954
0.000377228
0.000232812
0.000321378
0.000442421
0.000366895
0.000305936
0.000290433
0.000219232
0.000225538
0.000288325
0.000197276
0.000172653
0.000176636
0.000125651
0
6.4458e-11
1.06088e-10
0
0
0
0
7.71167e-11
1.19937e-10
8.31974e-11
7.45446e-05
0
0
0
0.000238798
0
0.000106658
5.28554e-05
2.12707e-05
0.000125385
0.000330763
0.000116487
0.000247109
0.000379872
0.000337478
0.000255864
0.000250417
0.000362998
0.000164257
0.000285266
0.000145887
6.93204e-05
0.000251013
0.000110876
0.000256905
0.000263513
0.000282196
0.000228894
9.96385e-05
0.000121467
6.67818e-05
7.59781e-05
6.78128e-05
5.34466e-05
4.05398e-05
4.76396e-05
2.64766e-05
3.51954e-05
3.17513e-05
2.29036e-05
0.000140582
0.000231598
0.000270418
0.0002474
0.000232779
0.000281987
0.00032265
0.000305731
0.000182089
0.000210358
0.000162372
7.15275e-05
0.000137202
8.13762e-05
4.66714e-05
0.000125569
0.000158259
4.12686e-05
0.000130599
0.000306213
0.000359214
0.000360171
0.000304723
0.00037741
0.0003918
0.000366479
0.000330698
0.000340945
0.000317009
0.000355903
0.00033821
0.000330064
0.000323479
0.000341647
0.000190945
0.000265736
0.000413441
0.000342003
0.000381234
0.000451588
0.00036388
0.000285196
0.000398694
0.000297487
0.000418346
0.000286073
0.00013755
0.000168054
9.79531e-05
0.000195602
6.51202e-05
0.000209417
0.000121675
0.000273991
0.000340714
0.000310535
0.000262854
0.000160515
0.000231563
0.000100166
0.000180985
3.36463e-05
0.000167682
1.75548e-05
1.2705e-05
3.68878e-05
7.6138e-05
3.72021e-05
6.17568e-05
0.000161116
0.000123876
9.69825e-05
0.000176519
0.000221449
0.000226451
0.000131834
0.000224708
0.000228929
0.000226776
0.000258636
0.000214032
0.00030092
0.000235059
0.000279919
0.00035967
0.000261377
0.000327363
0.000294534
0.000327701
0.000358234
0.000321088
0.000335205
0.000368382
0.000358006
0.000494389
0.000221442
0.000323665
0.000325348
0.000689149
0.000452889
0.000392307
0.000469992
0.000255942
0.000202686
0.000255106
0.000272497
0.000250782
0.00023991
0.000255597
0.000305946
0.00022846
0.000186612
0.000258875
0.000216521
0.000241506
0.000103392
0.000154015
0.000175215
0.000180339
0.000253598
0.000207291
7.1228e-05
0
1.44713e-05
9.06836e-06
8.00864e-05
0
0.000217553
0.000165622
0.000159168
6.10314e-05
0
0
0
0
0
0
0
0
0
0
1.73018e-09
0
0
6.26424e-10
6.91233e-10
1.82955e-09
0
0
0
0
0
0
0
0
0
0
0
0
0
0
0.00039169
0.000198562
0.000222278
0.000231158
0.000269827
0.000247231
0.000488993
0.000295782
0.000343594
0.000399231
0.000309051
0.000290495
0.000245957
0.000249889
0.000312669
0.000329565
0.000208486
0.000213757
0.000223444
0.000273503
0.000162044
0.000115129
0
0
0
0
0
0
0
0
0
0
0
0
0
0
0
0
0
0
0
0
0
0
0
0
1.23605e-05
9.4883e-05
5.12716e-05
0.000133826
8.49911e-05
0.000179723
0.000378316
0.000152678
0.000249421
0.000364511
0.000301355
0.000245593
0.00031787
0.000132953
0.000156597
0.000298609
0.00032393
0.000244511
9.83479e-05
0.000249694
0.000431493
0.000121969
0.000207341
0.000298818
6.29648e-10
0
0
0
0
0
0
0
0
0
0
0
0
0
0
0
0
0.000114141
0.000105366
9.39463e-05
7.64479e-05
5.7498e-05
8.25298e-05
4.64851e-05
7.31605e-05
4.62277e-05
6.47807e-05
7.48694e-05
4.43697e-05
0.000204039
0.000199803
0.000212041
0.000137861
0.000258446
0.000297232
0.000330463
0.000296943
0.000174771
0.000161618
0.000200574
0.000195297
8.72343e-05
9.4904e-05
0.000111458
7.03749e-05
5.07557e-05
0.000111643
0.000116087
0.000115084
0.000380592
0.000396595
0.000373078
0.000422171
0.000382466
0.000395715
0.000458519
0.000458527
0.000457611
0.000489358
0.000362612
0.000341831
0.000407562
0.000393365
0.000342289
0.000372082
0.000354112
0.00034737
0.000332334
0.000354971
0.000219313
0.000323611
0.000457209
0.000288649
0.000278241
0.000292367
0.00033273
0.000378837
0.000382136
0.00018542
0.000300799
8.00957e-05
0.000203047
0.000156992
0.000147324
8.59743e-05
0.000187992
9.42836e-05
0.000165838
0.000218219
0.000244615
0.000306374
0.000314773
0.0002917
0.000294899
0.000175273
8.5024e-05
0.000111796
5.80569e-05
6.84917e-05
3.90574e-05
9.6677e-05
0.000100143
3.69184e-05
7.3182e-05
0.000107089
9.82518e-05
0.000137111
0.000181325
0.000202143
0.000232891
0.000212627
0.000135361
0.000225091
0.000206496
0.000299022
0.000246927
0.000198792
0.000254341
0.000283213
0.000310282
0.000314334
0.000282197
0.000306724
0.000292527
0.000342651
0.000325975
0.000362224
0.000365161
0.00038743
0.00048929
0.000436609
0.000491283
0.000486225
0.000523377
0.000551191
0.000588816
0.000548181
0.000536876
0.000542231
0.000570076
0.000584575
0.000591418
0.00063723
0.000599422
0.000626782
0.000642239
0.000711963
0.000723879
0.000669735
0.000707092
0.000783387
0.000770554
0.000743339
0.000744041
0.000820967
0.000784888
0.000775179
0.000790364
0.000799293
0.000794424
0.000743736
0.000759727
0.000673616
0.000696868
0.000731684
0.0006861
0.000631067
0.000633555
0.000616558
0.000651447
0.000239862
0.000230203
0.000199608
0.000343647
0.000127983
5.12027e-05
0.000457704
0.000272124
7.19878e-05
0.000145805
0.000187806
0.00020953
0.000200641
0.0002779
0.000203511
0.000235989
0.000213035
0.000129487
0.000232095
0.000127828
0.000205967
0.000143459
0.000145533
0.000126081
0.000266543
8.99314e-05
0.000233547
0.000109054
0.000183417
0
0
0
0
0
0
0.000210593
0.000495511
0.000422651
0.000232967
0
0
0
0
2.8756e-09
0
0
0
0
0
0
0
0
0
0
0
0
0
0
0
0
1.84864e-10
0
1.53608e-10
0
0
0
0
3.13796e-09
0
4.03706e-08
4.88285e-09
0
1.47302e-10
1.1136e-09
4.9689e-09
0
0
0
0
0
0
0
0
0
0
0
0
0
0
0
0
0
0
0
0
0.000173968
0.000123652
5.01934e-05
0.000305225
0.000295018
0.000247511
0.000296432
0.000178548
0.000222278
0.000330751
0.000335774
0.000276797
0.000310227
0.000258579
0.000205417
0.000165627
0.00014642
0.000236206
0.000287756
0.000285503
0.000215522
0.000211649
0
0
1.02248e-09
7.54411e-10
0
0
0
0
1.81017e-09
0
0
0
0
0
0
0
0
0
0
7.20332e-06
2.41889e-05
5.04498e-05
3.56484e-05
0.000124976
0.000216872
7.44466e-05
0.00018721
0.000359082
0.000344432
0.000258137
0.000297293
0.000367074
0.000421915
0.000198265
0.000330539
0.000268169
0.000245095
0.000220718
0.000118144
0.00036916
8.90311e-05
0.000175111
0.000118721
9.98975e-05
0
0
0
0
0
1.81433e-11
0
0
1.0262e-11
0
0
0
0
0
0
0
0
0
0
0
0
0
0
0
5.95655e-07
6.58596e-07
0.000101282
0.000133489
7.62145e-05
0.000111846
7.6688e-05
9.15775e-05
9.06462e-05
5.96153e-05
6.49014e-05
0.00010598
6.11523e-05
0.000128488
0.000168983
0.000214858
0.000198478
0.000213031
0.000288612
0.000248439
0.000298423
0.000325242
0.000151163
0.000174053
0.000194523
0.000192855
6.02578e-05
0.000134384
6.04654e-05
0.000125338
9.76339e-05
7.73192e-05
0.000122494
0.000112277
0.000505685
0.000493351
0.000415858
0.000418065
0.000401923
0.000401255
0.000471271
0.000482816
0.00062831
0.000604129
0.00058263
0.000567596
0.000690032
0.000709866
0.000803449
0.000763402
0.000778256
0.00084314
0.000774365
0.000796271
0.000731502
0.000728699
0.000678636
0.000666633
0.000577408
0.000601044
0.000597463
0.000607122
0.000615688
0.000645921
0.00038745
0.00039247
0.000430599
0.000398755
0.000381215
0.000414633
0.000401319
0.000360364
0.000361544
0.00038466
0.000308937
0.000227364
0.000188747
0.000569604
0.000186459
0.000285247
0.000174375
0.000477864
0.000355284
0.000137954
0.000195761
0.000261862
0.000180444
0.000226708
0.000194384
0.000177586
0.000179579
0.000211091
0.000251122
0.000262137
0.00020072
0.000309206
0.00029136
0.000291615
0.00016642
0.000200702
0.000115332
9.81383e-05
4.73826e-05
4.55608e-05
7.0046e-05
5.39065e-05
8.97871e-05
5.32472e-05
0.000132833
8.71051e-05
0.000133737
0.000195666
0.000105585
0.000160182
0.000161496
0.000193168
0.000180643
0.000166119
0.000263653
0.000234131
0.000155002
0.00022359
0.000221159
0.000293546
0.000293018
0.000323908
0.000304905
0.000263053
0.000359822
0.000368518
0.000387778
0.000390773
0.00042233
0.000460321
0.000468856
0.000489552
0.000514393
0.00055439
0.000494059
0.000531015
0.000554827
0.000616637
0.000602746
0.000687381
0.000687314
0.00071752
0.00074254
0.000755534
0.000790093
0.000763059
0.00079598
0.000724515
0.00066592
0.000734868
0.000654772
0.000611543
0.00057732
0.000603201
0.000588683
0.00055561
0.000535475
0.000579011
0.00057612
0.000566859
0.000548213
0.000569039
0.000516203
0.000174502
0.000128864
0.000290139
0.000362242
0.000142352
3.55141e-05
0.000431755
0.000274209
0.000259071
0.000247252
0.000134487
0.000244483
0.000134039
0.000113058
0.000128801
0.000204932
0.000184386
0.000177893
0.000129061
0.000200556
0.000153701
0.000156333
0.00014859
0.000136525
0.000162305
0.000386282
0.000244418
9.60107e-05
4.87852e-05
0.000163728
0.000209934
0
0
0
0
0
0
7.406e-05
0
0.00028232
7.71643e-07
0
3.9202e-09
0
0
0
0
0
0
0
0
1.67187e-11
0
0
0
0
0
0
0
0
0
0
0
0
0
0
0
0
0
0
0
0
0
0
0
0
0
0
0
0
0
0
0
0
0
0.000185788
0.000221585
0.000319695
0.000366093
0.000216271
0.000342306
0.000310813
0.000158441
0.00025262
0.000349461
0.00018215
0.000203532
0.000264676
0.000324588
0.000186017
0.000168384
0.000111688
0.000218843
0.000214239
0.000282986
0.000268345
0.000264643
6.08421e-10
0
4.75019e-11
0
0
0
0
0
0
0
0
0
0
0
0
0
0
0
0
9.23062e-05
5.80717e-05
0.000100514
0.000124217
6.88498e-05
0.000131161
0.000245942
0.000245449
0.000316091
0.000205227
0.000268646
0.00025413
0.000134783
7.46015e-05
0.000248612
5.86238e-05
0.000286849
0.000204978
0.000265185
0.000190302
0.000188967
0.000316751
0.000345449
0.000196292
0.000118036
0
0
0
0
0
0
0
0
0
0
0
0
0
0
0
0
0
0
0
0
0
0
4.8074e-07
0
0
0
0
0
0
0
0
9.16039e-05
0.000115721
8.93115e-05
0.000104167
8.95415e-05
8.67218e-05
0.000102161
8.91419e-05
0.00013694
0.000140268
9.33837e-05
0.000101141
0.000122658
0.000134368
0.000101473
0.000202773
0.000212312
0.000218141
0.000230686
0.00029672
0.000277973
0.000339627
0.000323774
0.000178225
0.000147124
0.000197588
0.000208832
8.92676e-05
0.000137756
0.000131392
8.38403e-05
8.76997e-05
0.000115032
0.00014242
0.000121684
0.000206235
0.000475998
0.000345669
0.000433287
0.000437037
0.000406963
0.000466122
0.000536573
0.000381583
0.00039419
0.000294018
0.0004605
0.000266103
0.000427798
0.000536953
0.000524649
0.000502548
0.000553857
0.000495015
0.000516666
0.000481736
0.00052116
0.000480893
0.000466282
0.000407894
0.000497839
0.000466835
0.000471781
0.000446739
0.000571527
0.00055122
0.000512857
0.000546164
0.00052881
0.000503625
0.000537357
0.000523052
0.000451546
0.000430332
0.000430728
0.000423882
0.000479717
0.000491475
0.000680193
0.00066462
0.00059713
0.000606535
0.000783214
0.000791607
0.000845807
0.000821774
0.000831476
0.000824478
0.000793083
0.000789496
0.000757003
0.000727499
0.000688798
0.000659373
0.000603319
0.000579755
0.000623782
0.000619673
0.000437949
0.00041662
0.000442395
0.000430174
0.000428467
0.000447818
0.000450431
0.000437682
0.000368599
0.000381952
0.000361211
0.000600626
0.000591955
0.000576789
0.000549762
0.000575215
0.000536388
0.000524399
0.000529416
0.000510662
0.00047025
0.000512946
0.000485749
0.000455434
0.000501799
0.000455879
0.000475296
0.000438115
0.000276363
0.000367527
0.000115502
0.000256573
0.000248518
0.000138253
0.000145274
0.000313426
0.000107285
0.000227167
0.000280422
0.000306698
0.00024448
0.000239637
0.000178357
0.000195639
0.000213746
0.000240379
0.000190655
0.000272608
0.000303457
0.000240268
0.000300075
0.000224768
0.000200803
0.000132816
9.4587e-05
7.89256e-05
0.000243267
2.74781e-05
4.90662e-05
6.51171e-05
1.41077e-05
7.99467e-05
6.40371e-05
0.000178987
9.28637e-05
0.000109999
0.000105695
0.000108977
0.000168241
0.000199209
0.00015649
0.000124927
8.09306e-05
0.000236836
0.000202678
0.000229076
0.000210786
0.000277365
0.000284768
0.000308
0.000336496
0.000328213
0.000278327
0.00037173
0.000348336
0.000413293
0.000421942
0.000480164
0.000475266
0.00051229
0.000499345
0.000471351
0.000502786
0.000532869
0.000544621
0.000572756
0.000638791
0.000651287
0.000719942
0.000761518
0.000712136
0.000747363
0.000783912
0.000762156
0.000797089
0.000718541
0.000804278
0.000766651
0.00066066
0.000631292
0.000690966
0.000613092
0.00062841
0.000600726
7.41295e-05
0.000199292
0.000173417
0.000313807
8.83527e-05
0.000285044
0.000133992
0.000352792
0.000100083
0.000133085
0.000144022
0.000118092
0.000200444
0.00024559
0.000126566
5.77825e-05
0.000131921
0.0001612
0.000291947
0.000183517
0.000231392
0.000193877
0.000154961
0.000157218
0.000114076
8.72766e-05
5.61168e-05
0.000204637
0.000295478
0.000394292
0.000182624
0.000389792
0.000307771
0.000357232
0
0
0
0
0
0
0
0
5.96468e-05
0
0
0
0
0
0
0
0
2.62501e-07
0
0
0
0
0
0
0
0
0
0
0
0
2.81736e-10
0
0
0
0
2.62152e-09
0
0
0
0
0
0
0
0
0
0
0
0
0
0
0
0
0
0
0
2.13335e-09
0
0
0
0
2.33936e-09
0.00040989
0.000593158
0.000411507
0.000541186
0.0004303
0.000236534
0.000263621
0.000441015
0.000187075
0.000327232
0.000177231
0.000159953
0.000195454
0.000152524
0.000288326
0.000154379
0.000282206
0.000290636
0.000233796
0.000214262
0.000189701
0.000219229
0.000271743
0.000279198
0.000270598
0
0
0
0
0
0
0
0
0
0
0
0
0
0.000202307
0.000252592
0.000257506
0
0
9.79872e-07
8.62728e-06
6.49134e-05
0.000119078
6.14478e-05
9.7703e-05
0.000133664
0.0001136
0.000196154
0.000306444
0.000290768
0.000288083
0.000402704
0.000199132
0.000212028
0.000345442
0.000379652
0.000141194
0.000369329
0.000196171
0.00011056
0.000467448
0.000496831
0.000122507
0.000561769
0
2.74452e-10
0
0
0
0
0
0
0
0
0
0
0
0
0
0
0
0
0
0
0
0
0
0
0
0
0
0
0
0
0
0
0
0
0
0
0
0.00011355
0.000172047
0.000178985
9.01408e-05
9.22576e-05
8.95986e-05
7.94167e-05
8.77643e-05
8.18673e-05
9.89158e-05
9.06366e-05
0.000113254
7.51278e-05
9.36212e-05
0.000107232
0.000125825
9.40317e-05
0.000222729
0.000226448
0.000248076
0.000260397
0.000295746
0.000310596
0.000330244
0.000346553
0.000167356
0.000166232
0.000196626
0.000214312
0.000144252
9.20731e-05
0.000131997
8.72613e-05
9.75569e-05
0.000160286
0.000118359
0.000173439
0.000415626
0.000287803
0.000297518
0.000357309
0.000553154
0.000268306
0.000710389
0.000647634
0.000493169
0.000491743
0.000500671
0.000474868
0.000454366
0.00045287
0.00034777
0.000329333
0.000543324
0.00055778
0.000527035
0.000517451
0.000502499
0.00051266
0.000545067
0.00052312
0.000465332
0.000481963
0.00048124
0.000477461
0.000485424
0.00050527
0.000690995
0.000770153
0.000767894
0.000605572
0.000660484
0.000861196
0.000844544
0.000814812
0.000835928
0.000898962
0.000880594
0.000886827
0.000829753
0.000814351
0.000765615
0.000719663
0.000723195
0.000676581
0.000649555
0.000588732
0.000580292
0.000616899
0.000638468
0.000439222
0.000428297
0.000471513
0.000486741
0.000447547
0.000487284
0.000469227
0.000500956
0.00042655
0.000449631
0.00038242
0.000406738
0.000608789
0.000631901
0.000607943
0.000576359
0.000606239
0.000572673
0.000557227
0.000550642
0.00053946
0.000554297
0.000522937
0.00055089
0.000545062
0.000452216
0.0005089
0.00044238
0.000411723
0.00044507
0.000469555
0.000584816
0.000593242
0.000557027
0.000407042
0.000475445
0.000160495
0.00031114
0.000312969
7.81623e-05
4.41142e-05
0.000368316
5.80583e-05
0.000245923
0.00018564
0.000330111
0.000225867
0.000185752
0.000315746
0.000196359
0.000251677
0.000247524
0.000207218
0.000172132
0.000256531
0.000196813
0.000227711
0.000200508
0.000206212
5.31999e-05
0.000121294
0.000114915
3.68235e-05
0.000151305
0.000108843
0.000100653
0.000100036
7.66945e-05
5.21785e-05
7.48412e-05
8.18481e-05
7.57083e-05
6.03949e-05
0.000106441
0.000174584
0.000132121
0.0002113
0.000155978
0.000147691
0.000137456
3.00502e-05
0.000243432
0.000220509
0.000210848
0.000160129
0.000259123
0.000313644
0.000320687
0.000380757
0.000330305
0.000333543
0.000373282
0.000415599
0.000426034
0.000469032
0.000486867
0.000443757
0.000489072
0.000516909
0.000493833
0.000561074
0.000550955
0.000639445
0.000622196
0.000700613
0.000706539
0.00078054
0.000753497
0.000802396
0.000793626
0.000832516
0.000788071
0.000834191
0.000761415
0.000692238
0.000794217
0.000644653
0.000721877
0.00064844
0.000159989
0.000249402
2.13587e-05
9.95494e-05
0.000227476
0.000192207
0.000269276
0.000493281
0.000354894
5.48242e-05
0.000153117
8.17833e-05
0.000182685
0.000126406
0.000182248
0.000236403
8.17023e-05
1.93143e-05
6.83763e-05
0.00011126
0.000214878
0.000134831
0.000151649
6.94719e-05
0.000106719
1.68401e-05
4.4139e-05
3.86184e-05
0.000346391
0.000301477
0.000124957
0.00034025
0.000185219
0.000240966
5.8514e-05
0.000166978
0
0
0
0
0
0
3.20869e-07
0
2.49321e-06
0.000277098
0
0
0
0
0
2.65135e-06
0
0
0
0
1.22923e-09
0
0
0
0
0
0
0
1.29582e-10
6.10865e-10
0
0
1.75401e-09
1.54216e-09
0
0
0
0
2.84302e-09
0
3.68906e-09
0
0
0
0
0
0
0
0
0
0
0
0
0
0
0
0
0
1.33964e-09
0
0
0
0
0
0
0
0
0.000528159
0.000621797
0.000999549
0.000687872
0.000221205
0.000322977
0.000639227
0.000372395
0.000707028
0.000231227
0.000336819
0.000145742
0.000222653
0.000409217
0.000170642
0.000192906
0.00022927
0.000223212
0.000147962
0.000153732
0.000280343
0.000283951
0.000211085
0.00027447
0.000236613
0.000209803
0.000260543
0
0
0
0
0
0
0
0.000149837
0.000161892
0.000238368
0
0
0
0
0.00023365
7.683e-05
5.1751e-05
1.83937e-05
1.70968e-05
0.000100854
6.73078e-05
2.08847e-05
0.000105942
9.61503e-05
0.000170834
0.000355491
0.000262463
8.0078e-06
0.000264573
9.07439e-05
0.000175664
0.000134529
8.83948e-05
0.000219473
0.000282931
0.000252645
0.000256045
0.000207242
0.000153395
0.000303287
5.57055e-05
0
0
2.59738e-10
0
0
0
0
6.59136e-10
0
0
0
0
0
0
0
0
0
0
0
0
0
0
0
0
0
0
0
0
0
0
0
0
0
0
0
0
0
0
0
0
0
0
0
0
0
0.000146764
0.000194044
0.000187017
0.00010855
0.000138025
5.78744e-05
8.73786e-05
8.03335e-05
5.96822e-05
5.69228e-05
7.57907e-05
5.11428e-05
9.13245e-05
0.00010163
6.17991e-05
5.50444e-05
0.000109396
7.55939e-05
0.000124432
0.000242984
0.000226851
0.000279786
0.000291396
0.000337436
0.000333685
0.000362798
0.000325855
0.000170812
0.000181758
0.000209699
0.000228208
0.000100178
0.000129432
0.000128906
0.000129756
0.000147312
0.00016958
0.000214658
0.000169163
0.000298465
0.000516799
0.000537705
0.00104491
0.000390464
0.000402328
0.000962469
0.00160032
0.00101373
0.00113458
0.00144586
0.000657236
0.000758859
0.000715657
0.000492418
0.000483663
0.00046866
0.000465219
0.000469781
0.000426749
0.000538114
0.00037257
0.000543753
0.000534035
0.000507878
0.000515874
0.000508515
0.000484279
0.000593044
0.000515147
0.000515131
0.000525369
0.000494259
0.000528298
0.000526205
0.000538243
0.000733454
0.0007989
0.000743304
0.000635096
0.00094337
0.000914141
0.000928161
0.00087863
0.000889098
0.000947074
0.000826621
0.000845567
0.00075975
0.00078392
0.000719073
0.000741616
0.000686136
0.000685031
0.000572703
0.000583225
0.000618923
0.000626258
0.000452682
0.000435465
0.000501697
0.000505411
0.00052202
0.000453925
0.000521614
0.000504232
0.000437345
0.000446789
0.000411682
0.000394521
0.000663927
0.000653703
0.000629637
0.000615167
0.000642811
0.000596362
0.000616726
0.000646423
0.00061838
0.000582146
0.000565959
0.000558886
0.000532376
0.00053218
0.00050189
0.000552576
0.000508769
0.000370207
0.000517454
0.000500921
0.000407673
0.000593325
0.000607363
0.000429067
0.00055894
0.000276983
0.000293314
3.42369e-06
0.000258087
7.95863e-05
0.00012831
0.000234284
0.00016687
0.000171477
0.000292647
0.000143105
0.000273843
0.000261451
0.000150929
0.00014778
0.000356777
0.000128792
0.000323524
0.000158189
0.000184952
0.000176596
8.78878e-05
0.000102991
0.000168403
7.66633e-05
0.000109027
0.000211637
0.000147513
3.56993e-05
2.84839e-05
8.14795e-06
0.0001539
0.000117165
7.93889e-05
9.19615e-05
8.07908e-05
0.000108432
8.21072e-05
0.000161802
0.000108568
0.000125948
0.000221471
0.000186799
0.00011947
0.000271447
0.000210269
0.000283964
0.000181063
0.000271777
0.000299471
0.000370501
0.000392961
0.000318102
0.000368794
0.000387395
0.000418697
0.000462093
0.000450214
0.000478003
0.000484912
0.000504855
0.000514166
0.00055904
0.000599991
0.000636054
0.000640517
0.000710649
0.000705546
0.000774259
0.000781488
0.000836313
0.000793087
0.000859479
0.00082088
0.0008576
0.000789259
0.00071422
0.000805796
0.000705843
5.9821e-05
1.78635e-05
3.50448e-05
3.12028e-05
0.000166874
0.000309642
0.000111423
0.000243903
0.000200767
0.000158582
8.10743e-05
0.000114448
8.37018e-06
0.000119305
0.00017026
0.000197726
0.000128391
0.000135369
0.000282745
6.01684e-05
5.97729e-05
0
2.29769e-05
2.95315e-05
7.47189e-06
1.95525e-05
2.81882e-05
1.5935e-05
6.99558e-06
0
2.3511e-06
0
0
0
0
2.35797e-07
0
0
0
0
0
0
5.52053e-07
0
0
0
0
0
0
0
0
0
0
0
0
0
0
0
0
0
0
0
0
0
0
0
0
0
0
0
0
0
0
0
0
0
0
0
0
0
0
0
0
0
0
0
0
0
0
0
0
0
0
0
0
0
0
0
0
0
0
0
0
0
0
0
0
0
0
0
0
0
1.54169e-11
0
0
0
0
0.000438175
0.000737551
0.00036182
0.000548758
0.00033143
0.000621541
0.000623601
0.00019782
0.0013385
0.000550485
0.00116391
0.00132101
0.000460853
0.000800013
0.000631302
0.000356971
0.000271308
0.000291443
0.000217325
7.67223e-05
0.000207469
0.00034536
0.000228258
0.000253244
0.000222666
0.000221078
0.000231316
0.000223141
0.000222694
0
0
0
0
0.000125002
0.000184524
0.000247896
0
0
0.000215729
6.43837e-05
0
2.38933e-05
0
0
3.51692e-05
0.000154773
3.08441e-05
3.5807e-05
6.3091e-05
1.36552e-05
1.81496e-05
5.68287e-05
0.000101619
0.000254114
0.000393667
0.000280724
0.00042193
0.000283066
0.000304845
0.000267301
0.00029435
0.000163303
6.62604e-05
0.00025073
0.000283488
0.000100958
0.000372468
0.000287491
0.000241138
0
0
0
0
0
0
0
0
0
0
0
2.26338e-05
0
0
0
0.00015271
0.000132076
0.000109887
0
0
0.000139571
0
0
0
0
0
0
0
0
0
0
0
0
0
0
0
2.01568e-09
0
7.101e-10
0
0
0
0
0
0
0
0
0
0
7.09277e-06
0.000336265
0
0
0
0
0
0
0.000212973
0.000187379
0.000181573
0.000148454
0.000147218
0.000106287
0.000103051
3.74834e-05
7.71297e-05
4.72397e-05
6.20764e-05
5.95308e-05
7.91059e-05
0.000118713
5.87822e-05
8.3701e-05
6.79738e-05
5.97407e-05
0.000113189
0.000102241
9.52178e-05
0.000344357
0.000366541
0.000333217
0.000279573
0.000233671
0.000327908
0.000287885
0.000332289
0.000218512
0.000209997
0.00026751
0.000221906
0.000127637
8.9856e-05
0.000112596
0.000172607
0.000211335
0.000192872
0.000226178
0.000222635
0.000489931
0.000377356
0.000676632
0.00157813
0.000522209
0.00193123
0.000349986
0.00230057
0.00126534
0.001026
0.0011352
0.000565874
0.000564479
0.000458065
0.000487928
0.000449985
0.00046519
0.000445695
0.000403042
0.000716526
0.000583811
0.000537647
0.000537238
0.000501913
0.00052223
0.000502946
0.000478366
0.000614908
0.000547699
0.000537668
0.000551247
0.000559618
0.0005417
0.000553098
0.00052578
0.000779508
0.000878888
0.000662596
0.000765207
0.00095891
0.000967122
0.000909908
0.00096963
0.000884522
0.000904721
0.000840045
0.000810035
0.000798454
0.000786427
0.000761501
0.000722662
0.000670381
0.000655251
0.00057703
0.000584058
0.000622122
0.000616243
0.00045411
0.000468985
0.000551082
0.000513596
0.000515069
0.000532924
0.000538491
0.000576079
0.000453632
0.000423539
0.000411172
0.000410905
0.000342344
0.00035251
0.000374518
0.000695736
0.000665487
0.000644757
0.000675633
0.000626629
0.000661297
0.000647465
0.000665894
0.00061912
0.000629383
0.000619495
0.000569259
0.000620867
0.000578981
0.000494165
0.00057794
0.000535027
0.000510908
0.000524637
0.000522569
0.000621145
0.000376622
0.000648524
0.000636073
0.000636218
0.000344878
0.000219371
0.000140114
6.13618e-05
0.000134339
0.000156889
0.000179035
0.000172166
0.000216306
9.6635e-05
0.00020261
0.000196504
6.92888e-05
8.31966e-05
0.000180059
0.000335761
0.000114989
0.000273763
0.00025051
0.000167409
1.62197e-05
0.00011831
6.12005e-05
0.000113565
0.000187634
0.000148894
0.000299902
7.86673e-05
7.42742e-05
5.50641e-06
0.000291877
0.00021569
4.34355e-05
5.72591e-05
0.000101226
9.01481e-05
8.17466e-05
6.75114e-05
8.44675e-05
0.00012368
0.000111476
0.000112276
0.000187986
0.000176474
0.000128793
0.000311304
0.000267306
0.00014126
0.000296882
0.00027622
0.000313456
0.000400287
0.000372266
0.000397094
0.000326724
0.000405751
0.000421854
0.000435894
0.000464175
0.000466865
0.000495805
0.000509716
0.000585325
0.000557891
0.00064208
0.000658737
0.000624198
0.000732724
0.000697793
0.000790183
0.000781785
0.000858847
0.000811291
0.000892114
0.000843027
0.000823245
0.000880538
0.000746252
0.000824743
4.88356e-06
4.86545e-07
2.91199e-05
1.67514e-05
6.52152e-06
1.25729e-05
1.65946e-05
0.000111438
1.37159e-05
0.000191079
0.000127204
0.000104411
5.24704e-05
0.000142158
0.00020828
0.000156157
0.00021831
0.000116136
0.000339684
0.000282944
0.000174753
0
0
0
0
0
4.71657e-06
0
0
0
0
0
0
0
0
4.57279e-07
0
0
0
3.55066e-07
0
0
0
0
0
0
0
0
0
0
0
0
0
0
0
0
0
0
7.23304e-07
0
0
0
0
0
6.48675e-10
8.67489e-10
1.40316e-09
0
0
0
0
0
0
0
0
0
0
0
0
0
0
0
0
0
0
0
0
0
0
0
0
0
0
0
0
0
0
0
0
0
0
0
0
0
0
0
0
0
3.02985e-09
0
6.44568e-10
0
2.22151e-09
0
0
0
0.000332886
0.000586681
0.000572726
0.000892122
0.000662366
0.00079607