/*--------------------------------*- C++ -*----------------------------------*\
  =========                 |
  \\      /  F ield         | OpenFOAM: The Open Source CFD Toolbox
   \\    /   O peration     | Website:  https://openfoam.org
    \\  /    A nd           | Version:  8
     \\/     M anipulation  |
\*---------------------------------------------------------------------------*/
FoamFile
{
    version     2.0;
    format      ascii;
    class       volScalarField;
    location    "5100";
    object      H;
}
// * * * * * * * * * * * * * * * * * * * * * * * * * * * * * * * * * * * * * //

dimensions      [0 1 0 0 0 0 0];

internalField   nonuniform List<scalar> 
526318
(
0.778707
0.738773
0.812323
0.720574
0.793755
0.74986
0.763997
0.681747
0.741797
0.619166
0.597781
0.721278
0.663093
0.70653
0.669217
0.694841
0.66377
0.866475
0.773653
0.821024
0.813361
0.770943
0.526778
0.770694
0.653788
0.52041
0.792321
0.792997
0.793835
0.808734
0.834246
0.881984
0.866202
0.746813
0.744567
0.714363
0.719297
0.814504
0.738392
0.686766
0.745226
0.718431
0.379774
0.436515
0.343663
0.388615
0.364403
0.483599
0.669239
0.561987
0.655151
0.647676
0.606244
0.563638
0.0669171
0.31464
0.311049
0.0963345
0.822272
0.839535
0.851694
0.809676
0.753976
0.879381
0.877748
0.83249
0.823706
0.821813
0.725871
0.717486
0.828812
0.607528
0.662168
0.556639
0.510884
0.503306
0.601435
0.593776
0.510075
0.551883
0.629645
0.633978
0.588066
0.54088
0.569595
0.639788
0.636652
0.61648
0.563522
0.639488
0.541978
0.492244
0.488985
0.41889
0.415207
0.417473
0.417557
0.413765
0.411938
0.411287
7.97638e-05
2.15653e-06
0.000997059
2.15384e-08
0.000950883
0.000148343
0.317998
0.134029
0.446913
0.409788
0.44988
0.568845
0.793633
0.683405
0.796477
0.805736
0.869794
0.846968
0.890249
0.410196
0.407314
0.409244
0.416145
0.371094
0.4073
0.319074
0.36311
0.274155
0.321071
0.272229
0.270292
0.257543
0.238163
0.225936
0.257296
0.196165
0.248062
0.204788
0.219306
0.163505
0.169238
0.190069
0.221999
0.21101
0.162794
0.16358
0.183024
0.170716
0.168017
0.174468
0.187911
0.175657
0.17733
0.176811
0.175085
0.145328
0.172337
0.179376
0.140787
0.0897232
0.176836
0.133103
0.180581
0.677394
0.770594
0.716741
0.700838
0.502156
0.571752
0.501795
0.502683
0.502339
0.502714
0.524418
0.503641
0.438899
0.409011
0.376153
0.315936
0.378821
0.416927
0.419757
0.415706
0.301872
0.356329
0.242414
0.250096
0.262665
0.248298
0.254204
0.253954
0.244061
0.24818
0.246002
0.231893
0.212703
0.241686
0.227218
0.200285
0.181444
0.204629
0.192613
0.186858
0.205947
0.19388
0.194532
0.164896
0.173027
0.205262
0.213631
0.656796
0.675044
0.705774
0.675984
0.663831
0.660667
0.660575
0.538494
0.575143
0.31737
0.308654
0.303529
0.422616
0.563795
0.429993
0.468471
0.474522
0.417348
0.400625
0.00140744
3.98827e-15
0.0329879
0.249754
0.00027704
9.76159e-09
0.000995694
0.000255125
0.000396609
0.000963311
0.871253
0.857397
0.90159
0.896043
0.861525
0.856195
0.763974
0.846755
0.691393
0.638175
0.638671
0.635336
0.64025
0.635214
0.62327
0.626702
0.540277
0.607468
0.422415
0.481249
0.408151
0.42239
0.00100536
4.55059e-11
0.000154997
0.00100202
0.000103589
0.000987509
2.32405e-15
0.0379834
0.421062
0.231362
0.469366
0.467749
0.577896
0.683321
0.804184
0.807626
0.841867
0.821701
0.888351
0.916801
0.389131
0.387935
0.347876
0.321988
0.218565
0.252363
0.184897
0.194286
0.183446
0.175972
0.160185
0.165442
0.0957031
0.120297
0.158667
0.188414
0.252233
0.210706
0.17759
0.174313
0.106477
0.102724
0.149964
0.205028
0.123366
0.161936
0.160194
0.133176
0.128821
0.0934133
0.0915794
0.0564224
0.0615002
0.05739
0.0488636
0.173345
0.207111
0.180454
0.207882
0.573653
0.536588
0.432886
0.520257
0.440803
0.49101
0.502541
0.490821
0.501273
0.502725
0.417019
0.326304
0.258498
0.238102
0.313758
0.258684
0.244069
0.354766
0.24549
0.294749
0.231187
0.233354
0.242505
0.236334
0.248249
0.242945
0.241393
0.244362
0.244885
0.2463
0.249824
0.247338
0.255711
0.253571
0.259563
0.237261
0.254598
0.233503
0.210891
0.207363
0.229063
0.264477
0.263027
0.233162
0.219083
0.245649
0.278865
0.278153
0.296017
0.262782
0.293588
0.300149
0.343737
0.293466
0.306494
0.325931
0.3554
0.484904
0.56018
0.47401
0.510559
0.585592
0.649981
0.561129
0.424931
0.537403
0.441014
0.454096
0.185526
0.14071
0.159145
0.155638
0.273262
0.395116
0.326129
0.392705
0.393885
0.410755
0.3974
1.14464e-08
0.000976027
0.00101729
4.3005e-05
0.0451438
0.00096474
0.000599399
0.00100998
0.000160582
0.00100962
0.000664765
0.00100889
0.000730728
0.000955715
0.000582482
0.000952703
0.897011
0.889306
0.924431
0.912471
0.890491
0.86337
0.787298
0.70493
0.638262
0.647707
0.628224
0.624077
0.603105
0.608155
0.587602
0.58344
0.53542
0.580453
0.505082
0.444552
0.391572
0.346932
0.000978762
0.00110992
0.00110997
0.000663073
0.00040408
0.000731205
0.000575983
0.000615669
0.00111
0.00110992
0.000809484
0.00100984
0.000703829
0.00100942
0.00127293
0.00017911
0.000294827
0.000487392
0.000977135
0.00096135
7.31626e-08
0.000978536
0.000795991
1.85613e-05
0.126703
0.000334194
0.334689
0.49298
0.505189
0.599553
0.819552
0.709824
0.830603
0.831643
0.844635
0.873694
0.907006
0.922181
0.305894
0.308228
0.263421
0.284725
0.223242
0.192139
0.183817
0.185579
0.175879
0.179706
0.133606
0.122659
0.0705829
0.0895558
0.144604
0.118053
0.0811259
0.141227
0.131553
0.144733
0.0548284
0.0503666
0.0773508
0.087663
0.0886972
0.038058
0.0444941
0.0404992
0.0463144
0.0288462
0.0282532
0.328772
0.303372
0.304751
0.298842
0.323699
0.43402
0.383429
0.368743
0.243751
0.299389
0.275647
0.285746
0.1855
0.127714
0.29706
0.415306
0.297509
0.304178
0.283423
0.365954
0.345603
0.419337
0.450766
0.374449
0.35293
0.394152
0.268822
0.242902
0.242293
0.238407
0.157526
0.206599
0.130379
0.087199
0.0686632
0.185561
0.184151
0.235799
0.237211
0.23302
0.23643
0.232089
0.241536
0.235254
0.247922
0.238531
0.260667
0.24922
0.25848
0.259888
0.281398
0.269818
0.294492
0.300654
0.251038
0.229153
0.296915
0.27471
0.267043
0.288726
0.270079
0.255775
0.311657
0.287743
0.39156
0.393186
0.3475
0.38198
0.407884
0.369325
0.458708
0.428907
0.499139
0.519865
0.539287
0.457876
0.451088
0.462044
0.416961
0.39919
0.364994
0.458626
0.313589
0.282601
0.339821
0.353821
0.0405735
0.0864064
0.167177
0.287135
0.320607
0.358582
0.258247
0.224052
0.184856
0.135423
0.000965631
0.000310861
4.28983e-06
1.84795e-07
0.000902462
0.0318686
0.000993891
0.000234006
0.00100979
0.000545241
0.00024476
0.000470015
0.000926911
0.000208943
0.000829572
0.000986846
0.000766556
0.000551352
0.000138864
0.000388285
0.00097475
0.00101
0.000134202
0.00100053
0.000976958
0.000380304
0.00118708
0.000966617
0.000993842
0.00118706
0.00118707
0.00118707
0.000889294
0.000999494
0.0009727
0.000201819
9.59135e-05
0.000989075
0.000892979
0.0009482
0.00100959
0.000881287
0.0010078
0.00100281
2.68833e-05
0.000974645
0.892032
0.903442
0.925341
0.91132
0.891517
0.818738
0.640573
0.723296
0.607132
0.608435
0.586211
0.586282
0.578256
0.578067
0.573919
0.572267
0.517431
0.488878
0.389891
0.432385
0.286983
0.324697
0.000851104
0.000624444
0.000948563
0.000967574
0.000969466
0.000982262
0.000986514
0.000879074
0.000998153
0.000675038
0.000677989
0.000965569
0.000971308
0.000759356
0.000380116
0.000991326
0.000690401
0.00100737
0.000803925
0.000839513
0.000369052
0.000975289
0.000889611
0.000439439
0.000917861
0.000719243
0.00103022
0.000583732
9.66099e-06
6.82991e-05
0.00101973
0.000723524
0.0110832
0.0129613
0.309225
0.134682
0.515488
0.475385
0.538823
0.648512
0.750089
0.834151
0.84532
0.830091
0.872878
0.903258
0.888027
0.888902
0.00101
0.000734461
0.000886173
0.0002675
0.000902098
0.000922867
0.00081396
0.000932228
0.000890554
0.000725685
0.000975785
0.00092383
0.000794854
5.44861e-07
0.000794959
0.00101
0.000170373
0.284502
0.285467
0.286844
0.250129
0.172425
0.204384
0.13709
0.126124
0.0924596
0.0821274
0.0389135
0.0354233
0.0688591
0.067375
0.0279762
0.0628132
0.0587067
0.0997712
0.0881877
0.0821406
0.00922389
0.000852309
0.000848611
0.0228364
0.0304025
0.0309857
0.00638596
0.00999558
1.97744e-05
0.000947852
0.00092102
0.00039548
0.527804
0.498365
0.534911
0.548159
0.496372
0.454324
0.617777
0.637408
0.706088
0.71377
0.260567
0.301192
0.350678
0.43594
0.262164
0.200828
0.232855
0.238175
0.0733011
0.141987
0.184265
0.0671395
0.279046
0.285149
0.281289
0.284626
0.307868
0.281004
0.296988
0.308403
0.193614
0.185649
0.0843981
0.169498
0.166275
0.119392
0.0765086
0.0841882
0.030461
0.0470112
0.0366113
0.120892
0.185949
0.121133
0.181707
0.236324
0.234357
0.234184
0.235982
0.240733
0.263318
0.249011
0.268745
0.268429
0.290204
0.279684
0.303924
0.301843
0.303262
0.29646
0.309553
0.304431
0.344532
0.319582
0.285626
0.284857
0.353654
0.322007
0.323383
0.364013
0.4083
0.407173
0.392792
0.403672
0.430104
0.489427
0.542496
0.56651
0.576101
0.555159
0.700911
0.638169
0.766669
0.805497
0.793914
0.837888
0.88934
0.756684
0.845696
0.863156
0.946159
0.994087
1.01394
1.03505
1.06626
1.00732
1.06383
1.01874
1.0958
1.09873
1.14855
1.11391
1.1766
1.20976
1.19651
1.14678
1.21482
1.24092
1.20395
1.2021
1.26815
1.24538
1.27676
1.21956
1.21728
1.28105
1.25284
1.20633
1.20317
1.23172
1.26715
0.248756
0.225774
0.399409
0.389522
0.358072
0.352915
0.354351
0.116514
0.249039
0.0003851
0.000245755
0.0833998
0.0708402
0.000900903
0.0283326
0.0152211
0.188213
0.0916794
0.0910674
0.0007176
0.00044118
0.00868623
0.0261078
0.000348565
0.00102853
8.41076e-07
5.8384e-05
2.00139e-05
1.89669e-05
0.00101
0.000966006
0.000995857
0.000658142
1.95644e-05
0.00140949
0.000842141
0.000928041
0.000844807
0.000732545
0.000254756
0.00069126
0.000943677
0.000831092
0.00121239
0.000643793
0.00012748
0.000146108
0.000949
0.000255762
1.12819e-05
1.61879e-05
0.000990101
0.000818938
0.00100231
0.000950901
0.000911134
0.000410555
0.000795659
0.000969656
0.001183
0.000921713
0.000995035
0.00101
0.00095407
0.000989318
0.00109905
0.000772845
0.00102862
0.000907884
0.00103395
0.000962543
0.00102264
0.000953088
0.00110024
0.00109992
0.000442808
0.000702665
0.00101441
0.000792174
0.000910287
0.000377029
0.000991017
0.000960908
0.00100983
0.00100977
0.000136678
0.000917006
0.000950381
0.000921886
0.000915695
0.000919934
0.000802378
0.00122125
0.00078434
0.000968314
0.882399
0.869575
0.840682
0.842572
0.758256
0.83069
0.654006
0.588387
0.578829
0.57957
0.580649
0.577179
0.519
0.520048
0.368332
0.327638
0.285088
0.46181
0.45928
0.409768
0.410223
0.409228
0.000647301
0.000462912
0.00108253
0.00108254
0.000962471
0.000414864
0.000711517
0.000410365
0.000985899
0.000971197
0.000161511
0.00100893
0.000972717
0.000941946
0.000297472
0.000985833
0.000726155
0.00091818
0.00021426
0.00071546
0.000558093
0.000951565
0.00121845
0.00121871
3.81621e-05
7.41593e-06
7.09696e-05
0.0109989
0.14306
0.0116185
0.305474
0.472119
0.504811
0.533803
0.614068
0.731577
0.79815
0.771288
0.817561
0.749831
0.800575
0.841671
0.797538
0.792923
0.00123662
0.000892447
0.00101
0.000849207
0.000999836
0.00120123
0.000756917
0.000798413
0.00120123
0.000998047
0.000965687
0.000963379
0.000144308
1.14836e-05
0.000875277
0.000491343
1.02268e-05
0.000656439
0.00098774
0.000236686
0.000248866
0.000717792
0.00096459
0.000795867
0.00190604
0.00101083
0.256578
0.266159
0.183415
0.19201
0.0725521
0.0970776
0.0374403
0.0360657
0.0348554
0.0369603
0.00783947
0.0104424
0.00103204
0.000843485
0.000315465
0.00142009
0.0779769
0.0408413
0.0735212
0.0774433
0.000509484
0.000316394
0.000342715
0.0008342
0.000383192
0.00087795
0.000717662
0.000602104
0.000980152
0.000764758
0.00124496
0.000743559
0.752026
0.749679
0.578685
0.488232
0.482272
0.466465
0.752031
0.655763
0.905129
0.981083
0.877979
0.805435
0.991647
0.972877
1.03556
1.08412
1.11594
1.11129
1.14609
1.11559
1.17286
1.20295
1.19679
1.20008
1.21631
1.20457
1.20761
1.25004
1.19503
1.18696
0.310837
0.235972
0.375527
0.457516
0.242604
0.193253
0.233179
0.238637
0.0623606
0.115029
0.000890577
0.121458
0.0092924
0.281425
0.226246
0.285021
0.273663
0.282981
0.175701
0.0796844
0.00252924
2.7587e-05
0.00138648
0.0391435
1.27028e-53
1.46638e-16
2.97866e-06
0.0010002
0.0462399
0.0424742
1.61894e-05
0.0585871
0.136161
0.0750601
0.182547
0.126572
0.170426
0.221691
0.261956
0.237324
0.272245
0.275878
0.289352
0.275712
0.302556
0.317218
0.324124
0.333208
0.330109
0.332282
0.368702
0.377173
0.368883
0.365039
0.367528
0.351088
0.38066
0.397221
0.4408
0.439059
0.401764
0.436704
0.430101
0.463109
0.498253
0.559923
0.586113
0.590869
0.605962
0.667526
0.757582
0.825026
0.843876
0.966262
0.841691
0.894081
1.04161
1.06492
1.06216
1.10156
1.14973
1.1995
1.21359
1.21539
1.24442
1.27396
1.29605
1.30154
1.29154
1.29641
1.29548
1.28251
1.21724
1.27888
1.24658
1.20179
1.20221
1.23701
1.26462
1.27662
1.20404
1.26585
1.22521
0.0469128
0.0372572
0.115389
0.184341
0.0874318
0.140653
0.282336
0.216636
0.244227
0.0779802
0.000776268
5.20172e-06
0.000766166
0.0486621
0.0383784
9.55692e-06
3.35042e-05
3.41957e-05
0.000992957
0.00199102
0.00182353
0.00521713
0.000880034
0.0130074
0.0292251
0.000871197
0.000837817
0.000904459
0.000715013
0.00125558
0.00125543
0.00086849
0.000172666
0.00071989
0.00140912
0.000981197
0.00084944
0.000478021
0.000315336
0.000559854
0.00101
0.000728534
0.00121192
0.000934557
0.000984534
0.000804561
0.000660221
0.000998234
0.000701989
0.00100779
0.000868975
0.00105276
0.000951502
0.000944002
0.000744326
0.00110078
8.5039e-05
0.00099613
0.000976554
0.000230362
0.000671473
0.000544652
0.000936558
0.000816347
0.00092088
0.000849439
0.000993967
0.000978339
0.000943996
0.000974885
0.00092222
0.000241802
0.00133594
0.000933459
0.00104184
0.000819968
0.00100962
0.000641972
0.000367709
0.000916152
0.000960434
0.000958363
0.000892128
0.00060177
0.000479733
0.793874
0.788551
0.77022
0.778773
0.705283
0.77228
0.5773
0.644391
0.539011
0.540473
0.483597
0.467224
0.409267
0.410164
0.325766
0.221221
0.194491
0.368458
0.40787
0.408981
0.410577
0.41253
0.00108269
0.000934732
0.00108265
0.000325075
0.000973634
0.000973647
0.00094649
0.000972052
0.00100548
0.000830393
0.000135327
0.000443538
0.00093376
0.000997208
0.00060297
0.00100999
0.00098232
3.53596e-05
0.000985985
0.000873381
0.000276721
0.000651691
0.000655599
0.00101
0.000321117
3.32274e-05
8.53965e-05
0.0104373
0.202064
0.0373875
0.34181
0.476307
0.452192
0.560968
0.729124
0.632504
0.707462
0.709363
0.699273
0.729341
0.784101
0.778538
0.784938
0.756494
0.000769413
0.000922585
0.000573493
0.000958878
0.000712787
0.000933944
0.000627141
0.000309821
0.000814544
0.000879841
0.000957505
0.000940359
0.00106153
9.38616e-05
0.000860208
0.000873917
0.00096514
0.000987798
0.000864313
0.0012353
0.000625476
0.0012336
0.0013667
0.000901385
0.00101
0.000860782
0.000668131
0.000489708
0.000136748
0.000142888
0.00098545
0.140284
0.139205
0.100157
0.078704
0.0368899
0.0577573
0.0232554
0.0231051
0.183387
0.119458
0.0998344
1.76959e-05
0.000826024
0.000408908
0.000999345
0.00135717
0.00135679
0.000372564
0.00100313
0.0598972
0.00444685
0.0399904
0.0290666
0.000830286
0.000589518
0.000349619
0.000338493
0.000591412
0.00101281
1.30661e-05
0.00052455
0.000737284
0.000689738
0.000594218
0.000809643
1.3172
1.325
1.35645
1.33088
1.37834
1.35959
1.38834
1.37996
1.4365
1.42409
1.39101
1.44634
1.41052
1.46136
1.29433
1.24888
1.26675
1.31559
1.29242
1.26584
1.26759
1.32328
1.31991
1.29861
1.28113
1.33021
1.31296
1.31867
1.34446
1.20197
1.2049
1.20481
1.20304
1.2188
1.2392
0.799378
0.742488
0.638072
0.538387
0.455248
0.533935
0.733837
0.711384
0.955068
0.976264
0.867058
0.943619
0.979526
1.02978
1.07302
1.11621
1.11039
1.1184
1.10723
1.14456
1.15416
1.18254
1.16742
1.17449
1.18082
1.19525
1.16332
1.16574
0.357605
0.289334
0.235265
0.219664
0.279699
0.459538
0.428308
0.16593
0.222988
0.081577
0.0250563
1.31142
1.33061
1.34747
1.35179
1.35805
1.36777
1.36913
1.39526
1.38035
1.39646
1.39718
1.44963
1.47328
1.49819
1.49506
1.50221
1.51523
1.53732
0.000972785
0.000904095
0.00137994
0.206957
0.0977607
0.262512
0.170199
0.0903934
0.00145968
0.000953474
0.00099869
0.00146443
0.000150505
0.000182594
0.000492478
0.000634227
1.56935e-49
6.10001e-120
0.0504486
0.000892613
0.000489283
0.0765612
0.0790704
0.0804245
0.124904
0.0860753
0.208154
0.160187
0.249552
0.217815
0.251095
0.271959
0.299568
0.327742
0.340252
0.33963
0.355308
0.342112
0.404287
0.38914
0.384775
0.381435
0.435999
0.416333
0.480475
0.443461
0.426086
0.46363
0.512812
0.501033
0.528629
0.560609
0.558069
0.5092
0.615079
0.645411
0.619699
0.605452
0.692176
0.770648
0.844024
0.907884
0.859239
0.870584
0.995855
1.058
1.09736
1.082
1.1479
1.17943
1.22294
1.2383
1.23301
1.25188
1.30935
1.28811
1.29435
1.30633
1.29811
1.31141
1.29039
1.2962
1.30463
1.29666
1.29735
0.0323206
0.0228442
0.0469896
0.000868022
0.000824792
0.0103291
0.000773662
0.0829269
0.00022693
0.000298643
0.00086047
0.000992538
0.000340811
0.000588318
0.00137865
7.96178e-05
0.000535364
1.05583e-05
4.28478e-05
0.00173461
0.000979679
0.00038211
0.00099157
0.000781179
0.000735431
0.00014751
0.000778417
0.00099389
0.00117123
0.00117093
0.00125523
0.000825468
0.00107886
0.000998384
0.000776109
0.00096702
0.000896738
0.000998449
0.00026155
0.000888291
0.00100984
0.000894905
0.00117104
0.000485031
0.000398457
0.000668916
0.00100238
0.000270015
0.000740386
4.39152e-09
3.00942e-06
0.00238151
0.000350275
0.00100904
0.000694792
0.000545923
0.000997667
0.00040823
0.00100993
0.000972649
0.000977525
0.000963111
0.000999516
0.000699535
0.00105941
0.000897806
0.000763017
0.000976892
0.00083073
0.00106022
0.00089779
0.000955844
0.000631827
0.000258775
0.000784731
0.000964465
0.000941166
0.000838222
0.00101
0.000334973
0.000769708
0.000685233
0.000978177
0.000925692
0.000935309
0.000920436
0.00091709
0.000695524
0.000567275
0.00194901
0.000206041
0.000674617
0.000835469
0.000978337
0.00194661
1.49474
1.45423
1.42511
1.52909
1.5622
1.55738
0.769032
0.771439
0.757253
0.754042
0.679501
0.743385
0.575699
0.497866
0.42533
0.442607
0.410522
0.409495
0.407729
0.40993
0.288003
0.203175
0.300845
0.371037
0.375487
0.00093523
0.00081301
0.000875173
0.000890082
0.00096194
0.0009764
0.000965395
0.000493094
0.000931051
0.000554111
0.00100943
0.00104062
0.000994845
0.000988004
0.00626252
0.0386385
0.00100998
0.000498781
0.000128694
0.000927014
4.59314e-06
0.000273214
0.000921556
0.000785239
0.00052174
0.000783296
0.000978157
0.178147
0.322405
0.429822
0.431078
0.750827
0.667802
0.684767
0.47356
0.554883
0.650928
0.698323
0.700669
0.70018
0.717927
0.746913
0.737964
0.000741589
0.00112272
0.000623083
0.000982796
0.000774373
0.000766328
0.00100904
0.000845157
0.000733129
0.000835941
0.000817811
0.000932446
0.000763197
0.000970381
0.00100996
0.000966175
0.00089544
0.0010186
0.000977061
0.000923422
0.000921514
0.000824304
0.000770427
0.000965472
0.00102045
0.000950084
0.000339879
0.000964761
0.000985312
0.000973622
0.00101
0.000984843
0.000871643
0.000978065
0.000827832
0.00110139
0.000946202
0.136721
0.174465
0.159209
0.10107
0.0988136
0.0732311
0.0923581
6.64046e-06
0.000765296
0.000278868
0.000921019
0.105707
0.090369
0.000406768
0.000925357
0.000612942
0.000965878
0.000490688
0.000432878
0.000981773
0.000136085
0.000853609
0.000719087
0.0013115
0.0100688
5.79952e-05
0.000680105
0.000702988
0.000420221
0.000653842
0.000551523
0.000693939
9.93495e-05
0.000358069
0.000994303
6.20238e-05
0.000979051
1.32182
1.33077
1.35715
1.37462
1.38309
1.38475
1.42797
1.40805
1.25759
1.2558
1.24194
1.25815
1.29507
1.2571
1.29317
1.27777
1.19076
1.17595
1.17395
1.20559
1.23711
1.20927
0.802648
0.725803
0.615191
0.703879
0.558267
0.466763
0.717063
0.716146
0.963942
0.961149
0.978401
0.877174
0.953668
1.06464
1.00924
0.956459
0.994865
1.09262
1.1086
1.09686
1.10613
1.10895
1.13539
1.15786
1.14926
1.15716
1.16046
1.16736
1.16114
1.15928
1.1628
0.206863
0.208283
0.346008
0.429072
0.209231
0.28807
0.442076
0.463929
0.208261
0.135084
0.0531334
0.117651
1.34196
1.29477
1.31381
1.36132
1.3614
1.36139
1.36892
1.3909
1.41512
1.42846
1.42411
1.42926
1.45767
1.49669
1.48079
1.49606
1.51431
1.55685
1.53537
1.36454
1.37618
1.39309
1.56061
1.56609
1.5654
0.00137896
0.00137847
0.00137933
0.000424054
0.015378
0.0301111
0.000831725
0.000984231
0.000784587
0.000659527
0.000757232
0.000881632
0.000659882
0.00124747
0.000617931
0.00124743
0.000969713
4.83971e-06
0.000988065
2.61918e-09
0.00177342
0.00621393
0.0781136
0.000922249
0.149054
0.179854
0.111916
0.157225
0.209959
0.184342
0.300529
0.252303
0.315527
0.329587
0.346602
0.339018
0.383297
0.423935
0.457738
0.457454
0.462914
0.446176
0.476994
0.461111
0.510105
0.509688
0.528245
0.529971
0.508126
0.51363
0.634514
0.67961
0.576849
0.640195
0.68972
0.654916
0.752016
0.800255
0.896377
0.931559
0.908959
0.994776
1.05276
1.14891
1.13769
1.19989
1.17161
1.26923
1.27823
1.27107
1.29958
1.32451
1.32622
1.38011
1.34672
1.3715
1.3489
1.31715
1.37046
1.32429
1.3401
1.3008
0.000332891
0.000345873
0.000811448
0.000602999
0.000780117
0.000964183
0.00057408
4.25255e-06
0.00101
0.000199154
0.000250337
0.000512431
0.000147325
0.000632165
0.000516111
0.000352278
0.000950922
7.66071e-05
0.000302915
2.88216e-05
0.000124015
4.98173e-05
5.50518e-07
0.000280948
0.000978557
0.000811187
0.000999883
7.26649e-05
0.00117083
0.0011709
0.00098292
0.000995782
0.000992745
3.82214e-05
0.00101
0.000912008
0.0010004
0.000112849
0.00044385
0.000919656
0.000130812
0.000297927
0.00194215
2.97911e-05
0.000984734
7.33018e-05
0.0009581
0.000364482
0.000990642
2.5498e-05
0.00100016
0.00222475
0.000972036
0.000134455
0.000941571
0.00123718
0.00115655
0.000451331
0.00100983
0.000979813
0.000465046
0.000983408
0.000969573
0.000835887
0.00105952
0.00105977
0.000935521
0.000975209
0.00106014
0.00105996
0.000955402
0.000698229
0.000711032
0.000919589
0.00134156
0.000109005
0.00134129
0.000907891
0.00098702
0.000966821
0.000953809
0.0010023
0.00104312
0.00104327
0.000849139
0.000805878
0.000827454
1.23268e-05
9.12481e-06
0
0.000994263
0.000799517
0.000430028
0.000885154
0.00115646
0.000898711
0.00100958
0.00100997
0.000996382
0.000998553
0.000946811
0.000914726
0.00101
1.45964
1.46503
1.4667
1.46583
1.5008
1.59936
1.58247
1.58466
1.60725
1.54105
0.675813
0.669788
0.605881
0.601688
0.566512
0.590009
0.503165
0.460122
0.445377
0.408785
0.384305
0.385879
0.29555
0.302525
0.176124
0.212897
0.218204
0.000529692
0.000965684
0.000913493
0.00101
0.000968125
0.000917688
0.000662243
0.00700469
0.146003
0.00630469
0.000919443
0.000220381
0.000954139
0.000961382
5.02113e-06
0.000368616
0.00101
0.000973131
0.000930143
0.00102241
0.000849804
0.00099186
0.000944045
0.000847483
0.00025022
0.544402
0.547442
0.589583
0.288453
0.43371
0.430987
0.461462
0.590051
0.659606
0.617208
0.533354
0.61361
0.636506
0.642063
0.562689
0.590681
0.000957717
0.000987853
0.0011228
0.00104171
0.000556038
0.000868573
0.00103089
0.00120234
0.000982633
0.00099413
0.000160682
0.00194652
0.0009748
0.000936631
0.000510229
0.0029472
0.00294271
0.00294582
0.000511781
0.000965914
0.000925294
0.00101859
0.000857577
0.00097678
0.000953538
0.0010293
0
0
0
0.000959356
0.000920205
0.000959732
0.00100136
0.00097522
0.000459811
0.000960441
0.00112931
0.000995168
0.00097325
0.000341416
0.000950085
0.000929535
0.000974858
0.000749087
0.000954209
0.15561
0.168312
0.168877
0.0403912
0.0611636
0.0211337
0.0203093
0.000939454
0.000811682
0.00089178
0.000479969
0.00109104
0.00209103
0.000959182
0.000206076
0.000406739
0.000503033
0.000242686
0.000584634
0.000389242
0.000834232
0.000270985
0.000575667
0.000741059
0.000877991
0.0263221
0.00097922
0.000155846
0.00113693
0.000642498
0.00119181
0.000312228
0.000747328
0.000730542
0.000346646
0.00101
0.000942721
0.000639874
0.00113632
1.32275
1.27912
1.36002
1.31962
1.32681
1.37858
1.3487
1.41322
1.39472
1.43803
1.40558
1.3754
1.44418
1.40074
1.22202
1.21716
1.21175
1.22688
1.23945
1.25095
1.25319
1.2597
1.1688
1.15839
1.18181
1.16743
1.19584
1.21019
0.802764
0.725707
0.640215
0.716503
0.517003
0.610734
0.715401
0.723623
0.952598
0.951333
0.955842
0.880569
1.04247
1.08767
0.997525
0.952926
1.09399
1.09567
1.10622
1.09235
1.12948
1.14909
1.15701
1.15706
1.15694
1.15166
1.16157
1.16401
1.15982
1.15058
0.200766
0.197999
0.363772
0.43986
0.340856
0.268376
0.50083
0.439525
0.174079
0.204209
0.170282
0.0875648
1.32074
1.37041
1.36691
1.37525
1.3993
1.38913
1.41976
1.43689
1.40829
1.42906
1.41519
1.42623
1.43552
1.45628
1.48177
1.49516
1.49539
1.54574
1.52218
1.57451
1.57962
1.44869
1.46188
1.5768
1.58508
0.000415286
0.000116264
0.000696944
0.000552548
0.000525579
9.76082e-05
0.000260243
0.00021678
0.00101
1.00585e-05
0.000927799
0.000258474
0.000618668
0.000657476
5.07035e-06
0.000780461
0.00177352
0.000551354
0.000872027
0.000687083
0.0005515
1.05825e-15
0.0631265
4.87494e-24
0.174934
0.171638
0.144448
0.0922564
0.206604
0.247249
0.30988
0.297735
0.317874
0.312907
0.423749
0.362277
0.469766
0.470116
0.488128
0.505115
0.466005
0.523863
0.571417
0.548766
0.530241
0.554075
0.608668
0.591383
0.575457
0.621191
0.705226
0.705628
0.700236
0.719925
0.848158
0.76403
0.929572
0.956578
0.951333
1.0207
1.09428
1.17197
1.18125
1.19563
1.24303
1.29366
1.32649
1.33061
1.36867
1.33793
1.39039
1.41097
1.40816
1.41038
1.40866
1.40246
1.40014
1.40832
1.36814
0.000848777
0.000100465
0.00613548
0.00102567
0.000692638
7.77248e-05
0.000686777
0.000538285
0.00079675
0.000621485
0.00103102
0.00127207
0.000456616
0.00127349
0.00127259
0.00127353
0.00127343
0.000997956
0.00127158
0.00609419
0.000984514
0.000638589
0.000184916
0.00208681
0.000402311
0.0020868
0.00208685
0.00043317
0.000328823
0.00100217
0.000993637
0.000687571
0.00086671
0.000735483
0.0010272
0.00104538
0.000779647
0.000959982
0.00100986
0.000887496
0.000962023
0.000979648
0.0017559
0.000988876
0.000146754
1.36216e-05
0.000607696
0.00096357
0.000988249
0.000479144
0.000826696
0.000996908
0.00100941
0.00031059
7.67849e-05
0.000987756
0.00100992
0.000817418
0.000560979
0.000847402
0.00101
0.000799183
0.000973032
0.000279366
0.000904827
0.00095865
0.000974975
0.00100223
0.000954241
0.000908728
0.000886752
0.00100949
0.00097168
0.000773375
0.000984106
0.000952799
0.000807921
0.00098992
0.000934564
0.000964099
0.000974876
0.000974485
0.00117481
0.00097996
0.000905098
0.000570635
0
0
0
0
0
0
0
0
0
0
0
0
0
0
0
0
0
0
0
0.00099334
0.000901314
0.000937661
0.000812305
0.000900149
0.000434354
0.000930602
0.00106941
0.000325168
0.000811332
0.000317982
0.000878445
1.63386
1.62779
1.64334
1.62938
1.64526
1.63768
1.47664
1.48469
1.54316
1.50547
1.61962
1.64122
1.60657
1.4897
1.44259
0.53956
0.549134
0.547644
0.536535
0.540414
0.474887
0.52054
0.303369
0.36548
0.225922
0.231442
0.171831
0.174327
0.174566
4.53839e-05
0.000891499
0.000510649
0.00124032
0.00095973
0.176072
0.00617582
0.000962393
0.000994829
0.000627257
0.000686377
0.000984192
0.000961616
0.000962997
0.00097202
0.000717645
0.000335301
0.000980998
0.00101052
0.000212018
0.00101082
0.000932938
0.0004632
0.000645619
0.542897
0.542457
0.550237
0.549601
0.54418
0.259367
0.370624
0.317522
0.433208
0.497185
0.5227
0.452513
0.535051
0.486787
0.486793
0.472033
0.000954778
0.00114184
0.000684006
0.000970576
0.000973219
0.000935143
0.000879156
0.00101629
0.000128434
0.000841644
0.0010149
0.00060269
6.92933e-05
0.000527482
0.000630683
0.000616055
0.000763669
0.000919235
0.000955891
0.00101584
0.000697926
0.000914762
0.000740767
0.000726241
0.000621516
0.00100989
0.000719968
0.000989335
0.000353362
2.15212e-05
0
0
0
0
0
0.000978181
0.000984255
0.000968882
0.00116846
0.00099406
0.00106342
0.00080046
0.000833207
0.000947534
0.00106772
0.000977372
0.000845929
0.000979339
0.000964268
0.000787048
0.000895145
0
0
0
0
0
0
0.147586
0.0766163
0.0690054
0.000731034
0.000252204
0.000705021
0.000836
0.00096263
0.000791447
0.000311719
0.00100956
0.000848168
0.000375808
0.000550644
0.00033854
0.000760208
0.000752664
0.000795758
0.000905726
0.000971356
0.000989688
6.61504e-05
0.0202665
0.000884201
0.000486704
0.000725089
0.000634249
0.000404769
0.000958393
0.00027789
0.000628837
1.31742e-05
0.000467482
0.00183909
0.00183672
0.000702771
0.000959699
0.000281529
0.000798649
0.00100972
0.000818552
1.27937
1.27872
1.28602
1.28766
1.30044
1.30093
1.34839
1.37762
1.36033
1.35085
1.45617
1.40023
1.36515
1.21215
1.20736
1.24273
1.22237
1.25617
1.25299
1.27588
1.26274
1.16068
1.17217
1.19596
1.17509
1.19028
1.19741
0.841414
0.758439
0.683793
0.722652
0.671371
0.577167
0.757672
0.716165
0.954725
0.955037
0.913526
0.960511
1.04659
1.09423
0.957612
1.0018
1.09884
1.09368
1.11665
1.09693
1.13567
1.15204
1.15786
1.14585
1.15562
1.15032
1.16144
1.15263
1.15606
1.15172
0.199036
0.252935
0.441145
0.418111
0.34772
0.420964
0.44114
0.519861
0.18972
0.18894
0.179201
0.0983474
5.54697e-05
0.000589995
0.0577323
1.38566
1.41241
1.42862
1.43822
1.44363
1.4595
1.46145
1.46779
1.49869
1.47666
1.49136
1.46177
1.49491
1.5025
1.52697
1.54812
1.55853
1.55464
1.60481
1.60885
1.63445
1.60762
1.52225
1.5268
1.6477
1.64263
0.00016622
0.000334169
0.00101
8.47757e-06
0.000729054
0.00122343
0.00122333
0.000976129
0.000305007
0.000146431
0.000166528
0.00190718
0.00124988
0.00046959
0.000822227
0.000857149
0.00100232
0.000626775
0.000324927
0.000824137
8.63116e-05
0.000990502
0.011135
0.0316026
0.016555
0.113807
0.189446
0.0745536
0.293397
0.230446
0.297633
0.294165
0.398847
0.324477
0.468367
0.486965
0.479896
0.49815
0.609858
0.586328
0.555575
0.608232
0.62062
0.614714
0.614066
0.608351
0.629323
0.618695
0.703203
0.74583
0.780163
0.74118
0.781559
0.811444
0.944563
0.879412
0.96665
0.956059
1.03465
1.11192
1.19966
1.19526
1.23197
1.26935
1.34827
1.33307
1.35802
1.35994
1.38907
1.40341
1.42005
1.41374
1.42205
1.42359
1.40781
1.41695
1.40285
1.40843
0.000992085
0.000866996
0.00101104
0.00067291
0.000956439
0.000657298
0.000566723
0.000851004
0.000642839
0.00127141
0.00034184
0.000777264
0.000295436
0.0012719
0.00127264
0.00127269
0.00127291
0.00127183
0.00127247
0.000318881
0.000371652
0.00100989
0.000695569
0.000938422
0.000788581
0.00100179
0.000989617
0.000997704
0.000180038
0.000954666
0.000624923
0.00101
0.000209386
0.000637794
0.00100863
0.00104527
0.000660545
0.000881619
0.000973377
0.00357192
0.000111386
0.000210438
0.00024578
0.00100992
0.000871155
6.51125e-09
0.000980723
0.00100983
0.000268501
0.000848872
0.00100647
0.000131712
0.00100976
0.000959372
0.000184232
0.000986414
0.000975827
0.000983948