/*--------------------------------*- C++ -*----------------------------------*\
  =========                 |
  \\      /  F ield         | OpenFOAM: The Open Source CFD Toolbox
   \\    /   O peration     | Website:  https://openfoam.org
    \\  /    A nd           | Version:  8
     \\/     M anipulation  |
\*---------------------------------------------------------------------------*/
FoamFile
{
    version     2.0;
    format      ascii;
    class       volScalarField;
    location    "12300";
    object      nut;
}
// * * * * * * * * * * * * * * * * * * * * * * * * * * * * * * * * * * * * * //

dimensions      [0 2 -1 0 0 0 0];

internalField   nonuniform List<scalar> 
526318
(
8.53428e-05
0.000126963
0.000182007
5.64824e-05
9.31705e-05
0.000162729
0.000254371
0.00023495
0.00016225
0.00010774
3.1565e-05
0.000102678
0.000151008
0.000130258
0.000111697
0.000145556
0.000196687
0.000128792
9.01881e-05
4.29475e-05
0.000116437
0.00020474
0.000183217
0.00022338
9.42622e-05
2.98503e-05
0.000114266
0.00025139
0.000222024
0.000116203
0.000154205
0.000151114
0.000138918
0.000182855
0.000182867
0.000116023
0.000217043
0.00011025
9.65324e-05
0.000123354
0.000195076
0.000156864
8.34229e-05
3.84266e-05
0.000146125
0.000207273
9.40056e-05
6.86355e-05
0.000117795
0.000134657
0.000202265
5.21352e-05
2.23966e-05
6.8974e-05
0
0.000142726
7.92275e-05
2.40908e-05
0.000123162
0.000147187
0.000144638
9.24785e-05
0.000123745
0.000141292
0.000136123
0.000166865
0.000222676
0.000161924
0.000192339
0.000133323
0.00017776
3.5678e-05
0.000210452
0.000122385
0.000132673
7.50089e-05
0.000177629
0.000179893
0.000136805
0.000121914
0.0001296
0.00014171
0.00010839
0.000169419
0.000134587
5.34532e-05
0.000100875
0.000104796
4.88857e-05
0.000119157
6.8556e-05
8.74116e-05
6.87426e-05
1.47588e-05
4.99249e-05
2.58501e-05
5.43542e-05
5.7186e-05
2.80464e-05
4.48061e-05
0
0
0
0
0
0
6.55351e-05
1.38207e-05
0.000112366
7.84245e-05
0.000130424
0.000187135
0.00024709
0.000130678
4.57082e-05
0.000149867
9.6614e-05
9.9301e-05
0.000142795
3.51397e-05
2.67669e-05
5.377e-05
4.90468e-05
4.9816e-05
9.08381e-06
3.56713e-05
8.78154e-05
6.81638e-05
3.96671e-05
4.82204e-05
5.62747e-05
5.86384e-05
3.87029e-05
3.11228e-05
4.25128e-05
3.72332e-05
3.07413e-05
1.67899e-05
3.15117e-05
1.30912e-05
2.92229e-05
1.52866e-05
3.11622e-05
1.95675e-05
1.52763e-05
1.47458e-05
1.86304e-05
5.37918e-06
1.50198e-05
1.99602e-05
1.80717e-05
3.04346e-06
5.968e-06
4.62476e-06
1.845e-05
7.93115e-06
9.31944e-06
1.72066e-05
2.1062e-05
2.87882e-06
5.07851e-06
1.27079e-05
1.34828e-05
0.000134657
5.451e-05
8.9926e-05
8.48521e-05
3.50955e-05
3.9958e-05
7.55772e-05
4.288e-05
7.10443e-05
0.000109301
0.000104652
0.000178229
6.92102e-05
7.70023e-05
6.64238e-05
4.92974e-05
2.94996e-05
1.53138e-05
4.43621e-05
4.0605e-05
7.7214e-05
6.55593e-05
7.39263e-05
6.232e-05
3.21303e-05
5.52237e-05
2.87845e-05
3.33725e-05
5.56632e-05
3.63305e-05
6.55031e-05
6.70916e-05
5.58608e-05
3.84697e-05
2.45318e-05
3.83198e-05
1.42424e-05
5.31936e-05
4.02933e-05
2.80442e-05
2.59508e-05
3.86181e-05
4.31881e-05
3.66859e-05
8.71905e-05
7.83951e-05
5.71379e-05
6.85668e-05
0.000108611
6.91749e-05
4.70028e-05
0.000110329
0.000159661
6.15498e-05
6.28848e-05
0.000169032
4.07937e-05
6.47136e-05
8.22277e-05
0.000148279
6.19002e-05
0.000108294
1.0752e-05
9.97368e-05
3.24133e-05
4.35849e-05
0
0
0
0.000144992
0
0
0
0
0
0
0.000156974
0.000219872
0.000149129
0.000165168
0.000153531
0.00020929
0.000168993
0.000196142
0.000257197
0.000150668
0.000120671
0.000110996
7.04261e-05
0.00010892
2.11147e-05
7.31216e-05
4.87578e-05
9.42352e-05
3.89841e-05
6.35728e-05
4.50405e-05
3.67014e-05
0
0
0
0
0
0
0
0
0.000115953
0.000112531
9.30605e-05
0.000156115
8.20869e-05
0.000212965
6.97816e-05
0.000208897
0.000147495
0.000102748
0.000127785
5.48844e-05
1.0833e-05
2.40665e-05
4.47834e-05
3.51601e-05
3.15613e-05
2.53355e-05
2.19476e-05
2.47879e-05
5.45115e-06
2.21695e-05
6.74225e-06
1.16313e-05
2.8506e-06
4.38783e-06
2.34039e-05
6.28059e-05
4.93671e-05
8.67285e-05
6.0232e-05
2.34956e-06
1.89533e-05
5.37362e-06
6.66098e-06
8.40256e-05
3.32084e-05
1.36762e-05
1.8823e-05
1.22704e-05
9.9915e-06
3.65096e-06
1.91373e-06
0
0
0
0
2.69878e-05
9.42426e-05
1.31471e-05
6.38609e-05
6.48712e-05
0.000119172
0.000104501
6.18016e-05
8.51116e-05
0.000102158
0.000121165
4.59385e-05
5.82549e-05
0.000122182
0.000195131
5.85101e-05
5.74132e-05
1.75398e-05
9.59481e-05
2.11506e-05
2.6554e-05
4.50233e-05
9.4769e-05
6.41167e-05
6.16096e-05
1.56611e-05
2.50526e-05
3.68177e-06
2.55157e-05
3.13219e-05
5.79226e-05
4.50637e-05
4.69205e-05
4.66754e-05
5.22783e-05
3.94946e-05
6.40804e-05
1.35383e-05
6.64394e-05
4.39389e-05
0.000121663
5.60466e-05
4.00992e-05
3.33455e-05
4.28101e-05
0.000134132
4.61748e-05
5.45363e-05
5.3064e-05
3.20559e-05
0.000142147
0.000133786
7.86733e-05
0.000147598
0.000163171
7.42177e-05
8.56482e-05
9.31237e-05
9.90797e-05
5.57596e-05
0.000107538
0.000116416
0.000103032
0.000154538
9.66904e-05
2.29335e-05
0.000203129
4.95993e-05
8.79378e-05
0.000116495
6.56504e-05
0.000108025
3.90487e-05
4.09654e-05
7.38835e-05
6.57639e-05
6.53882e-05
6.95418e-05
2.73307e-05
6.486e-05
9.32537e-05
3.01875e-05
5.97354e-05
0
0
0
0
0
0
0
0
0
0
0
0
0
0
0
0
9.72374e-05
0.000177818
5.65698e-05
0.000106545
0.000157347
9.22977e-05
0.000167574
9.18027e-05
6.71748e-05
0.000113944
5.70086e-05
8.66546e-05
4.69784e-05
5.03961e-05
4.3693e-05
3.98301e-05
2.61847e-05
6.6781e-05
3.56468e-05
2.74963e-05
1.74129e-05
1.76367e-05
0
5.95024e-10
1.45625e-10
0
0
0
0
2.26918e-10
5.96431e-10
5.10909e-10
0
0
0
0
0
0
0
0
0
0
0
0
0
0
1.31104e-05
0
0.000131927
0.000118063
0.000112208
5.41696e-05
0.000181687
0.000102711
0.00010542
0.000156073
0.000165758
6.95462e-05
0.000141905
2.53638e-05
2.9303e-05
1.52089e-05
2.2239e-05
5.04822e-05
2.39701e-05
2.02724e-05
2.16646e-05
5.57875e-06
1.78303e-05
1.96562e-05
8.5013e-06
1.74556e-05
0
1.63577e-07
4.93366e-05
1.06693e-05
2.11428e-07
5.02514e-05
8.62597e-06
2.5698e-05
0
0
0
0
0
0
0
0
0
0
0
6.36931e-05
0.000107409
5.63882e-05
5.05894e-05
4.57549e-05
0.000129645
5.65867e-05
5.87102e-06
8.29658e-05
0.000195567
5.54412e-05
6.38659e-05
0.000110858
3.38272e-05
7.74299e-05
4.67893e-05
3.44737e-05
7.09555e-05
6.74066e-05
0.000104365
6.58147e-05
0.000145574
0.000168305
6.71823e-05
3.14375e-05
0.000166752
4.85473e-05
4.27612e-05
4.36628e-05
5.98814e-05
3.94771e-05
0.000137489
1.68415e-05
0
0
2.2361e-05
1.3627e-05
2.94833e-06
6.01079e-05
2.98566e-05
6.96594e-05
4.25233e-05
7.15772e-05
4.00414e-05
3.49726e-05
4.23379e-05
2.91334e-05
2.90402e-05
5.07146e-05
5.47955e-05
3.96238e-05
9.88803e-05
4.44297e-05
7.29595e-05
6.76639e-05
1.61247e-05
8.88231e-05
2.43656e-05
9.7937e-05
6.27054e-05
5.87596e-05
9.34413e-05
3.54366e-05
5.53673e-05
9.64435e-05
7.10631e-05
4.31595e-05
0.000111267
2.98438e-05
0.000130711
4.25831e-05
0.000126386
1.55377e-05
0.000110291
0.000117847
4.60431e-05
4.88908e-05
6.62767e-05
0.000103814
8.80623e-05
6.72649e-05
9.72504e-05
9.94027e-05
8.11409e-05
0.000117117
8.25483e-05
0
7.0372e-07
4.88116e-05
3.64428e-05
0.000122703
1.59809e-05
6.45975e-05
4.70196e-05
5.28717e-05
3.75073e-05
0
0
0
0
0
0
0
0
0
0
0
0
0
0
0
0
0
0
0
0
0
0
0
0
0
0
2.20969e-09
0
2.44413e-10
0
9.06759e-10
2.38486e-09
0
0
0
0
0
0
0
0
0
0
0
0
0
0
6.80396e-05
7.94461e-05
0.000124866
2.48038e-05
9.60962e-05
5.50391e-05
6.16012e-05
4.57276e-05
4.02423e-05
4.22776e-05
4.37995e-05
1.53154e-05
1.4503e-05
5.90768e-05
1.77807e-05
3.41531e-05
9.51906e-06
2.11112e-05
9.9268e-06
1.93195e-05
7.46236e-06
5.66036e-05
0
0
0
0
0
0
0
0
4.895e-09
0
0
0
0
0
0
0
0
0
0
0
0
0
0
0
0
0
0
0
0
0
0
0
0
0
0.000134642
1.72665e-05
0.000119656
0.000197939
0.000117771
0.00010295
0.00015773
9.16953e-05
9.30571e-05
0.000185585
0.000232848
0.000128362
0.000108755
0.000167734
8.37497e-10
0
0
0
0
0
0
0
0
0
0
0
0
0
0
0
0
5.64033e-05
7.40444e-06
1.8521e-05
1.27454e-05
8.08434e-06
2.23204e-05
1.66046e-05
2.48971e-05
0
0
0
0
0
0
0
4.14614e-07
0
6.62113e-06
0
3.23714e-07
0
0
0
0
0
0
0
0
0
0
0
0
0.000118105
3.02904e-05
0.000142549
0.000254199
9.6598e-05
0.000151338
0.000188416
0.00017274
0.000120506
0.00019218
0.000140392
7.50889e-05
9.82669e-05
7.14409e-05
0.000142138
0.000107031
4.81266e-05
0.000143472
0
2.34233e-05
5.89723e-05
0
6.57034e-05
0.000167991
2.94778e-05
0.000125334
0.000161659
7.2236e-05
0.000129341
0.000141787
0.000181883
0.000125047
0
0.000103314
9.14518e-05
2.72544e-05
1.77115e-06
1.69951e-05
0
0
0
9.27193e-06
3.78959e-05
1.07574e-06
9.22273e-06
3.14653e-05
4.33598e-06
9.27639e-06
2.7009e-05
8.62189e-06
7.13278e-05
5.84493e-05
5.16794e-05
8.02764e-05
3.8286e-05
7.04304e-05
8.65259e-05
5.90046e-05
4.64623e-05
2.43341e-05
0.000101004
6.82842e-05
2.93612e-05
3.9745e-05
7.94219e-05
3.52018e-05
7.40344e-05
0.000105282
6.34843e-05
0.000110057
4.12038e-05
0.000163948
7.96672e-05
0.000138197
0.000177148
0.000176539
0.000266596
0.000209944
0.000189769
0.000230109
0.000187705
0.000206497
0.000222941
0.000297766
0.000250727
0.000205506
0.000221287
0.000191085
0.000271148
0.000214427
0.000229919
0.000196034
0.000194468
0.000199782
0.000193229
0.00023691
0.000223803
0.000307797
0.000282281
0.000233141
0.000282621
0.000304115
0.000301484
0.0003236
0.000266936
0.000317118
0.000270187
0.000391827
0.000292422
0.000404069
0.000368698
0.0003764
0.000470618
0.000438258
0.000401725
0.000417164
0.000422778
0.000426319
0.000415766
0.000425325
0.000481446
4.56875e-05
1.79816e-05
5.2819e-05
7.9602e-05
0.000123363
9.67734e-05
4.00865e-05
1.99294e-05
1.99583e-05
0
0
0
0
0
0
0
9.96437e-05
2.23113e-06
2.37582e-06
0
0
0
0
0
0
0
0
0
0
0
0
0
0
0
3.89938e-09
0
0
0
0
0
0
0
0
1.65421e-08
0
0
0
0
0
0
0
0
0
0
0
0
0
0
0
0
0
0
0
0
0
0
0
0
8.08285e-10
1.07682e-09
0
7.69783e-10
0
0
0
0
0
0
0
0
0
0
0
0
0
0
0
0
0
0
0
0
0
0
0
7.33788e-05
3.94518e-05
9.37175e-05
0.00014397
9.59755e-05
1.32204e-05
9.89539e-06
6.92577e-05
6.23253e-05
1.95429e-05
3.09329e-05
2.4026e-05
1.79411e-05
3.08522e-05
5.2619e-05
1.04633e-05
4.29626e-05
3.43836e-05
2.09615e-05
8.65054e-06
1.09777e-05
5.79804e-05
0
0
4.91628e-09
2.76208e-09
0
0
0
0
5.32488e-10
0
0
0
0
0
0
0
0
0
0
0
0
0
3.71004e-09
3.08432e-09
0
0
0
0
2.05343e-05
0
3.76459e-05
0.000151459
9.80794e-05
0.000143211
0.000214786
0.000192115
0.000160533
0.000262808
0.000244392
0.000243156
0.000221262
0.00020379
0.000168562
0.00016202
5.50411e-09
0
0
0
0
3.43067e-11
0
0
1.25604e-11
0
0
0
0
0
0
0
0
0
0
0
0
0
0
0
4.71396e-07
0
3.15055e-05
2.09396e-05
1.47929e-05
1.21068e-05
0
3.16794e-06
0
0
0
1.80076e-09
0
0
0
0
0
0
0
0
3.28923e-08
4.78262e-07
0
0
0
0
0
0
0
0
0
0
3.96717e-10
0
0.000157672
0.000111531
0.000145399
6.71449e-05
5.76379e-05
0.000140184
8.67182e-05
0.000131074
0.00024503
0.00018467
0.000177072
0.000160363
0.000242998
0.000287869
0.000384113
0.000343224
0.000349371
0.000339632
0.000377979
0.000352337
0.000401384
0.000401507
0.000418399
0.000388754
0.00042197
0.000421748
0.000428202
0.000469335
0.000368585
0.000407507
5.25127e-05
6.13209e-05
0.000128025
4.61909e-05
0.000102513
6.20665e-05
3.93534e-05
8.84335e-05
3.95311e-07
8.08303e-06
0
1.18071e-05
0
5.72828e-05
0.000122506
0.000121964
0.000271786
0.000127608
0.00010702
4.48648e-07
0
0
0
0
0
0
0
0
0
0
0
0
1.10334e-05
0
3.03671e-05
1.54811e-05
9.84709e-06
4.832e-05
4.83509e-05
5.92294e-05
2.85398e-05
4.92039e-05
5.34736e-05
5.24756e-05
8.95149e-05
4.86088e-05
8.3894e-05
3.80577e-05
4.47059e-05
4.53683e-05
9.9824e-05
0.000118499
9.58493e-05
0.000115849
0.000113377
0.0001494
0.000181465
0.000110331
0.000101849
0.000118995
0.000172698
0.000152144
9.67511e-05
0.000158315
0.000201998
0.000158309
0.000154934
0.000115811
0.000165145
0.000105633
0.000298067
0.000229609
0.000325265
0.000153233
0.000198021
0.000233287
0.000216974
0.000175063
0.000223552
0.000259495
0.00022766
0.000320188
0.000250773
0.00035731
0.000319524
0.000434637
0.000403228
0.000406642
0.000406974
0.000419479
0.000411617
0.000400872
0.000479866
0.00041435
0.000426582
0.000447058
0.000472892
0.000421862
0.000395409
0.000392801
0.000444687
0.00039546
0.000457575
0
0
5.27045e-06
7.76892e-05
0
4.97685e-05
0.000104578
5.94073e-05
0.000128649
0
0
0
0
9.02362e-07
0
0
0
0
0
2.86945e-09
9.45726e-09
0
0
0
0
0
0
0
0
1.99052e-09
8.4195e-09
0
0
0
4.68536e-09
0
0
0
0
0
0
0
1.5065e-08
0
0
0
0
0
0
0
0
2.5386e-11
0
0
0
0
0
0
0
0
0
0
0
0
0
0
1.6375e-09
0
0
0
0
0
0
0
0
0
0
0
0
0
0
0
0
0
0
0.000100483
4.54239e-05
0.000140478
0.000124469
5.28305e-05
5.36121e-05
3.55324e-05
6.37394e-05
3.71428e-05
3.77024e-05
2.47189e-05
2.61709e-05
2.12119e-05
3.35626e-05
5.15981e-05
1.07594e-05
2.11333e-05
5.50994e-05
3.60537e-05
2.60462e-05
4.02512e-05
2.26554e-05
7.88347e-09
0
8.63187e-09
0
0
0
0
0
0
0
0
0
0
0
0
0
0
0
0
0
0
0
0
0
0
0
0
0
6.85307e-05
0
5.18761e-05
4.41038e-05
5.88901e-05
8.32054e-05
0.000149169
0.000139723
0.000219781
0.000148468
0.000119228
0.000177626
9.04925e-05
0.000128524
0.000141674
0.000163096
0
0
0
0
0
0
0
0
0
0
0
0
0
0
0
0
0
0
0
0
0
0
3.59947e-07
0
0
0
0
0
0
0
0
2.22113e-06
1.22694e-05
3.0649e-06
0
0
0
0
0
1.25673e-05
1.13378e-05
3.35718e-06
0
0
0
0
4.25802e-10
6.8228e-10
0
0
0
0
0
0
0
0
0
0
0
0
0
0
0
0
0
0
0.00030532
0.00034348
0.000356675
0.000372071
0.000399851
0.000333168
0.00036907
0.000341925
0.000348644
0.000368881
0.000277858
0.000356026
0.000330803
0.000357179
0.000357051
0.000405445
0.00040572
0.000369068
0.000335496
0.000361458
0.000357329
0.000342289
0.000253152
0.000292674
0.000344035
0.00033993
0.000254282
0.000317575
0.000355043
0.000466786
0.000478058
0.000514915
0.000477527
0.000455514
0.000478028
0.000204895
0.000133083
0.000178558
9.57005e-05
5.64627e-05
0.00013523
0.00012525
5.60453e-05
0.000224753
0.000221857
0.000206925
0.000165541
0.000341772
0.000292775
0.000434557
0.000435597
0.000417189
0.000447291
0.000454493
0.000425755
0.000422922
0.000429252
0.000418801
0.000391221
0.000425238
0.000401449
0.000428522
0.00033897
8.57385e-05
5.54104e-05
8.91651e-05
5.10625e-05
9.5363e-05
0.000107977
7.34653e-05
7.47527e-05
4.13845e-05
1.02773e-06
0
0.000372401
0.000280521
0.000335035
0.000312054
0.000295788
0.000341081
0.000287008
0.000341589
0.000345009
0.000362962
0.000413725
0.000375953
0.000332551
0.000319456
0.00029749
0.000401365
0.000396369
0.00031464
0
0
1.14855e-09
8.37347e-05
9.45282e-06
0.000195219
8.70999e-05
6.48153e-06
8.05087e-10
0
2.14002e-09
3.21009e-09
0
0
0
0
0
0
0
0
0
0
2.15872e-09
0
2.65826e-05
1.99559e-06
6.28474e-05
3.19169e-05
2.94326e-05
0.000102242
3.24946e-05
5.41262e-05
3.74515e-05
4.79858e-05
6.5352e-05
8.07708e-05
9.54434e-05
7.56466e-05
6.34517e-05
0.000117078
0.000176741
0.000105717
0.000134072
8.4528e-05
9.60179e-05
0.00014142
0.000174258
8.35497e-05
0.000155128
0.000144209
0.000187724
9.1883e-05
0.000143426
0.000142026
0.000100307
7.05008e-05
0.000130673
0.000114884
0.000139114
0.000163152
0.000254685
0.000168478
0.000218377
0.00015954
0.000224438
0.000236275
0.000271232
0.000301852
0.000259227
0.000330036
0.000329127
0.000243309
0.000271236
0.000379386
0.000373842
0.000324827
0.000304588
0.000320866
0.000319069
0.000344091
0.000369384
0.000317003
0.000382912
0.000300892
0.00029742
0
0
3.00065e-07
0
0
0
0
0
0
0
0
0
0
0
3.27777e-09
0
0
0
0
1.05642e-08
0
0
0
0
0
0
0
0
7.95918e-10
9.03715e-10
1.09424e-08
0
1.24443e-10
0
0
0
0
0
0
0
0
0
2.95915e-09
0
0
0
0
0
0
0
0
2.75265e-07
0
0
0
0
0
0
0
0
0
0
0
0
1.0766e-09
0
0
0
0
1.45627e-09
0
0
0
0
0
0
0
0
0
0
0
0
0
0
0
0
0
0
0
2.37609e-09
0
0
0
0
2.70164e-09
0.000393614
0.00036912
0.000328926
0.000481442
0.000388773
0.000306792
6.00291e-05
8.58187e-05
5.09267e-05
7.58159e-05
1.76355e-05
2.78891e-05
4.16446e-05
1.70605e-05
3.56063e-05
1.64366e-05
3.57706e-05
1.91213e-05
2.96584e-05
4.64667e-05
1.44911e-05
7.63639e-06
2.53872e-05
6.1283e-05
3.54061e-05
0
0
0
0
0
0
0
0
0
0
0
0
0
0
0
0
0
0
0
0
0
0
0
0
0
0
0
3.54719e-05
3.79086e-05
6.37279e-05
4.57047e-05
7.05665e-05
2.37659e-05
3.70333e-05
0.00010122
7.38469e-05
6.34194e-05
5.97014e-05
7.41104e-05
0.000103895
5.95932e-05
2.23962e-05
6.78018e-05
0
2.82087e-10
0
0
0
0
0
0
0
0
0
0
0
0
0
0
0
0
0
0
0
0
0
0
0
0
0
0
0
0
0
0
0
0
0
0
0
9.0453e-06
1.17856e-05
1.51744e-05
4.36697e-06
2.08501e-06
0
0
0
0
0
0
1.24203e-05
1.98204e-06
0
0
0
0
0
0
0
0
0
0
0
0
0
0
0
0
0
0
0
0
0
0
0
0
0.000307
0.000330158
0.000369701
0.000328426
0.000315271
0.000462124
0.000507793
0.000557502
0.000411089
0.000395017
0.000386305
0.000340157
0.000288675
0.000354766
0.000294574
0.000321285
0.000465908
0.000477017
0.000489276
0.00053566
0.000475848
0.000443091
0.000222375
0.000113963
0.000133008
0.000187337
0.000107135
8.31904e-05
4.63418e-05
0.000170574
0.000340384
0.000225774
0.000222265
0.00031223
0.000210001
0.000399628
0.000409978
0.000292722
0.000331699
0.000430381
0.000510551
0.000449451
0.000527052
0.000449517
0.000475521
0.000415464
0.000457758
0.000425298
0.00044708
0.000404704
0.000423581
0.00038895
0.000314849
7.53129e-05
6.15278e-05
0.000144505
6.76018e-05
4.77491e-05
4.02902e-05
0.000102205
0.000101268
9.90644e-06
2.83062e-05
0
3.63988e-06
0.000301814
0.00033307
0.000240167
0.000263793
0.000238033
0.000290066
0.000270758
0.000323818
0.000302099
0.000358342
0.000361882
0.000319498
0.000396888
0.000361288
0.000394252
0.000383548
0.000333997
0.000307944
0.000359118
0.000227331
0.0003193
0.000259621
0.000371447
0.000355877
0.000285365
1.71524e-09
4.16508e-09
2.35031e-09
0
0
0
0
0
0
0
0
0
0
0
0
0
0
0
0
0
2.94816e-09
0
0
0
3.64411e-05
5.80299e-05
3.60459e-05
7.47152e-05
1.18813e-05
1.15437e-05
5.10587e-05
3.37969e-05
8.11195e-05
2.94715e-05
4.97128e-05
0.000118898
0.00018549
9.60034e-05
0.000209663
8.08838e-05
0.000107679
0.000201447
0.000161994
0.000135658
0.000176521
0.000147087
0.000117278
0.000240643
0.0002036
0.000218094
9.7195e-05
0.000124141
0.000127267
0.000138548
0.000182426
0.000209023
0.000163356
0.000216568
0.000159029
0.000323254
0.000246099
0.000266926
0.000328034
0.000313239
0.000377425
0.000365985
0.00030714
0.000288833
0.000337838
0.000319323
0.000254476
0.000261809
0.000322734
0.000211331
0.000224164
0.000182736
0.00023456
0.00026274
0.000179229
0.000289583
0.000197823
0.000215103
0
0
0
0
0
0
0
0
0
0
0
0
0
0
0
0
0
0
0
0
0
0
0
0
0
4.83233e-10
0
0
2.10051e-09
5.54784e-10
0
0
0
0
0
0
0
0
0
0
0
0
2.94463e-07
0
0
0
0
0
0
0
0
1.73913e-07
0
0
0
0
1.30509e-09
0
0
0
0
0
0
0
2.8014e-09
2.93376e-09
0
0
2.75931e-09
3.50722e-09
0
0
0
0
3.19978e-09
0
4.35875e-09
0
0
0
0
0
0
0
0
0
0
0
0
0
0
0
0
0
1.46582e-09
0
0
0
0
0
0
0
0
0.000271241
0.000304527
0.000405285
0.000337359
0.000280267
0.00037842
0.000187518
0.000164723
0.000152225
0.000217339
9.7041e-05
3.42038e-05
1.60303e-06
4.60653e-05
1.69778e-05
3.8802e-05
3.61967e-05
2.52343e-05
4.75469e-05
8.32193e-06
3.60668e-05
2.78221e-05
2.95691e-05
3.75348e-05
2.58024e-05
2.66543e-05
2.88501e-05
0
0
0
0
0
0
0
3.26138e-10
2.93593e-05
0
0
0
0
0
0
0
0
0
0
2.01342e-11
0
0
0
0
0
2.35103e-05
2.69365e-05
1.84741e-05
4.6921e-05
6.42437e-05
7.43878e-05
6.92525e-05
5.08595e-05
3.01137e-05
6.27696e-05
6.53755e-05
8.7289e-05
7.03093e-05
3.75922e-05
8.71143e-06
4.46962e-05
0
0
2.65831e-10
0
0
0
0
4.38552e-11
0
0
0
0
0
0
0
2.33207e-09
0
9.59998e-10
1.7297e-09
0
0
0
0
0
0
0
0
0
0
0
2.50765e-09
0
0
0
0
0
0
0
0
0
0
0
0
0
8.32121e-10
2.23036e-05
1.93056e-05
2.05078e-05
0
0
0
0
0
0
8.28014e-10
0
0
2.24826e-10
0
0
0
0
0
0
0
6.91284e-10
0
0
0
0
0
0
0
8.25468e-10
0
9.82859e-10
0
0
0
0
0
0
0
1.09237e-09
0.000242549
0.000265104
0.000410663
0.000193437
0.000295518
0.000411315
0.000367904
0.000166874
0.00033442
0.000276598
0.000146383
0.000167751
0.000337644
3.93296e-05
0.000429707
0.000424029
0.000396419
0.000349255
0.000377288
0.000307175
0.000244632
0.000214272
0.0004502
0.000449452
0.000495423
0.000474406
0.000431447
0.000484791
0.000227193
9.83781e-05
0.000248098
0.000171685
9.50217e-05
5.10556e-05
0.000198369
0.000212861
0.000377269
0.000301429
0.000284221
0.000251958
0.000363015
0.000454269
0.000413661
0.000399895
0.000504827
0.000361521
0.000403256
0.000391136
0.000410413
0.000403585
0.000365586
0.00038071
0.000339241
0.00037386
0.000398911
0.000372708
0.000364724
0.000398578
8.71347e-05
4.82557e-05
7.18076e-05
6.04475e-05
0.000180909
5.70848e-06
2.45295e-05
4.49242e-05
2.1142e-05
3.10429e-05
2.422e-05
0
0.000225969
0.000182061
0.00021368
0.000221504
0.000206973
0.000257227
0.000161429
0.000284477
0.000234167
0.000324886
0.000317778
0.000343907
0.00038329
0.000381207
0.000361059
0.000330224
0.000318756
0.000306198
0.000364039
0.000189264
0.000241356
0.00029022
0.000290282
0.000205265
0.000185004
0
0
0
0
0
0
0
0
0
0
0
0
0
0
0
0
2.95864e-09
0
0
0
0
0
0
0
2.62863e-05
7.12341e-05
2.38052e-05
0
3.94384e-05
5.5473e-05
2.50216e-05
1.20175e-05
5.55019e-05
5.45357e-05
0.000100683
9.61454e-05
0.000194438
0.00013921
0.00022307
0.000181628
0.000216241
0.00024535
0.000132261
0.000192651
0.000205152
0.000252044
0.000265019
0.000212807
0.000180971
0.000222748
0.000223845
0.000285796
0.000301663
0.00031455
0.000326748
0.000230044
0.000309174
0.000285692
0.000377956
0.000408382
0.000394797
0.000471953
0.000357541
0.00041786
0.000339582
0.000377556
0.000293582
0.000341452
0.000281945
0.000232335
0.000132183
0.000192897
7.91726e-05
0.000158461
7.89661e-05
0.000160855
0.000245406
3.56926e-05
8.89388e-05
0
0
2.39257e-06
4.13869e-11
0
0
0
0
0
0
0
2.31422e-09
3.50114e-09
1.73946e-09
4.74112e-09
1.83023e-09
1.68011e-09
0
6.64533e-10
6.51722e-07
0
0
0
1.69191e-09
0
1.58297e-09
1.21014e-09
0
0
0
0
0
0
0
0
3.68935e-11
0
0
0
0
0
0
2.05547e-07
0
0
0
0
0
0
0
0
0
0
0
0
0
0
0
0
0
0
0
0
0
0
0
0
0
0
0
0
0
0
0
0
0
0
0
0
0
0
0
0
0
0
0
0
0
0
0
0
0
0
0
0
0
0
0
0
0
0
0
0
0
0
0
0
0
0
0
0
0
3.02778e-11
0
0
0
0
0.00017829
0.000227835
0.000162951
0.000224933
0.000152711
5.05587e-05
0.000320596
0.000230832
0.000301937
1.31916e-05
0.000441705
0.000227728
8.51394e-05
0.000357292
9.55516e-05
9.0369e-05
4.30078e-05
0.000108903
4.38027e-05
2.93194e-05
4.31676e-05
2.25844e-05
1.68439e-05
1.08061e-05
9.67347e-06
3.23562e-05
1.94448e-05
4.90869e-06
3.10629e-05
0
0
0
0
0
7.17227e-05
0
0
0
7.65983e-09
0
0
0
0
0
0
0
1.19554e-09
4.04704e-09
0
1.14508e-09
0
0
0
2.57927e-05
3.76161e-05
7.01537e-05
1.77192e-05
6.14709e-05
3.81726e-05
9.91165e-05
3.19997e-06
4.28452e-05
4.17414e-05
4.99333e-05
6.05746e-05
9.44565e-05
1.97228e-05
5.64361e-05
5.96853e-05
0
8.63961e-10
0
0
0
0
0
2.98837e-11
0
0
3.40186e-11
0
0
0
1.88328e-10
0
0
0
0
0
0
0
0
0
0
0
0
0
0
0
0
0
0
0
0
0
6.20887e-10
0
1.92946e-09
0
0
0
0
0
0
0
0
0
0
0
0
0
0
0
0
0
0
2.30932e-05
0
0
0
0
0
0
0
0
0
0
0
0
0
0
0
0
0
0
0
0
0
0
0
0
0
0
0
0
0
0
0
0
1.46716e-08
2.18429e-07
0
0
0
0
0
0
0.000287566
0.000295313
0.000333888
0.000485454
0.000849871
0.000299399
0.000820783
0.000294388
9.72275e-05
0.000437898
0.000253703
0.000150277
0.000232395
0.000421269
0.00044434
0.000363002
0.000410461
0.000311983
0.000348792
0.000585698
0.000266061
0.000429232
0.000456089
0.000443124
0.000385692
0.000421805
0.000453151
0.000229775
0.000154846
0.000187101
9.03844e-05
7.68032e-05
0.000109886
0.000160468
0.000210102
0.00033893
0.000383999
0.000223025
0.000308327
0.000381854
0.000418515
0.000357772
0.000437442
0.000289206
0.000362085
0.000255317
0.000269585
0.000332047
0.000205388
0.000389859
0.000303292
0.000404873
0.000354033
0.000310361
0.00033833
0.000325946
0.000296008
2.43547e-05
8.86406e-05
0.000118682
0.000111168
4.8251e-05
0.000214908
8.75092e-05
8.23173e-05
3.60288e-05
1.78931e-05
1.53553e-05
1.16711e-05
0
0
0
0.000148404
0.000106719
0.000160951
0.000147086
0.000163629
0.000180026
7.60295e-05
0.000210857
0.000235656
0.000240528
0.000341865
0.000355797
0.000371679
0.000353015
0.000318697
0.000390225
0.000337107
0.000236616
0.000264617
0.000215382
0.000223641
0.000255264
0.000282728
0.000290261
0.000108797
0.000251512
0
0
0
0
0
1.68483e-09
3.34455e-09
0
0
0
0
3.75914e-09
1.30459e-09
0
0
0
0
0
0
0
0
0
0
0
0
1.38606e-05
1.09315e-05
0
7.34032e-05
3.19471e-05
2.56272e-05
4.11565e-05
0.000119633
2.48231e-05
0.000146658
0.000208337
0.000225657
0.000203522
0.000249176
0.000260448
0.000262364
0.000259075
0.00025053
0.000201576
0.000260203
0.000272609
0.00030075
0.000280638
0.000352384
0.000321678
0.00033698
0.00027761
0.000360067
0.000354122
0.000415052
0.000295185
0.000451235
0.000483187
0.000470992
0.000531476
0.000444305
0.000475554
0.000395037
0.000424975
0.000382465
0.00034942
0.000283967
0.000250249
8.51305e-05
0.000154051
7.43389e-05
0.00012277
0.000137028
0.000123046
0.000121985
0.000152442
0.000129666
0.000117036
0
0
0
0
0
0
0
0
0
2.14923e-09
0
0
0
9.78755e-09
2.26311e-09
4.87658e-09
3.64528e-09
1.16588e-09
1.83795e-09
0
0
0
0
0
0
0
0
0
0
0
0
0
0
0
0
5.18445e-12
0
0
0
9.46663e-07
0
0
0
0
0
0
0
0
0
0
0
0
0
0
0
0
0
0
7.46162e-07
0
0
0
0
0
7.89067e-10
6.13582e-10
1.42716e-09
0
0
0
0
0
0
0
0
0
0
0
0
0
0
0
0
0
0
0
0
0
0
0
0
0
0
0
0
0
0
0
0
0
0
0
0
0
0
0
0
0
2.68554e-09
0
7.26025e-10
0
1.4396e-08
0
0
0
0.000147308
6.42397e-05
0.000135667
6.33506e-05
2.99721e-05
0.00018512
0.000207627
0.000332185
0.000160283
0.000319433
0.000396767
0.000350718
0.000239409
0.000172466
0.00028712
0.000361042
7.12995e-05
0.000190345
0.000139915
9.70806e-06
7.51096e-05
1.25969e-05
7.04141e-05
4.75831e-06
1.71542e-07
1.85064e-05
2.94096e-05
5.90579e-05
3.557e-05
1.0889e-05
9.72871e-06
3.37768e-05
4.74811e-05
0
0
0
4.39398e-05
0
0
0
0
0
0
0
0
0
0
0
0
0
0
0
0
3.07296e-09
0
0
0
7.60096e-05
4.96908e-05
7.98152e-05
1.18035e-05
2.24902e-05
7.00885e-05
9.24536e-05
5.11246e-05
8.10995e-05
9.63043e-06
1.69724e-05
0.000101314
4.01908e-05
0
0
0
0
0
0
4.81972e-09
5.83882e-09
0
0
0
0
0
0
0
0
0
8.50911e-07
0
0
0
0
0
0
0
8.92594e-10
0
0
6.37517e-09
0
0
0
0
0
0
0
0
0
0
0
0
0
0
0
0
0
0
0
0
0
0
2.17601e-09
0
0
0
0
0
0
0
0
0
0
0
0
0
0
2.89961e-10
1.75562e-10
0
0
0
4.07313e-10
0
0
0
0
0
0
0
0
0
0
0
0
0
0
0
0
0
0
0
0
0
0
0
0
0
1.34235e-09
0
0
0
0
0
0
0
0
0.000949001
0.000353957
0.000406268
0.000198226
0.00111626
0.000414675
0.000116613
0.00016369
0.000184348
0.000192438
0.000140948
0.000121095
0.000127438
5.26556e-05
0.000386543
0.000411461
0.000386815
0.000368235
0.000275411
0.000295915
0.000246078
0.000339522
0.000410606
0.00033125
0.000223366
0.000287784
0.000346898
0.000391205
0.000227898
0.000263124
0.000168443
0.000115284
0.000133574
0.000104955
0.000205661
0.000187348
0.00036402
0.000246446
0.000237703
0.000305627
0.000278639
0.00035854
0.00033755
0.000158067
0.00016857
0.000195845
0.000152985
9.97404e-05
0.000260517
0.000231016
0.00021359
0.000356599
0.000377207
0.000195951
0.000241538
0.000237851
0.000165098
0.00025161
0.00015698
2.33434e-05
0.000133086
0.000182518
5.22991e-05
8.05975e-05
0.000174179
0.000101083
3.13301e-05
1.84845e-05
0.000104638
3.39235e-05
0
5.90464e-05
0.000106982
0.000160949
2.75241e-05
0.000125093
0.000175291
0.000170155
0.00018361
0.0002108
0.000203974
0.000305135
0.000344236
0.000326627
0.000332718
0.000284488
0.000316105
0.000293495
0.000219519
0.000207025
0.000101442
0.00019359
0.00018508
0.000262442
0.00029995
0.000244379
0.000222748
0
0
0
0
0
0
0
0
0
4.13601e-09
0
0
0
0
0
3.0746e-11
3.36646e-11
0
0
0
0
0
0
0
0
1.69979e-05
1.54085e-05
4.52323e-05
0.000112378
0.000117672
0.000118461
3.30409e-05
0.000187116
0.000174019
0.000199307
0.000213209
0.000249843
0.000248136
0.000368276
0.000299542
0.000370709
0.000341527
0.000314874
0.000300849
0.00031163
0.000374987
0.000389997
0.0003357
0.000395464
0.000403573
0.000308425
0.000462888
0.00036857
0.000487143
0.000478818
0.00058473
0.000589375
0.000567535
0.000562352
0.000567142
0.00047273
0.0005119
0.000442749
0.00044988
0.000320384
0.000317791
0.000109667
0.000154811
0.000120107
8.2224e-05
9.9768e-05
0.000169465
0.000208988
0.000103115
5.19031e-05
0.000169934
0.000152279
5.7921e-05
0
0
0
0
0
0
0
0
0
9.80049e-11
0
0
0
0
0
0
0
1.0327e-09
0
0
1.14431e-09
8.93266e-10
0
0
1.42146e-10
0
0
0
0
0
6.42369e-10
0
0
0
0
0
0
0
0
0
0
0
0
0
0
0
9.532e-10
1.93504e-09
1.07771e-09
0
0
0
0
1.01457e-09
0
0
1.20215e-09
0
0
0
0
2.59048e-09
0
3.9911e-08
0
0
0
0
0
0
0
0
0
0
0
0
0
0
0
0
0
0
0
0
0
0
0
0
0
0
0
0
0
0
0
0
0
0
0
0
0
0
0
0
0
0
0
0
0
0
0
0
0
0
0
0
0
8.07566e-10
0
0
0
4.50912e-08
0
0
0.000301429
0.000154615
0.000176883
0.000150389
0.000145238
0.000140727
8.89516e-05
2.3962e-05
5.6344e-05
0.000141323
0.000316474
0.00011252
0.000550309
0.000365125
0.000326857
0.000202252
0.000387171
0.000139106
0.000194968
0.000151943
6.37391e-05
0.000248591
0.000181465
3.85231e-05
7.65647e-05
7.466e-05
3.09771e-06
7.04507e-05
2.80506e-05
6.17007e-05
8.05805e-05
4.39956e-05
1.48171e-05
6.84828e-05
8.29259e-05
1.6804e-05
3.97449e-05
0
0
1.17107e-05
5.41665e-05
0
0
3.61707e-09
0
0
0
0
0
0
0
1.36445e-09
0
0
0
0
5.84318e-10
0
0
0
0
0.00010251
5.83575e-05
5.82187e-05
6.98042e-05
6.95229e-05
8.06164e-05
0.000133655
6.10242e-05
4.56241e-05
7.32235e-05
5.21075e-05
1.8782e-10
0
0
1.21805e-10
0
0
6.60923e-09
1.63645e-09
0
0
0
0
0
0
0
0
2.0896e-07
5.26731e-07
0
0
1.33947e-07
0
2.0783e-09
0
0
0
0
1.50496e-07
0
1.44778e-09
3.06654e-07
0
0
0
0
0
0
0
0
0
0
0
0
0
0
0
0
0
0
5.32197e-09
0
0
0
0
0
0
0
0
0
0
0
0
0
0
0
0
0
0
0
0
0
0
0
0
0
0
1.01934e-09
1.08282e-09
0
0
0
0
0
0
0
0
9.72309e-10
0
0
0
0
0
0
6.62152e-10
0
0
0
0
0
0
0
0
0
0
0
0
0
0
0
0
0
0
0
0
0
0
0
0
0.000598343
0.000356853
0.000368084
0.000179369
0.000196409
2.72135e-05
7.28562e-05
0.000186321
0.000168802
8.57354e-05
7.81358e-05
6.53847e-05
6.46312e-05
8.41298e-05
5.01913e-05
0.00028427
0.000304312
0.000330637
0.000355258
0.000328616
0.00031488
0.000366098
0.000350184
0.000300583
0.000178913
0.000202686
0.000188116
0.000237951
0.000235388
0.000296986
0.000260012
9.87807e-05
0.000162478
0.000185897
0.000183798
0.000251589
0.000178763
0.000175915
0.00015186
0.000171057
0.000321339
0.000222833
6.00377e-05
7.98672e-05
7.53078e-05
9.79567e-05
7.87266e-05
6.36025e-05
8.61095e-05
0.000360564
0.000324846
0.000188694
0.000516248
0.000205565
7.44752e-05
0.000333937
3.28215e-05
7.38886e-05
0.000120859
5.99454e-05
0.000126264
0.000223166
3.90789e-05
7.42547e-05
0.000145615
0.000234834
0.000119185
1.80355e-05
8.19921e-05
7.97637e-05
0.00028477
0.000169313
0.000163785
8.4437e-05
0.000157413
0.000169076
0.000200614
0.00026282
0.000271635
0.00022311
0.000272215
0.000259761
0.000286768
0.000233476
0.000230986
0.00024277
0.000296535
0.00027295
0.000232533
0.000264131
0.000160005
0.000198967
0.000271346
0.000174273
0.000211585
0.00013374
1.81784e-09
1.41067e-09
3.51863e-09
0
0
0
0
0
0
0
0
0
0
0
0
0
0
0
0
0
0
0
0
0
2.36191e-06
9.18655e-06
8.16316e-06
2.33541e-05
0.000121032
0.000129742
2.98712e-05
0.000112637