/*--------------------------------*- C++ -*----------------------------------*\
  =========                 |
  \\      /  F ield         | OpenFOAM: The Open Source CFD Toolbox
   \\    /   O peration     | Website:  https://openfoam.org
    \\  /    A nd           | Version:  8
     \\/     M anipulation  |
\*---------------------------------------------------------------------------*/
FoamFile
{
    version     2.0;
    format      ascii;
    class       surfaceScalarField;
    location    "12300";
    object      phi;
}
// * * * * * * * * * * * * * * * * * * * * * * * * * * * * * * * * * * * * * //

dimensions      [0 3 -1 0 0 0 0];

internalField   nonuniform List<scalar> 
788991
(
-0.0261466
0.0251693
-0.0417421
-0.0222053
0.0378373
-0.0385494
-0.00507928
-0.0101958
-0.0677779
0.0454195
-0.0106411
0.0415168
0.00809471
-0.0395577
-0.0563332
-0.0144418
0.0473663
0.0213874
-0.0324325
0.00927384
0.0243293
-0.00335109
-0.00730325
0.029814
0.00325506
0.0474976
-0.0277794
0.0168411
-0.0113347
0.0486574
0.0129308
0.0130568
0.0579314
-0.0083906
0.0721238
-0.0206419
-0.0316894
-0.0318577
-0.00964932
-0.0100394
-0.0549208
0.0344233
0.0376793
-0.028956
0.032866
0.0139717
0.0158211
0.033321
-0.00671476
-0.0136654
-0.0554667
0.00246301
-0.0230914
0.00894515
0.0247247
0.0108374
-0.0012659
0.0123835
0.0352732
0.0364333
-0.0125549
0.0240768
-0.000252326
-0.0239543
-0.0141827
-0.0420441
-0.00714427
0.0326328
0.0224165
-0.0181889
0.011214
0.000829234
0.061163
0.0176216
0.048295
-0.0664351
-0.0653285
-0.0485567
0.00148626
0.0302769
0.0278112
-0.00472927
0.0374841
-0.0438404
-0.00796735
-0.0366406
0.0374274
-0.0403319
-0.0432446
-0.0264329
0.020031
-0.00783822
-0.0319359
-0.0560138
0.0402136
-0.00306268
-0.0187456
0.0291408
-0.0471488
-0.059959
-0.0311914
-0.0547799
-0.0211192
-0.0418818
-0.0659048
-0.0222492
-0.0634005
0.0293228
-0.0327638
0.0490776
-0.0131785
-0.0435712
-0.0199348
-0.0123745
-0.0285604
0.00487614
-0.0200144
-0.0121179
-0.025794
0.0303642
0.0106608
-0.0306926
0.0162194
-0.00171376
-0.0230831
-0.0275655
-0.0023721
-0.0145842
-0.0154511
0.0164411
0
0
0
0
0
0
0.0219581
0
-0.0135174
0.0569612
0.0280172
0.0113659
0.023146
0.0414341
0.0207861
-0.0571261
0.0743596
-0.00392056
0.0541602
0.00295046
-0.00482305
-0.0301756
-0.0177256
-0.030599
0.0148949
-0.00190243
-0.0410936
-0.00320848
-0.0206733
0.0148648
-0.00993236
0.0205726
-0.0260019
-0.0577015
0.0258565
-0.00751028
0.0232246
-0.0220765
-0.0486818
0.0367969
-0.0287006
0.0506438
-0.0179708
-0.0606189
-0.0413622
-0.0457565
-0.0435721
-0.0253502
-0.0401634
-0.0232949
-0.0122616
0.0260935
0.0117334
-0.0281016
0.0310039
-0.0376649
0.0370134
0.0122613
-0.0134394
-0.0248027
-0.016601
-0.0274829
0.0106241
-0.0261937
0.024753
-0.0188876
0.0213844
-0.0037934
-0.0305528
0.0115892
-0.00459189
-0.00764089
-0.00574461
-0.0135302
-0.0132061
0.00609789
-0.0298135
0.0043567
-0.0384707
0.00606724
-0.00747867
0.0374839
0.0155578
0.0570929
0.0183685
0.0215555
0.00637895
0.0153406
-0.0218098
0.00937882
0.000200028
-0.0142219
0.0159675
-0.00658213
-0.0537216
-0.00597529
-0.00397537
-0.0348511
-0.0630665
0.00537399
-0.000203057
-0.0390601
-0.0200906
0.00225503
-0.0261093
0.0181626
-0.0202296
-0.024274
-0.00832012
0.00560237
-0.0105923
-0.0154269
-0.0274247
-0.0317404
0.0320684
-0.0396965
-0.0879945
-0.0292375
-0.0273845
-0.075752
0.0171398
-0.0055474
-0.0341003
0.0280139
0.0045253
-0.0332563
0.022992
-0.0427728
-0.0670988
-0.0218532
-0.0485345
-0.0601754
0.00706605
-0.0399734
-0.0373277
-0.00548403
-0.00143875
9.557e-06
0.00760478
-0.0282758
-0.0359779
-0.00312887
-0.00717661
0.00470832
0.0428674
-0.0696141
-0.0190779
-0.0738105
-0.0193112
-0.0101422
-0.0929914
0.0348519
0.0377889
-0.0162572
0.0038948
-0.0176537
-0.00606238
0.00801981
0.0108194
-0.033135
-0.0154652
-0.00397317
0.0487393
0.0163892
0.0296693
0.0558267
0.0119802
-0.0464162
0.00934061
0.0819663
-0.00528645
-0.00556591
0.00199814
0.0156239
-0.0104425
-0.0234249
-0.0220325
-0.02061
0.000516039
-0.0980445
0
0
-0.0465705
0
0.0639034
0
0
0
0
0
0
0
0
-0.0438841
-0.0249115
-0.0250439
-0.0448471
-0.0246386
-0.0258711
-0.0158332
-0.0529048
-0.0306459
0.0259057
-0.0548092
0.043576
0.0164796
-0.0475339
-0.0639629
0.0273737
-0.0270918
-0.042646
0.00265619
-0.0173653
-0.0379893
0.00107162
-0.0286307
0.0117869
-0.00147206
-0.0146164
0.0403303
0.000244135
-0.0222738
0.033972
-0.000820497
-0.00974554
0.0227955
0
0
0
0
0
0
0
0
0.0132804
0
0
0.0491715
0.0703438
0.0122534
0.0657997
0.0357841
0.0361194
0.0616641
0.00673999
-0.0482544
0.0457722
0.00373059
-0.0314026
0.00248523
0.00931771
0.00352144
-0.0157355
-0.00305603
0.0139795
0.000355583
-0.00745385
0.00335426
-0.00349426
-0.0148058
-0.0345402
0.0184062
-0.0260063
0.0237524
-0.0146163
-0.0304318
0.0268649
0.00401884
-0.0210731
-0.0218061
0.0176399
-0.0274596
0.0154118
-0.0209403
0.00449835
-0.012397
0.0782432
-0.0531394
0.0337649
-0.0506713
-0.0186304
-0.0287001
-0.0548015
-0.0355399
-0.00309286
0.0313657
0.00852568
0.0740708
0.0554728
0.0155347
0.0163775
-0.0076905
-0.0198677
-0.00361285
-0.0322953
0.022478
-0.0274943
-0.0337644
0.0316286
-0.0153538
-0.0191412
0
-0.0120197
0
0
0.00897408
-0.0157086
-0.0153081
-0.0467534
-0.0689433
0.0215364
0.0191038
0.0152014
-0.0297581
0.0211364
0.0129946
0.0413261
0.0326993
0.0238452
-0.000694181
0.0275469
-0.0262021
-0.0638808
0.00709214
-0.0194264
-0.0141419
-0.0448751
0.0166336
0.00576834
-0.0234221
0.0334308
-0.00422371
0.0116977
0.0236347
-0.0120723
-0.0788234
-0.00456713
0.0234544
-0.0256664
-0.0273332
-0.0340634
-0.0729952
-0.0287779
-0.0174463
-0.00712863
0.0149949
-0.0139085
-0.0315337
0.00765781
-0.0330182
-0.0534368
-0.034497
-0.024815
-0.0582087
0.0354793
0.0257642
-0.0469376
0.0187139
0.0382539
0.00741155
0.0176736
0.052254
-0.000999005
-0.00550807
0.00970794
-0.0799652
-0.0372093
-0.0306077
0.00934869
-0.0246278
-0.111184
-0.0171767
0.0599739
-0.00501778
0.0726234
0.0238926
-0.0568909
0.0361438
-0.0169693
-0.0622122
-0.0716986
-0.0669293
-0.0837915
0.0144278
-0.116922
0.0500754
-0.0540844
0.0498778
-0.0528025
0.00105631
0.0222528
0.0664491
0.064628
0.028057
-0.00207896
0.0163766
-0.020108
0.0121357
-0.0140176
-0.00275289
-0.0122947
-0.0129183
-0.0083042
-0.0368743
0.0236347
0.0613469
0.00738348
-0.0159662
0.00585642
0.00701064
-0.0274421
0.0559396
-0.084212
-0.101061
-0.0208385
-0.0236047
-0.00030631
0.0142196
-0.00913761
0.012992
0.023986
0.0184671
0.017406
0.00819808
-0.0242309
-0.0214438
0
0
0
-0.0140538
0
0
-0.0454274
0
0
0
0
0
0
0
0
0
0
0
0
0
0
0
0
-0.0392127
-0.0200897
-0.0129816
-0.0132323
-0.0273396
0.00226746
-0.000275147
-0.0457801
-0.023769
0.0160196
-0.0373046
-0.021479
0.0193137
-0.0206234
0.0307573
0.00349177
-0.0151452
-0.0251515
0.00662159
-0.0258946
0.0165391
-0.00185213
-0.0152768
-0.00835896
0.00312158
-0.0224011
0.017575
0.00928833
-0.00798132
-0.0160991
0.0118716
-0.00602661
-0.0100742
9.62554e-06
0
1.45454e-05
0
0
-5.14591e-06
7.60039e-06
-2.26181e-05
1.55887e-05
6.38877e-06
-8.52881e-07
0
0
0
0
0
0
0
0
0
0
0
0
0
0
0
0
0
0
0
0.0778489
0
-3.77293e-05
0.0779234
0.0672261
-0.042654
0.0349177
0.02768
-0.0171013
0.0444384
0.0192468
0.020536
0.0158743
0.022732
-0.00962408
0.00148687
0.0318984
0.012868
-0.0161723
0.0169293
0.0225863
0.0102239
-0.00326477
-0.015187
-0.00847044
-0.0263114
0.0371919
-0.00268211
-0.0057753
-0.0290256
0.00629168
-0.0117379
0.0202072
0.00667966
-0.00898682
0.0302994
-0.0318365
-0.0172795
-0.0255593
-0.0354774
0
0.00216493
0.0439942
0.0606153
-0.0124401
-0.00198511
-0.0252188
0.0269313
0.0454588
0.037859
-0.0834602
0
0
0
0
-0.0099792
-0.0326573
0
0.00636658
0
0
0
0
0
0
0
0
-0.00926157
0.0201698
0.0163048
-0.0172865
-0.0284446
-0.0211161
0.0130931
-0.0305063
0.00949773
0.00523299
0.0990159
0.00680405
-0.0796436
0.0537011
0.0318532
0.00425716
-0.0322461
-0.123063
-0.0135154
0.0350505
-0.0105937
0.00712446
0.045826
0.0327963
-0.00491595
0.0344185
0.016025
0.0229263
0.00507824
0.0444251
0.0437518
-0.0194566
0.0361232
-0.0508836
-0.0844592
0.0233316
-0.0448362
0.0143855
-0.0192184
-0.00801576
0.020853
0.00724518
0.00717093
-0.0902489
0.0127986
-0.0631847
-0.0396569
-0.0420576
0
-0.0130398
-0.019061
-0.0317111
0.0021738
-0.00815601
0.0153769
-0.0314839
-0.0217666
0.0385036
-0.0548356
-0.0762689
0.0169037
-0.0521573
-0.0707381
0.0175111
-0.0374907
-0.0650136
0.00448985
-0.0238479
-0.00871849
0.00820149
-0.0482745
-0.0301303
-0.0474121
-0.0553801
-0.057126
0.070672
-0.0391948
-0.0271531
0.0471178
-0.0525962
-0.0329835
-0.0409231
-0.0119845
0.0132831
-0.0385367
-0.0512519
-0.0342868
-0.032749
-0.00734425
0.00921783
0.080066
0.0543131
-0.020919
0.0437608
0.0222986
0.0291901
-0.0449993
-0.0151518
0.0241586
-0.0367688
-0.0157933
-0.0109035
-0.0136958
-0.0137367
-0.0819707
-0.00596122
-0.0325397
0.0261138
-0.0266087
-0.0151616
0.0451737
0.0360119
0.00180926
0.000616268
-0.00678741
0.00231038
-0.013011
-0.0226305
-0.0171259
0.0467861
-0.0115015
-0.0399385
-0.0396973
0.0112572
0.0170847
-0.017013
-0.0925013
0
0.0203051
-0.0150966
0.0304852
0.0617144
0.0209209
0.0376119
0.00762363
-0.0486229
0.0104227
-0.0643594
0.0249556
-0.0377993
0.0126472
0
0
0
0
0
0
0
0
0
0
0
0
0
0
0
0
0
0
0
0
0
0
0
0
0
0
0
0
0
0
0
0
0
-1.8685e-05
0
-9.03926e-06
0
-2.23081e-05
-8.1613e-08
-1.28451e-05
8.75147e-06
1.18819e-05
-4.78583e-05
0
0
1.47645e-05
0
0
0
0
0
0
0
0
0
0
0
0
0
0
0
0
0
-0.0244781
-0.0119629
0.000668776
-0.00243712
-0.0195587
0.0175324
-0.025243
-0.0221099
-0.00305502
-0.00470552
-0.0132402
0.000204574
-0.0109511
-0.0213672
0.00186232
-0.00288001
-0.00849213
0.00532964
0.00103337
-0.00174733
-0.00325562
0.00273736
-0.00749347
0.00506521
0.00871477
-0.00359913
-0.00401265
0.00892697
-0.00930052
0.00305293
0.0113686
-0.0110598
-0.0059103
0
8.92509e-06
0
0
0
0
0
0
0
7.46254e-06
0
0
0
5.25668e-05
-0.000137432
0
0
0
0
0
0
0
0
0
0
0
0
0
0
0
0
0
0
0
0
0
0
0
0
0
0
0
0
0
0
0
0
0
0
0
0.115595
0.0206361
0.00922901
0.0572937
0.112114
-0.0187585
0.031085
0.0592189
0.0190569
0.0222372
0.0501457
0.0108142
0.00819897
0.0435647
-0.0167328
-0.00887725
0.0465142
0.0375895
-0.0295938
0.0255031
-0.0387525
2.1797e-05
0
0
-5.74313e-05
-2.22253e-06
0
0
2.5742e-05
0
0
0
0
0
0
0
0
0
0
0
0
0
0
-0.000564825
-0.0279694
-0.0214266
0.0242343
-0.00850302
-0.00490536
0.00572835
-0.0171715
0.0164723
0.0244851
-0.00332088
-0.0111413
0.00447221
-0.0175351
0
0
0
0
-0.0044087
0
0
-0.0308455
0
0.0181467
0.0239464
-0.00752237
0.0059037
-0.0556635
-0.0257373
0.00500626
0
0
0
0
0
0
0
0
0
0
0
0
0
0
0
0
0
0
0.0129871
-0.0955179
-0.0266632
0.0524428
0.0126649
0.0387718
0.0330705
-0.0317852
-0.0393572
0.0669012
-0.0495661
0.0438826
-0.0220344
0.0161766
0.0123671
-0.082968
-0.000530236
0.0576772
-0.0180677
0.0125128
0.00722616
-0.14265
0.025007
0.0192273
-0.0598356
0
0.037725
0.0104192
0.0154027
-0.0334337
-0.0474976
-0.0106183
0.0352377
0.011142
-0.0238499
0.00546177
0.0449112
0.00818902
0.0432448
-0.0649945
-0.0183922
0.0373678
0.0542668
-0.0818132
0.0378567
0.0935109
-0.00298967
-0.0993371
0.0968322
-0.0374092
0.0254022
-0.0671553
0.0210522
-0.0222494
-0.00697173
0
-0.0217551
0
0
-0.0169478
0.0191216
-0.0437954
0.00696648
0.00503571
-0.0293917
-0.0363401
-0.0218931
-0.0111054
-0.0163004
-0.00677199
-0.010921
-0.0138399
-0.011508
-0.00195861
-0.0271621
0.0216997
-0.0284967
-0.062286
0.00183024
0.0116211
-0.0448207
0.0210036
0.0166277
-0.0362291
-0.0602298
0.0489465
-0.022794
-0.021843
0.0304333
0.0694131
-0.0535947
0.00306995
0.0503948
0.0238133
0.00516614
0.0462546
-0.0428897
-0.0291546
0.0687639
-0.0729907
-0.0109638
-0.0314544
-0.0429811
-0.0415388
-0.0463231
-0.0044953
-0.0508758
-0.0352387
-0.0035147
-0.0754819
-0.094243
-0.00360357
-0.072699
-0.0927109
0.0212075
-0.0843833
-0.04636
0.0409213
-0.075141
-0.0417261
-0.0670117
-0.0859379
-0.00531201
-0.0232671
0.0707723
-0.0615786
0.0591534
-0.0663801
0.0180015
-0.0266289
-0.038209
-0.00152523
-0.0789303
-0.0094842
0.0575931
-0.0276449
0.0586389
-0.0282684
0.0101248
0.0522502
-0.0451982
0.0663873
0.0417768
0.0253511
0.0620319
-0.0594848
0.0730889
0.017196
0.0157905
-0.0653969
0.0333394
0.0732361
0.035859
0.0105522
0.07604
0.00952336
0.0816697
0.0932881
0.0595399
0.0893662
0.0306018
0.0843784
-0.115446
0.104911
0.082996
0.0886993
0.0326525
-0.113872
0.123977
-0.0850072
-0.000196416
0.023898
-0.0155557
0.0348905
0.0179313
0.0336981
-0.00587697
-0.0480395
-0.00225876
0.0320013
-0.0558725
-0.00371545
0.00482405
0
-0.0376592
0
-0.0459898
0.00681104
-0.000456972
-0.0299056
0
0
-0.0379048
0
0.0751889
0.00449397
0.0253879
0.0016476
-0.0604193
0.00585275
0
0
0
0
0
0
0
0
0
0
0
0
0
0
0
0
0
0
0
0
2.63753e-05
7.68518e-05
0
0
0
0
0
0
0
0
0
0
0
0
0
0.000339442
-0.00018998
0
0
0
0
0
0
0
0
0
0
0
0
-6.86327e-05
0
0
0
0
0
0
0
0
0
0
0
0
0
0
0
0
0
0
-2.57273e-05
3.49423e-06
0
-3.27033e-05
-4.87541e-06
0
-1.62429e-06
5.66438e-05
0
0
0
0
0
0
0
0
0
0
0
0
0
0
0
0
0
0
0
0
0
0
0
0
0
0
0
0
0
0
-0.00601325
-0.0150215
0.0150871
0.00747378
-0.0182695
-0.0325595
-0.0260907
0.00119894
-0.012755
-0.00523895
-0.00365784
0.0167764
-0.0076435
-0.00023048
-0.000134293
-0.00964488
-0.00108906
-0.00217547
-0.00068404
0.0125118
-0.00630059
-0.0115702
0.0112273
-0.00818117
0.0210822
-0.000880142
0.00398211
0.0035985
-0.00328102
-0.0101487
0.00281676
0.00791874
-0.00458037
0
0
0
-6.20674e-05
3.62645e-05
0.0002873
0
0
0
0.000188374
0
0
6.1633e-05
0
4.32643e-07
0
0
0
0
0
0
0
0
0
0
0
0
0
0
0
0
0
0
4.88729e-05
4.70011e-05
1.87949e-05
0
-4.62369e-05
0
0
0
0
-0.00254878
0
-0.0228806
0.0671246
-0.0223208
0.0227739
0.0232272
0.0665751
0.039913
0.0137539
0.0761107
0.050462
0.00917435
0.0663019
-0.0525057
-0.00612235
0.0560463
-0.0610481
-0.0249768
0.0506169
0.0621188
-0.0242031
0.0469035
0.0325869
0.000182579
0
0
0.000189827
0
-1.89267e-05
0
-8.74481e-07
0
5.19945e-07
0
-1.13585e-06
-3.71632e-10
0
0
0
0
0
0
2.83783e-05
0
0
0
0
0
0
0
0
0
0
0
0
0
0
0
0.0042467
0.0328579
-0.00722336
-0.000317547
0.000637386
0.0229715
0.00977226
-0.00877178
0.0156234
-0.0438275
0.00104334
0.0157884
0
0
0
0
-5.57704e-05
3.43405e-05
0
0
0
0
0
0
0
0
0
-0.00410257
0
0
-0.00808542
0.00061144
-0.0102014
0
0
0
0
0
0
0
0
0
0
0
0
0
0
0
-1.1496e-05
0
-1.18916e-05
0.0431463
0.0565266
-0.017753
0.0385073
0.0539683
-0.0291587
0.047555
0.0118417
-0.0261888
0.0215652
0.0291438
0.0145409
0.0624091
0.0279695
0.0134607
0.0542283
0.0494195
-0.0119592
0.0259979
0.0673364
-0.0424806
0.0509993
0.0826911
0.044074
0.0401707
0.0816504
-0.0512154
0.00910994
0.0845115
-0.0806837
-0.0105808
0.0931107
0.103272
-0.0146272
0.0895169
0.101862
0.0830608
0.120112
-0.0780181
-0.0260605
0.103511
0.0853637
-0.0103336
-0.0882564
0.0120564
-0.0462678
0.00826258
-0.00733842
0.0156901
0.00461751
-0.0844443
-0.00658104
-0.0108041
0.00388428
-0.01977
0.0952799
-0.021536
0.0153731
0.0252831
0.0176407
0
0
0.0131384
0.043703
0.0543072
-0.0584113
-0.00929311
0.0120672
0.0156624
-0.00116427
-0.00488914
-0.154608
0.0278214
-0.000191986
0
0
0
-0.0571307
0
0
-0.176144
0
0
0
0
0
0
0
0
0
-0.00114857
0
-0.00951341
0
-0.0127343
-0.0138082
-0.0196473
0.00965645
-0.0324688
-0.0397055
0.0254319
-0.0479764
-0.013498
0.0474902
-0.00518225
-0.0387071
-0.0189268
0.0477904
-0.00486313
-0.0165839
0.0255687
-0.0172099
-0.047442
0.0367856
-0.00564761
0.0482344
0.0203404
-0.0378032
-0.0335961
-0.0380622
0.0120149
-0.0689167
-0.0626292
0.00264139
0.0608611
-0.0635594
-0.0303499
0.0622515
-0.0943401
-0.0145592
-0.0754658
-0.0382706
-0.0620184
-0.0366189
-0.0901893
-0.0867273
-0.0242832
-0.0709493
-0.0263982
0.0370426
-0.0905504
-0.0917314
-0.0116327
-0.0655952
-0.0326368
-0.0198761
-0.0637245
-0.0278314
0.0402513
-0.0975144
-0.028079
0.0654783
-0.0630835
-0.034152
-0.0481382
-0.0926302
-0.015593
-0.0558568
-0.0426657
-0.00131448
0.0465952
-0.0492457
-0.00233309
0.0515378
-0.0544504
0.0028877
0.0584097
-0.0524154
0.0104596
0.0684155
-0.0196695
0.0273474
0.082957
0.0139956
0.0686789
0.0821104
0.0346637
0.0937773
-0.0810732
0.0366448
0.105621
0.0791009
0.0316574
0.110104
0.105618
0.0780918
0.0338757
0.0785684
0.114964
0.0948856
-0.073026
-0.0244476
0.0783284
0.103027
0.0671097
0.0958169
0.00765893
-0.00100273
0
0.0149167
0.0409248
0.0136045
-0.0596421
-0.06779
0.039404
0.103795
0.0353889
-0.02981
0.00352836
0
-0.0157383
0
0
0
0
0
0.00533089
-0.00746236
0
0
0
0.00779116
0
0
-0.000312408
7.8444e-05
0.000204716
0
-0.000103798
0
0
0
0
0
0
0
0
0
0
-3.15323e-05
0.000252829
-0.000182426
0
0
0
-1.39224e-05
0
8.7344e-05
0
-2.97682e-05
0
0
0
0
0
0
0
0
0.000869714
0.000124104
0
0
0
0
0.000464111
0
0
0
0
0
0
0
0
-1.58363e-07
-9.26914e-07
0
0
0
0
0
0
0
0
0
0
0
0
0
0
0
-2.67445e-05
0
0
0
-3.04235e-05
-3.24119e-05
0
0
0
0
0
0
0
0
0
0
0
0
0
0
0
0
0
0
0
0
0
0
7.691e-07
0
0
0
0
0.00787905
-0.00203306
0.0212759
0.0229591
-0.0116563
-0.0362975
0.00217097
0.00122848
-0.0101953
-0.0203659
-0.000846428
0.00469682
-0.00680982
0.00726659
-0.00666496
-0.0100025
0.00995153
0.00493362
-0.0138682
0.00295312
0.00623513
-0.0177668
-0.0204024
0.00367383
-0.00830436
-0.000665005
-0.009582
0.0193492
-0.00644035
-0.00626247
-0.0111234
-0.0130317
-0.0136258
-0.000420824
0
-4.66557e-05
1.76186e-05
-0.000553739
-0.000212111
0
0
0
0
0
0
0
0
0
0
0
0
0
0
0
0
0
0
0
0
0
0
0
0
-6.68485e-05
0
0
0
0
0
0
0
0
0
0
0
-0.0550559
0
-0.0485395
0.0185181
-0.00716287
-0.00795736
0.00810401
0.0284524
0.0312206
-0.00571956
0.0316642
-0.0420637
0.0101362
0.0397423
0.0556651
-0.016842
0.0364216
0.0525265
-0.00610678
-0.00732931
0.0278916
-0.0306618
0.0413606
-0.0426381
0
0
0
0
0
0
0
0
0
0
3.66117e-07
0
0
0
0
0
0
0
0
-0.0064372
0
0
0
0
0
0
0
0
0
0
0.00539315
0
0.00235428
0
0
0
0
0
0
0
0
0
0
-0.00539109
0
0.0130749
-0.0176888
-0.00424913
0.00839281
-0.00943112
-0.0129261
0
0
0
-2.14546e-05
0
0
0.0140443
0.0143328
-0.0292032
-0.0274234
0
0
0
0
0
0
-1.46244e-05
-2.24478e-05
3.04995e-06
0
-7.99364e-06
0
-0.000564849
0
0
-0.0182875
0
0
0
3.7215e-07
0
-1.27631e-05
0
0
0
0
0
0
0
0
0
0
0
0
0
0
0.0383479
0.0170422
0.0626658
-0.0337862
0.036709
-0.0683239
0.0492449
0.0650592
0.0155634
0.022352
-0.0693364
0.0687526
-0.0173416
-0.0402752
0.0363628
0.0647481
-0.00955569
0.0718538
0.0812076
-0.0610929
0.0768484
-0.024046
0.0652734
-0.053976
0.0618451
0.0803687
-0.0313862
0.0759361
-0.0413264
0.0535134
-0.0794834
0.0755268
-0.0508224
-0.0522685
0.0384477
0.0711403
-0.0333343
0.0820288
0.118855
-0.026453
0.0820564
-0.117483
-0.00655972
0.0829855
0.0897835
0.0404107
0.0252308
-0.0458609
0.0257382
0.0157091
-0.0492838
0.00347526
-0.0122103
0.0439731
0.00783133
0.0213668
-0.0107435
0.059189
0.0286813
0.031424
0.0508456
0.0271427
0.050579
0.0348882
0.0854824
0.046134
0.0158692
0.0840885
0.0893246
-0.00405236
0.0902739
0.112797
-0.0178971
0.0956777
0.126115
-0.01696
0.0883225
0.111341
-0.00493502
0.0891778
0.0894755
0.0821107
-0.0251884
0.101462
0.0853705
-0.0120627
0.090041
-0.0229535
0.0163487
-0.0403044
-0.0678211
0.0340818
0.0298709
-0.0115188
-0.00341847
-0.023237
-0.0249
-0.0521103
-0.0706928
-0.0847809
0
0.00701021
0.00498831
0.0174475
0.0218016
0.0717537
0.0521184
0.00979741
0.066766
-0.0490649
0.0291446
0.0625799
0.0441473
0.0376121
0.071704
0.0407769
0.0372888
0.0798389
0.0330931
0.0412969
0.069604
0.0233438
0.0423926
0.0559084
0.0151001
0.0650994
0.054645
0.0635945
0.0176721
0
1.59477e-05
2.50453e-05
0
0.0103753
0.0371235
-0.0274368
0.00416342
-0.0015203
-0.174892
0.00616305
-0.0141584
1.37602e-05
-0.0522295
-1.04203e-05
2.10421e-05
-1.32032e-05
-6.62184e-06
0
-4.29863e-05
0
0
0
0
0
0
0
0
0
0
0
0
0
-0.0241738
4.92566e-05
7.32448e-05
-0.0248156
0.0213491
-0.0770945
-0.0235937
-0.0546064
0.0599856
-0.0253343
-0.0784336
0.0338743
0.00575912
0.0196068
0.00594901
0.0153925
0.0178693
-0.0360325
-0.00135857
-0.0216677
0.0567529
-0.00125913
-0.0325916
0.0656925
-0.0126784
-0.0460592
0.0606664
-0.0741521
-0.00278824
-0.0899208
-0.0301419
0.0286578
-0.06447
-0.0620101
0.00634893
0.0610127
-0.0491022
0.030441
-0.0749952
-0.00288296
-0.0384697
-0.0713065
-0.0636047
-0.0325765
-0.0418358
-0.0527137
-0.00754813
0.0517079
-0.0378675
-0.0243049
0.00868267
-0.0479433
-0.043816
-0.0041669
-0.0811044
-0.0406093
0.022118
-0.0481524
-0.0281714
-0.064173
-0.0735089
-0.018606
-0.0428741
-0.0620072
-0.0181673
0.0462478
-0.0681913
-0.0247605
0.0498724
-0.0555559
-0.0183615
0.0563745
-0.0457722
0.00130193
-0.0618016
-0.0477454
0.0211962
0.0750801
-0.0189926
0.0320033
-0.073914
0.00855312
0.0485304
-0.0647804
0.0223618
0.06683
0.066656
0.0248176
0.0816733
-0.0692428
0.0162911
0.0796904
-0.0674264
-0.0628092
0.0710075
0
0.0138208
0.00477406
0
0
0
0
-0.0680688
0
0
-0.08084
0
0
0
0
0
0
0
0
1.60931e-05
0
8.12835e-05
0
0.00580066
0
0
2.70064e-05
0
-0.00026427
0
-0.000227764
0
-0.000117921
0
0
0
0
0
0
0
0
3.69377e-05
5.23634e-05
-1.76656e-05
-4.7642e-05
0
-0.000350732
4.43784e-06
0.00017861
4.7138e-06
0
0
0
0
0
0
0
0
0
0
0
0
-4.19424e-05
0
-0.000111363
0
0
0
0
0
0
0
0
0
0
0.00326678
0.00207344
0
0
0
0
0
0
0
0
0
0
0
0
0
0
0
0
0
0
0
1.00905e-05
-3.17502e-05
-6.43088e-05
0
0
0
-4.32111e-05
-1.65771e-05
0
0
0
0
0
0
0
0
0
0
0
0
0
0
0
0
0
0
0
0
0
0
0
0
0
0
0
9.46075e-06
0
-4.0925e-05
0
0
0
-9.40899e-06
0
1.66088e-05
0.0116252
0.0300448
-0.0666781
-0.0316243
0.0596001
-0.0229884
0.0844058
0.0490759
0.0167388
-0.000642274
-0.0164418
0.0280288
-0.0200728
0.0180245
-0.00323249
0.00757621
0.007047
0.00401818
0.00374922
0.000536172
-0.00527735
-0.00397742
-0.00383027
-0.00787282
-0.00620566
-0.00649643
-0.00144997
0.00780931
-0.00130229
-0.014543
-0.00769016
0.00500571
0.00956378
0.005125
0.0109865
0.0130467
0.0134283
-0.000111101
0
0
0
0
0
0
0
0
0
0
0
0
0
0
0
0
0
0
0
0
0
0
0
0
0
0
0
0
0
0
0
0
0
0
0
0
0
0
0
0
-0.0261139
0.0163101
-0.0259586
-0.007208
-0.0121592
-0.00195284
0.00920892
0.00534374
-0.00761511
0.00839508
-0.00786942
-0.00183588
0.036765
-0.00377631
-0.00131977
0.023423
-0.00138239
0.0245594
-0.0232113
-0.00200747
0.0229818
0.0113751
-0.012345
0.0141584
0
0
9.37584e-06
7.24145e-07
0
0
0
0
0
0
0
0
0
0
0
0
0
0
0
0
0
0
0
0
0
0
0
0
0
0
0
0
0
0
0
0
0
0
0
0
0
0
0
0
0
0
0
0
0
0
0
0
0
0
0.00786673
-0.0201955
0.00903897
-0.0143583
-0.0164297
-0.014094
-0.0100814
0
-0.0183194
0
0
0
0
0
0
0
-0.0381162
-0.0216952
0.00165791
0
0
0
0
0
0
0
0
0
0
0
0
0
0
0
0
0
0
0
0
0
0
0
0
0
0
0
0
0
0
0
0
0
0
0
0
-0.025135
0.0367822
0.0541635
-0.0400914
0.0408378
0.0755081
-0.0327112
0.0282871
-0.0754993
-0.0701354
-0.00704627
-0.0855109
-0.0216951
0.0721625
-0.089636
-0.031912
0.0662564
0.0922158
-0.0247288
0.0569222
-0.0782187
-0.00617798
0.0507366
-0.0577636
-0.0254717
0.0843533
-0.113341
-0.013538
0.0836608
0.104734
-0.0286131
0.0811236
-0.106649
0.0377282
-0.0232981
-0.061421
0.0448029
-0.0068402
0.0555536
0.0296478
-0.0217495
-0.0486782
-0.0236812
0.00451156
0.0360159
0.0612455
0.0407745
0.0227816
0.0914244
0.0557897
-0.0316431
0.0865682
0.0784963
-0.0033267
-0.0896865
0.0524681
0.00267438
0.0785688
-0.0373791
0.0891099
0.133585
-0.0508046
0.0932713
0.148746
-0.0381389
0.0945313
0.130875
-0.0188982
0.0860453
-0.106737
-0.0180666
0.0744251
-0.102461
0.0741451
-0.0191473
-0.0966309
0.0795613
-0.0130803
0.0751791
0.0162334
0.0188505
0.0759965
0.00124989
0.00711761
0.0142786
0.0322012
-0.0420648
-0.0269341
-0.0255258
0.000630244
0.04198
-0.00178622
0.0149535
0.0321039
0
0.0409364
0.0037199
0.0128708
0.00382457
0.0592838
-0.0488617
0.0171547
0.0601082
-0.0391717
0.0185437
0.038044
0.0625423
0.0364513
0.0603502
0.0320593
0.0454723
0.0742019
-0.0335414
0.0372139
0.0721646
0.0261644
0.0482591
0.0653046
-0.00730508
0.0528537
0.0618688
0.00484686
0.0344577
0.0505467
9.69616e-05
0.0240149
0.0614197
0.030342
0.0260282
0.046075
0.054735
0.057265
0.0133208
-2.55708e-05
3.2529e-05
6.42462e-05
-6.38401e-05
-0.0261097
3.46487e-05
0
-0.035831
0
0
0
0
-0.000107902
0
0
0
0
0
0
0
0
0
0
0
0
0
0
0
3.76148e-05
3.13401e-05
0
-2.42377e-05
0
-0.00551615
0
0
-0.0221507
-0.01014
-0.0262751
0.127865
-0.00979215
0.0234091
0.0133914
-0.0285897
-0.00197676
-0.00301289
-0.0254256
0.0300101
0.00468111
-0.0267381
-0.0282228
0.0225086
-0.0125892
0.0589298
0.039073
-0.0020269
-0.0692522
0.0430735
-0.000600742
-0.0714386
-0.00937952
0.0632935
0.0779117
-0.00783022
0.0898676
0.0722587
-0.00473649
0.0338405
-0.086829
-0.0081282
0.0543442
0.0879263
0.00454019
-0.0407325
-0.101241
-0.0346766
-0.0209831
-0.0269823
-0.0475063
-0.00131454
-0.050136
-0.0581676
-0.0609965
-0.0209215
-0.051997
-0.0667963
0.00524667
-0.0285225
-0.03239
-0.0607123
-0.0601084
0.0152856
-0.081267
-0.0457996
0.0332934
-0.0851288
-0.0497174
0.0453735
-0.0734334
-0.0356452
-0.0574554
-0.0491863
-0.0167389
0.0621653
-0.0417113
0.0112081
-0.0619095
-0.0431098
0.0257418
0.0642453
-0.020074
0.0190409
0.0444258
0.000923312
0.0221594
0.0423435
0.0113597
0.040594
-0.0443275
0.00957384
0.055827
-0.0482131
-0.0543257
0.0600538
0
0
0
0
0
0
0
0
0
0
0
0
0
0
0
0
0
0
0
0
0
0
-0.00013654
0
0
0
0
0
0
-2.76075e-07
0
0
0
0
0
0
0
0
-5.21792e-06
1.4394e-05
0
0
2.93155e-05
-2.07548e-05
-2.21038e-05
0
2.28962e-06
0
0
0
0
0
0
0
0
0
0
0
0
0
0
0
0
0
0.00356525
-0.00292956
-6.93829e-05
0
0
0
0
0
0
0
0
0.00344838
0
-0.00192862
0
-0.00382555
0
0
0
0
5.76704e-06
0
-3.06576e-05
0
0
0
0
0
0
0
0
0
0.000105666
2.93601e-05
0.0001826
0
-4.04484e-05
0
-0.000101131
0.00023269
-0.000193178
0
5.86637e-05
0
0
0
0
9.81705e-06
0
-6.35475e-05
0
-1.47833e-05
-2.29241e-05
0
0
0
0
0
0
0
0
0
0
0
0
0
0
0
0
0
0
0
0
0
-5.53547e-06
0
7.33501e-06
0
0
0
-4.32684e-05
0
0
0
0
0
0
0
0
0.0421923
0.0140386
0.0587015
0.0532717
0.0321918
0.0656741
0.0333502
0.0064344
0.0396162
-0.0156998
0.0120914
-0.0480624
0.0443944
-0.0195617
0.0132386
0.000356652
0.00231764
-0.00180673
0.0134837
-0.0070031
0.009548
0.00863404
0.0066668
0.0117038
-0.000548553
-0.0141816
0.00599108
-0.000657169
-0.015942
-0.00112162
0.00197691
-0.00671525
-0.0228951
-0.0114442
-2.84593e-05
0.013924
-0.00600409
0.0394137
0.00736705
-0.00178811
0
0
0
0
0
0
0
0
0
0
0
4.17878e-06
0.0636204
-0.0151139
1.18681e-05
0
0
0
0
0
0
0
-7.67712e-06
0
0
0
0
-4.06262e-07
0
7.95418e-07
0
3.88253e-07
0
0
0
0
0
0
-0.00148461
-0.000210132
-0.00437623
-0.00896422
-0.0276972
0.0323785
0.0188305
-0.0295509
-0.0123933
0.0309875
0.00968261
0.00889085
0.0043748
-0.0101194
-0.00676813
-0.0102437
0.000499145
-0.00433368
0.00905259
-0.00613749
-0.0124634
-0.000809827
0.000540299
0.00308415
1.28004e-08
0
0
7.49839e-07
0
-7.89139e-06
0
0
0
0
2.15215e-10
0
-1.25718e-06
0
1.26001e-06
0
0
0
0
0
0
0
8.4147e-05
0
1.28116e-05
-5.75637e-05
3.08879e-05
4.24605e-05
0
0
0
0
0
0
0
0
0
0
0
0
0
0
0
0
-1.96615e-05
6.85398e-05
0
0
0
0
0
0
0
0
0
0
0
0
0
0
0
0
0
-1.97531e-05
0
2.61901e-05
0.00417893
-0.00576648
-0.0116099
-0.00527705
-0.0370677
-0.0253483
0
0
-0.0138093
0
0
0
0
1.16286e-05
0
-1.15326e-05
0
1.78563e-05
7.1355e-06
0
0
0
0
0
0
0
0
0
0
2.6865e-05
-1.37463e-05
0
0
0
0
0
0
0
0
0
0
1.81993e-05
1.09206e-05
4.20834e-06
0
3.86351e-05
0
0
0
0
0
0
0
0
0
-7.99015e-06
0
2.79007e-05
-0.0351676
0.0370872
-0.0539796
-0.0656598
0.0262963
-0.0541721
-0.036616
0.0429694
0.0405165
-0.00829389
0.0810002
0.0420799
0.0292054
0.00104825
0.0162176
0.00342869
0.0175517
0.00717923
-0.0214027
-0.004619
-0.0375338
0.073077
0.11246
-0.0244873
0.0718248
0.0918296
0.00434621
0.0654896
0.0563042
-0.0162218
0.0549165
0.0386819
-0.0116761
0.0826657
-0.0925433
-0.0334769
0.0860884
-0.116094
-0.0437748
0.0795778
0.120179
0.0282233
-0.0559362
-0.0635363
-0.00588563
-0.0325783
0.0603734
-0.00468133
-0.0570609
0.0129711
-0.0397608
-0.0038973
0.0638953
0.0487175
-0.0235076
0.101764
0.0335911
-0.0578099
-0.0858225
0.0785433
-0.033679
0.118256
0.0630639
-0.0271428
-0.123517
-0.0505611
0.0844982
-0.133096
-0.044831
0.0874606
-0.11796
-0.0312246
0.0719413
0.102632
-0.024548
0.0725571
0.0907329
-0.0192101
0.0721253
-0.0816312
0.0740247
-0.00946486
0.0729362
0.0543326
0.00589363
-0.0757538
-0.0555289
0.0276903
-0.0636789
0.0453115
-0.0113862
-0.0080994
-0.0518619
-0.0539353
-0.06569
-0.0253994
0.00611889
-0.00280554
-0.00772463
-0.0142521
0.00339538
0
-0.0164601
0.00642221
0.00570516
0.0103299
0.0408391
0.0318276
0.0142236
0.0452476
-0.0300902
-0.0302088
0.0553843
0.0334471
0.0226499
0.0503089
0.0254166
0.0448801
0.0582503
-0.0209229
0.0506316
0.0674219
0.0184106
0.0555771
0.0765189
0.0129511
0.0538863
0.0576987
0.0026522
0.0555124
0.0539098
0.00494655
0.0389865
0.0423428
0.0136784
0.0532596
0.0410155
-0.0134151
0.0254043
0.012478
0.00328974
-5.1598e-05
0
0
0
0
0
0
0
0
0
0
0
0
0
0
0
0
0
0
0
0
0
0
0
-9.22988e-06
0
-4.58406e-05
0
-2.45877e-05
0
0
0
0
0.00465242
0
0
0.0218234
0.0127795
-0.00716688
0
0.00220515
-0.0384538
-0.00337741
0.018502
-0.0188213
0.0339051
-0.0277902
-0.00238974
0.0558122
0.00165502
0.0452394
0.0817265
0.00905944
0.0411814
0.090972
0.0016613
-0.0672061
0.0600588
0.0266961
0.087845
0.133216
-0.00670104
0.0654777
-0.0877607
-0.0776984
0.0917685
-0.0303996
0.034036
0.10665
-0.0394737
0.0487361
-0.102587
0.0272232
-0.0603993
-0.0850306
-0.0665708
-0.064233
-0.0383402
-0.0888637
-0.0427243
-0.0670171
-0.0704028
-0.0852542
0.00773914
-0.0751074
-0.0819885
0.0103536
-0.0975236
-0.0766367
0.0260822
-0.101613
-0.0770798
0.0396314
-0.090297
-0.059382
0.0552339
-0.0704443
-0.0325778
0.0648846
-0.0495032
-0.0105688
0.0601488
-0.0375808
0.00859213
-0.0514043
-0.0313098
0.0108935
0.0325439
-0.0187199
-0.0029375
0.0226708
-0.00436701
0.00401896
0.0223666
0.0114183
0.0152219
-0.0302622
-0.0235566
0.0400693
0
0.0108749
0.00740123
0
0
-7.12022e-07
7.48161e-07
0
0
0
0
0
0
0
0
0
3.22848e-05
-1.07031e-05
0.000179771
4.80834e-05
-0.00017453
5.91201e-05
5.06733e-05
-2.6802e-05
-0.00011072
0
-1.46101e-05
-1.03015e-05
0
0.016541
-0.00708392
0
0
0
6.00766e-05
0
-1.46025e-06
-3.37651e-05
2.93729e-05
7.43731e-05
0
3.07284e-05
0
0
0
0
0
0
0
0
0
0
0
-1.08689e-06
3.54089e-07
0
0
0
0
0
0
0.00764898
0
0.00365403
0
0.0045509
0
0
0
0
0
0
0
0
0
0
0
0
0
0
0
0
0
0
0
0
-3.45952e-05
0
0
0
0
0
0
0
0
0
0
0
0
3.1671e-05
0
0
0
0
0
0
0
0
0
0
0
0
0
-7.63835e-05
0
0
0
0
0
0
0
0
0
0
0
0
0
0
0
0
0
0
0
0
0
0
0
0
0
0
0
0
0
0
0
0
0
0
0
0
0
0
0
0
0
0
0
0
0
0
0
0
0
-1.09535e-06
3.11382e-11
0
0
0
0
0
0
0.00755762
0.034884
-0.0227048
0.0300474
0.0384756
-0.00483103
0.00920832
0.00555236
0.00860867
0.0507451
0.0332926
0.0234369
0.0185817
-0.00930541
-0.00240888
0.076875
-0.0151806
0.0679897
0.0292539
0.0134503
0.0434057
-0.0285616
-0.00418654
0.0160322
-0.0289151
-0.00772638
0.00151425
0.00896496
-0.00685221
-0.00297249
0.0158584
0.00863527
0.00618979
0.00651906
-0.0128937
-0.0121393
-0.0090312
-0.0123389
0.00746623
-0.0170299
0.000608433
-0.0122045
0.0343973