/*--------------------------------*- C++ -*----------------------------------*\
  =========                 |
  \\      /  F ield         | OpenFOAM: The Open Source CFD Toolbox
   \\    /   O peration     | Website:  https://openfoam.org
    \\  /    A nd           | Version:  8
     \\/     M anipulation  |
\*---------------------------------------------------------------------------*/
FoamFile
{
    version     2.0;
    format      ascii;
    class       volScalarField;
    location    "18900";
    object      Hclip;
}
// * * * * * * * * * * * * * * * * * * * * * * * * * * * * * * * * * * * * * //

dimensions      [0 1 0 0 0 0 0];

internalField   nonuniform List<scalar> 
526318
(
1.75973
1.7298
1.80122
1.69765
1.77117
1.74396
1.74661
1.66593
1.73341
1.60489
1.58845
1.71051
1.6539
1.6882
1.65651
1.6882
1.64865
1.84806
1.7555
1.81013
1.79908
1.75702
1.51668
1.75278
1.64408
1.50499
1.77998
1.77628
1.78232
1.79083
1.82148
1.86822
1.85065
1.73711
1.72169
1.69954
1.70636
1.79725
1.72233
1.67193
1.74247
1.69633
1.37282
1.41622
1.31626
1.38113
1.34429
1.47352
1.65324
1.55053
1.64084
1.63989
1.60005
1.54822
1.04776
1.2858
1.29253
1.08565
1.80835
1.81955
1.84054
1.79164
1.73969
1.86744
1.86005
1.82191
1.80861
1.80757
1.71271
1.70271
1.81601
1.59325
1.64793
1.54518
1.49585
1.49125
1.58576
1.58361
1.50026
1.53496
1.62029
1.61578
1.57013
1.5289
1.55739
1.62153
1.62633
1.59796
1.55265
1.62137
1.52947
1.47465
1.47272
1.4028
1.4012
1.40231
1.40412
1.39985
1.39666
1.39686
0.821411
0.789007
0.869274
0.90089
0.956571
0.729612
1.31263
1.11489
1.43727
1.3916
1.44008
1.55206
1.77533
1.6732
1.78136
1.79492
1.86019
1.82849
1.87419
1.39177
1.39306
1.39581
1.39885
1.35198
1.39242
1.30321
1.34535
1.25551
1.30347
1.25409
1.25331
1.24469
1.219
1.21265
1.2383
1.18158
1.23583
1.18446
1.2038
1.15034
1.15444
1.17538
1.20665
1.19342
1.14709
1.15011
1.16308
1.15492
1.14644
1.15345
1.17051
1.15311
1.16049
1.15727
1.16056
1.12878
1.1619
1.15866
1.12311
1.08107
1.15802
1.11348
1.16758
1.6608
1.75549
1.69939
1.68551
1.48738
1.55979
1.49161
1.48746
1.49095
1.48667
1.5081
1.4902
1.42434
1.39278
1.35992
1.30214
1.3612
1.40285
1.40331
1.40198
1.28912
1.34102
1.22624
1.23645
1.24586
1.23488
1.23854
1.24122
1.23036
1.23366
1.22993
1.21738
1.19932
1.22352
1.21546
1.18661
1.16556
1.1943
1.17901
1.17451
1.18956
1.17944
1.18376
1.14305
1.16796
1.19752
1.19346
1.6519
1.6465
1.69026
1.66514
1.64826
1.64615
1.64585
1.51445
1.57435
1.31532
1.27933
1.27949
1.41234
1.5464
1.41809
1.45925
1.46085
1.41133
1.38537
0.882074
0.699972
1.03186
1.23157
0.484794
0.325906
0.627763
0.716373
0.694403
0.688468
1.86172
1.83873
1.89055
1.88007
1.84996
1.84226
1.75308
1.83275
1.67728
1.6267
1.62238
1.62678
1.62244
1.62723
1.61421
1.60897
1.53011
1.5907
1.40961
1.46594
1.39307
1.40835
0.20605
0.134262
0.59202
0.374607
0.868608
0.819414
0.874915
1.02436
1.40727
1.21939
1.45337
1.45723
1.57027
1.66362
1.79271
1.79285
1.83252
1.80444
1.87269
1.90443
1.37181
1.37252
1.33151
1.30414
1.20365
1.23694
1.16635
1.17296
1.16397
1.15948
1.14936
1.15329
1.07872
1.10908
1.14485
1.17631
1.23542
1.19868
1.16552
1.15779
1.09806
1.08162
1.13226
1.1926
1.11123
1.14754
1.1495
1.11886
1.11184
1.08352
1.07714
1.04423
1.03949
1.04991
1.03177
1.16174
1.1977
1.15926
1.19969
1.55941
1.51918
1.41561
1.50415
1.4287
1.47661
1.48689
1.48095
1.48628
1.49145
1.40269
1.31235
1.24246
1.2259
1.30139
1.24228
1.22853
1.34222
1.23109
1.28094
1.21939
1.22061
1.23032
1.21766
1.23479
1.22649
1.22609
1.23146
1.22971
1.22778
1.23857
1.23143
1.24521
1.24036
1.24227
1.22351
1.23579
1.22034
1.19605
1.19476
1.22112
1.25169
1.24287
1.22286
1.20432
1.22699
1.27163
1.26829
1.2813
1.24387
1.27752
1.29461
1.33058
1.28323
1.289
1.31347
1.34714
1.45813
1.53908
1.472
1.50269
1.56906
1.63417
1.54809
1.40827
1.52264
1.41687
1.45326
1.18024
1.12055
1.15032
1.13645
1.25938
1.37752
1.31233
1.37904
1.38313
1.40853
1.37964
0.650909
0.792465
0.955961
0.788586
1.03494
0.917916
0.0551042
0.205367
0.147467
0.070136
0.001
0.220084
0.446331
0.691186
0.565415
0.581256
1.88441
1.87343
1.91072
1.89788
1.87727
1.84996
1.77359
1.69368
1.62752
1.63356
1.61307
1.61602
1.59503
1.59297
1.57232
1.57399
1.52248
1.56473
1.48822
1.43043
1.37561
1.33227
0.001
0.00107152
0.00107152
0.001
0.001
0.001
0.001
0.00107152
0.00107152
0.00107152
0.0491771
0.00100984
0.001
0.001
0.0117881
0.001
0.103591
0.215396
0.214346
0.380527
0.837806
0.625884
0.941265
0.909596
1.10586
0.959821
1.32194
1.47605
1.49506
1.58034
1.80147
1.69981
1.81604
1.81846
1.8291
1.8644
1.89246
1.9089
1.291
1.2913
1.24707
1.2702
1.20917
1.17679
1.16632
1.16357
1.16003
1.16383
1.11713
1.11238
1.05928
1.07669
1.1306
1.10537
1.07338
1.12223
1.11843
1.13863
1.04346
1.03564
1.05925
1.06648
1.06825
1.02414
1.02928
1.02495
1.03174
1.01425
1.01314
1.31408
1.28931
1.2892
1.28833
1.30989
1.41618
1.3728
1.35284
1.23749
1.28063
1.26668
1.26837
1.16982
1.10581
1.28525
1.40104
1.27988
1.29282
1.26645
1.35137
1.33397
1.40157
1.43321
1.36589
1.34063
1.38092
1.25709
1.22606
1.2257
1.22542
1.14064
1.19519
1.12179
1.07399
1.0538
1.17339
1.17177
1.22276
1.22286
1.21807
1.22398
1.21717
1.22733
1.21924
1.23489
1.22309
1.24666
1.23528
1.24186
1.24677
1.27064
1.25324
1.28273
1.28389
1.23479
1.21651
1.28132
1.26525
1.2534
1.26741
1.25193
1.24061
1.29078
1.2711
1.37311
1.37938
1.33361
1.37202
1.3821
1.34894
1.44114
1.4115
1.47993
1.50063
1.5248
1.43117
1.44993
1.43646
1.40855
1.37963
1.35471
1.44131
1.29789
1.26772
1.3198
1.3552
1.01761
1.07057
1.15276
1.27102
1.30759
1.33881
1.25011
1.21
1.18441
1.11551
0.473566
0.57549
0.841106
0.641037
0.948732
1.01707
0.001
0.001
0.001
0.001
0.123273
0.001
0.500424
0.272514
0.425134
0.424304
0.001
0.001
0.001
0.001
0.001
0.00101
0.001
0.001
0.001
0.001
0.00113883
0.001
0.001
0.00113867
0.00113867
0.00113868
0.001
0.001
0.001
0.001
0.001
0.001
0.001
0.001
0.00100959
0.001
0.00100965
0.001
0.001
0.001
1.87764
1.88954
1.91199
1.8976
1.87703
1.80594
1.62821
1.70848
1.59681
1.59526
1.57463
1.57548
1.56607
1.5666
1.55931
1.55995
1.50379
1.47335
1.37415
1.41684
1.27061
1.3122
0.001
0.001
0.001
0.001
0.001
0.001
0.001
0.001
0.00101
0.001
0.001
0.001
0.001
0.001
0.001
0.001
0.001
0.00100737
0.001
0.001
0.001
0.001
0.001
0.001
0.001
0.143263
0.302355
0.282646
0.345243
0.530029
0.980847
0.7773
0.993431
0.994913
1.29021
1.1246
1.49924
1.46204
1.52662
1.63155
1.73602
1.8177
1.83187
1.81711
1.85974
1.8897
1.87281
1.87637
0.00113529
0.001
0.001
0.001
0.001
0.001
0.001
0.001
0.001
0.001
0.001
0.001
0.001
0.001
0.001
0.00101
0.001
1.27133
1.27194
1.27115
1.23847
1.15875
1.19163
1.11826
1.10801
1.07562
1.0684
1.02593
1.02306
1.05729
1.0513
1.01336
1.04714
1.04362
1.09265
1.07443
1.07386
0.994783
0.965282
0.965711
1.0093
1.01407
1.01619
0.99247
0.99482
0.956744
0.946098
0.908594
0.914522
1.51183
1.47912
1.52014
1.52885
1.47884
1.4359
1.60287
1.62528
1.68983
1.69812
1.24728
1.28669
1.33832
1.42148
1.2443
1.1907
1.22388
1.225
1.06419
1.11736
1.1624
1.05563
1.27031
1.26553
1.27088
1.26605
1.2854
1.27029
1.2855
1.29461
1.18185
1.17067
1.07316
1.15611
1.14596
1.1072
1.05575
1.07907
1.02276
1.04123
1.02078
1.1087
1.17097
1.10143
1.16592
1.22245
1.22173
1.21662
1.21859
1.22737
1.24768
1.23523
1.25231
1.25363
1.27307
1.26222
1.28488
1.28797
1.28825
1.2883
1.29695
1.29024
1.33283
1.30296
1.26981
1.26867
1.33633
1.30169
1.31168
1.34909
1.39142
1.39036
1.39174
1.39038
1.42116
1.47487
1.53577
1.55661
1.5653
1.54318
1.68615
1.6239
1.75305
1.79247
1.78175
1.82302
1.87616
1.74124
1.82903
1.85001
1.92633
1.97606
1.99942
2.0224
2.05158
1.99373
2.04972
2.00703
2.08887
2.08952
2.13631
2.10417
2.16814
2.19671
2.1887
2.13433
2.20287
2.22438
2.19155
2.18655
2.25417
2.22949
2.26162
2.20073
2.20054
2.26638
2.23362
2.18489
2.1853
2.21829
2.25055
1.24734
1.20715
1.3762
1.37045
1.34346
1.33846
1.33486
1.09891
1.24103
0.937785
0.969883
1.08026
1.05894
0.929001
1.00949
1.00094
1.16821
1.07519
1.07489
0.992104
0.978022
0.996072
1.02143
0.538042
0.411849
0.806769
0.593503
0.805287
0.758203
0.00101
0.001
0.001
0.001
0.001
0.001
0.138409
0.382076
0.284842
0.313549
0.001
0.001
0.001
0.001
0.00136971
0.001
0.001
0.001
0.001
0.001
0.001
0.001
0.001
0.001
0.00100829
0.001
0.001
0.001
0.0010095
0.001
0.001
0.0010204
0.001
0.00101549
0.001
0.001
0.00101
0.001
0.00102209
0.001
0.00102183
0.0010213
0.001
0.00102077
0.00102044
0.00102127
0.001
0.001
0.001
0.001
0.001
0.001
0.001
0.001
0.0010078
0.001
0.001
0.001
0.001
0.001
0.001
0.001
0.001
0.00101
0.001
0.001
1.86632
1.85705
1.82756
1.82741
1.74678
1.8133
1.63842
1.57753
1.56757
1.56752
1.56614
1.56772
1.5033
1.51131
1.35173
1.31304
1.27107
1.44495
1.44741
1.39423
1.39624
1.3947
0.001
0.001
0.00114353
0.00114351
0.001
0.001
0.001
0.001
0.00114353
0.001
0.001
0.00100893
0.001
0.001
0.001
0.001
0.001
0.001
0.001
0.001
0.368484
0.195922
0.397466
0.402706
0.647305
0.443336
0.837511
1.00131
1.12717
0.991932
1.28861
1.46063
1.48973
1.5205
1.60036
1.71627
1.781
1.75883
1.79943
1.73911
1.79056
1.82353
1.78417
1.77729
0.00101
0.001
0.00100993
0.001
0.001
0.00119158
0.001
0.001
0.00119157
0.001
0.001
0.001
0.001
0.001
0.00101
0.001
0.001
0.001
0.00101
0.001
0.001
0.001
0.001
0.001
0.00221034
0.00101074
1.24617
1.24618
1.16581
1.18312
1.06019
1.08256
1.02107
1.02158
1.02012
1.0222
0.993024
0.996637
0.970517
0.970638
0.948586
0.986656
1.06529
1.02729
1.06502
1.06428
0.883908
0.905167
0.945806
0.92518
0.933658
0.938594
0.884727
0.877276
0.860518
0.875692
0.883108
0.881215
1.73594
1.73347
1.56234
1.47577
1.46347
1.4513
1.73231
1.64301
1.88888
1.96706
1.86398
1.786
1.97957
1.95963
2.02545
2.07516
2.10461
2.10285
2.13177
2.10362
2.15849
2.18473
2.18034
2.18021
2.19997
2.18513
2.18473
2.23203
2.17411
2.16959
1.29498
1.22391
1.36647
1.43802
1.22233
1.17032
1.22222
1.22196
1.05279
1.10544
0.941561
1.10676
0.991097
1.26873
1.20503
1.26387
1.25655
1.26889
1.16551
1.06272
0.986823
0.977178
0.988235
1.02294
0.948779
0.936243
0.865334
0.951324
1.03604
1.02718
0.950067
1.04906
1.11648
1.0617
1.16851
1.11209
1.15363
1.21389
1.25152
1.22288
1.2576
1.26303
1.2731
1.25934
1.29289
1.30616
1.30587
1.31664
1.32205
1.32644
1.35672
1.36918
1.36069
1.35423
1.35676
1.35097
1.3682
1.38301
1.43024
1.42266
1.39026
1.4214
1.41732
1.44931
1.48294
1.54545
1.5768
1.57601
1.58728
1.65676
1.73987
1.81189
1.82637
1.95074
1.8254
1.87656
2.02699
2.04998
2.05185
2.08755
2.13934
2.18605
2.20023
2.20083
2.23111
2.25736
2.28451
2.28344
2.28353
2.28397
2.28345
2.2653
2.19981
2.26528
2.23284
2.18583
2.18576
2.21852
2.25125
2.26111
2.1869
2.24851
2.20694
1.03819
1.02398
1.10077
1.17293
1.06
1.12698
1.26353
1.19757
1.22783
1.06486
0.965181
0.931119
0.930753
1.0349
1.03158
0.693689
0.790046
0.975464
0.876396
0.979019
0.981784
0.996274
0.982125
1.0063
1.01654
0.211903
0.363989
0.470933
0.638471
0.649209
0.663644
0.001
0.001
0.001
0.00101
0.001
0.001
0.00185503
0.001
0.117311
0.001
0.001
0.00136952
0.001
0.00101
0.001
0.001
0.001
0.001
0.001
0.001
0.0010518
0.001
0.001
0.001
0.001
0.001
0.001
0.001
0.001
0.001
0.001
0.001
0.001
0.001
0.001
0.00101595
0.001
0.001
0.001
0.001
0.001
0.001
0.001
0.00101
0.001
0.00100962
0.001
0.001
0.001
0.001
0.001
0.001
0.001
0.001
1.77518
1.77635
1.75516
1.76274
1.69555
1.75526
1.5671
1.62894
1.52627
1.52768
1.47275
1.45217
1.39789
1.39619
1.30916
1.20592
1.18288
1.35068
1.39539
1.39563
1.39685
1.39534
0.00114359
0.001
0.00114359
0.001
0.001
0.001
0.001
0.001
0.00100548
0.001
0.001
0.001
0.001
0.001
0.001
0.00100999
0.001
0.001
0.001
0.0764563
0.266194
0.401727
0.466383
0.42126
0.62609
0.810385
0.958371
1.00059
1.19322
1.02005
1.3288
1.46498
1.43695
1.54915
1.71256
1.6176
1.69603
1.68912
1.69009
1.70744
1.77106
1.761
1.76561
1.74631
0.001
0.001
0.001
0.001
0.001
0.001
0.001
0.001
0.001
0.001
0.001
0.001
0.001
0.001
0.001
0.001
0.001
0.001
0.001
0.00100999
0.001
0.001
0.00207313
0.001
0.00101
0.001
0.001
0.001
0.001
0.001
0.001
1.11993
1.12208
1.08645
1.06156
1.02003
1.04351
1.01036
1.00874
1.16437
1.10597
1.08449
0.937217
0.948882
0.880152
0.879882
0.946465
0.946838
0.941408
0.979976
1.03964
0.994269
1.02657
1.01237
0.90385
0.883269
0.896624
0.917104
0.846477
0.846477
0.845308
0.856788
0.871394
0.858308
0.823752
0.830625
2.30717
2.32076
2.34687
2.31859
2.36924
2.35187
2.37893
2.36656
2.42226
2.40845
2.37797
2.42825
2.38941
2.44703
2.27584
2.22733
2.24749
2.29715
2.27974
2.24807
2.25129
2.30429
2.30872
2.28492
2.26615
2.3171
2.30264
2.30933
2.33565
2.18538
2.18472
2.18488
2.1846
2.20389
2.22461
1.78241
1.72506
1.62117
1.52477
1.43793
1.51336
1.71641
1.69736
1.93681
1.96216
1.84784
1.93118
1.96749
2.01585
2.06213
2.10391
2.10019
2.10196
2.09764
2.12807
2.14051
2.16638
2.15409
2.15662
2.16226
2.1714
2.14905
2.14831
1.34446
1.27399
1.21574
1.20566
1.26277
1.43781
1.41679
1.14597
1.20122
1.07485
1.00958
2.29305
2.31507
2.32991
2.33678
2.34258
2.35359
2.35749
2.38431
2.37041
2.38778
2.38445
2.43785
2.46081
2.48265
2.48342
2.487
2.49828
2.51982
0.987406
0.926504
0.936048
1.19353
1.07563
1.24677
1.15565
1.06849
0.970485
0.976687
0.972136
0.976405
0.824829
0.901175
0.753431
0.772729
0.856354
0.77858
1.04262
0.970971
0.870891
1.06208
1.0626
1.06164
1.11889
1.07362
1.20243
1.14723
1.2372
1.20063
1.23616
1.26345
1.28405
1.30805
1.32893
1.32942
1.33986
1.33275
1.39055
1.37646
1.37026
1.36896
1.42017
1.3951
1.4652
1.42607
1.40661
1.45041
1.49323
1.48473
1.50639
1.54353
1.54491
1.48829
1.59924
1.62699
1.59811
1.58766
1.67012
1.75316
1.82571
1.89231
1.84085
1.85586
1.98527
2.04441
2.08831
2.06896
2.13576
2.16526
2.20693
2.22485
2.21914
2.23665
2.29386
2.27589
2.2862
2.29547
2.28613
2.2844
2.2842
2.28421
2.28362
2.28426
2.28447
1.01567
1.01068
1.03464
0.957306
0.971486
0.993276
0.927487
1.07038
0.973053
0.907604
0.927923
0.908683
0.803337
0.910703
0.927056
0.712528
0.705309
0.661898
0.757883
0.974309
0.876103
0.876822
0.881639
0.666869
0.568476
0.368366
0.378564
0.288118
0.114559
0.115748
0.652726
0.472535
0.633289
0.6336
0.001
0.001
0.001
0.001
0.001
0.001
0.00100984
0.001
0.117139
0.001
0.001
0.001
0.00101
0.001
0.001
0.001
0.001
0.0023846
0.001
0.001
0.001
0.001
0.001
0.001
0.00100993
0.001
0.001
0.001
0.001
0.001
0.00101373
0.001
0.001
0.001
0.001
0.00101395
0.001
0.001
0.001
0.001
0.001
0.001
0.001
0.001
0.00101
0.001
0.001
0.001
0.001
0.001
0.001
0.001
0.001
0.001
0.001
0.00216008
0.001
0.001
0.001
0.001
0.00216004
2.47775
2.43873
2.40483
2.51347
2.54628
2.54529
1.7555
1.75571
1.74389
1.73971
1.66605
1.72966
1.56312
1.48552
1.41212
1.42924
1.39502
1.39844
1.3976
1.39675
1.27208
1.18856
1.27928
1.36074
1.35965
0.001
0.001
0.001
0.001
0.001
0.001
0.001
0.001
0.001
0.001
0.00100943
0.001
0.001
0.959522
0.992121
1.02402
0.001
0.001
0.001
0.001
0.250119
0.128508
0.432222
0.456781
0.618226
0.477534
0.790797
1.1614
1.30645
1.41891
1.4166
1.7302
1.65502
1.66712
1.45609
1.54283
1.63487
1.6806
1.67947
1.68906
1.70613
1.72603
1.72597
0.001
0.00117382
0.001
0.001
0.001
0.001
0.00100904
0.001
0.001
0.001
0.001
0.001
0.001
0.001
0.001
0.001
0.001
0.00100504
0.001
0.001
0.001
0.001
0.001
0.001
0.001
0.001
0.001
0.001
0.001
0.001
0.00101
0.00100979
0.001
0.001
0.001
0.001
0.001
1.11929
1.15492
1.14233
1.08263
1.08694
1.05459
1.08027
0.9449
0.97669
0.888444
0.88501
1.09145
1.07703
0.840957
0.841336
0.844916
0.846363
0.897304
0.877683
0.917459
0.863712
0.98663
0.938452
0.985776
0.994653
0.823399
0.780672
0.804298
0.833253
0.813388
0.814789
0.753651
0.789693
0.768668
0.749926
0.727085
0.728371
2.31008
2.32326
2.34887
2.3629
2.37007
2.37038
2.42145
2.39262
2.24037
2.2388
2.22367
2.24404
2.27829
2.24039
2.28143
2.25927
2.1716
2.16071
2.15994
2.18991
2.21964
2.19442
1.78721
1.7087
1.60113
1.69131
1.53869
1.44984
1.70406
1.70519
1.94471
1.948
1.96224
1.86041
1.93782
2.04795
1.9941
1.93828
1.97961
2.07864
2.09176
2.08164
2.08754
2.0953
2.11793
2.14524
2.13571
2.14604
2.14674
2.14686
2.14792
2.14773
2.14693
1.1896
1.19218
1.33244
1.41316
1.19202
1.27253
1.43059
1.44554
1.1815
1.12651
1.03806
1.10229
2.32408
2.28397
2.30366
2.34766
2.3472
2.34857
2.35789
2.38047
2.40186
2.41512
2.41405
2.41863
2.44253
2.48035
2.46571
2.48359
2.50003
2.54331
2.52159
2.35324
2.36538
2.38109
2.54795
2.5497
2.55264
0.940513
0.94209
0.924628
0.899564
1.00452
1.01136
0.820522
0.854554
0.892292
0.781092
0.820804
0.822046
0.749034
0.751208
0.752924
0.754317
0.78738
0.817954
0.920133
0.84861
0.848485
0.989378
1.06486
0.982312
1.13983
1.16674
1.09865
1.13571
1.20025
1.16876
1.29069
1.23677
1.30821
1.31871
1.32782
1.31843
1.36923
1.40606
1.44545
1.44392
1.4497
1.43543
1.46162
1.44331
1.49171
1.49736
1.51979
1.51895
1.49513
1.49928
1.61648
1.66618
1.56146
1.6282
1.67257
1.63784
1.73563
1.78243
1.88
1.91785
1.89588
1.98553
2.04185
2.14038
2.1274
2.18653
2.16082
2.25707
2.26177
2.25536
2.28558
2.31368
2.31179
2.36738
2.33236
2.35921
2.32286
2.32198
2.35713
2.28877
2.32552
2.28884
0.383866
0.700939
0.394049
0.669687
0.948923
0.932877
0.929808
0.911179
0.928231
0.78179
0.6815
0.678604
0.570223
0.774314
0.648966
0.682581
0.793222
0.066621
0.0641643
0.437872
0.559223
0.553951
0.356787
0.254281
0.23694
0.021853
0.0325828
0.0450823
0.118097
0.108286
0.0275298
0.207355
0.0971294
0.372802
0.158032
0.083571
0.0010004
0.001
0.001
0.001
0.001
0.001
0.00224618
0.001
0.001
0.00179489
0.001
0.001
0.00101
0.001
0.001
0.00222602
0.001
0.001
0.001
0.00100982
0.00135672
0.001
0.00100983
0.001
0.001
0.001
0.00101
0.001
0.0010134
0.00101273
0.001
0.001
0.00101237
0.001013
0.001
0.001
0.001
0.001
0.00167237
0.001
0.00167228
0.001
0.001
0.001
0.001
0.00100984
0.00101
0.00100994
0.001
0.001
0.001
0.001
0.001
0.001
0.001
0.001
0.001
0.001
0.00135668
0.001
0.00100958
0.00100997
0.001
0.001
0.001
0.001
0.00101
2.45793
2.43792
2.44126
2.45286
2.48704
2.58967
2.55612
2.56589
2.58526
2.52867
1.66182
1.6538
1.58648
1.5879
1.54863
1.57814
1.48982
1.44368
1.43231
1.39531
1.37
1.37186
1.28212
1.2928
1.15706
1.20167
1.2008
0.001
0.001
0.001
0.00101
0.001
0.001
0.001
0.992522
1.13428
0.990859
0.001
0.001
0.001
0.001
0.858494
0.69521
0.0281179
0.001
0.0559861
0.165628
0.457966
0.318253
0.497924
0.498238
0.524796
1.53044
1.53245
1.57461
1.27367
1.41674
1.4151
1.45046
1.57482
1.64179
1.60356
1.51714
1.5991
1.61871
1.62284
1.54912
1.57722
0.001
0.001
0.00117385
0.00101
0.001
0.001
0.00101
0.00117268
0.001
0.001
0.001
0.001
0.001
0.001
0.001
0.001
0.001
0.00100184
0.001
0.00101
0.001
0.001
0.001
0.001
0.001
0.00100577
0.001
0.001
0.001
0.001
0.001
0.00101808
0.00100563
0.001
0.001
0.001
0.001
0.001
0.001
0.001
0.001
0.001
0.001
0.001
0.001
1.13668
1.1467
1.15725
1.02467
1.04611
1.00408
1.00795
0.936036
0.922182
0.837117
0.851522
0.839501
0.840544
0.940135
0.933718
0.789961
0.787231
0.75433
0.72879
0.827565
0.820898
0.845621
0.902657
0.982165
0.944618
1.01102
0.963287
0.762644
0.735185
0.795369
0.818145
0.695452
0.692989
0.66524
0.686917
0.727339
0.706771
0.728121
0.733443
2.31896
2.26632
2.35553
2.3039
2.32205
2.36105
2.32803
2.39852
2.3448
2.43024
2.38057
2.37715
2.43482
2.41327
2.20635
2.20595
2.19657
2.2101
2.22356
2.23626
2.23612
2.24908
2.14707
2.14831
2.17064
2.15659
2.18701
2.19427
1.78832
1.71099
1.62782
1.70424
1.49931
1.5914
1.70551
1.71129
1.93717
1.93659
1.93896
1.86723
2.02392
2.07003
1.9821
1.9362
2.07474
2.07563
2.08796
2.07498
2.112
2.13406
2.14363
2.14373
2.14474
2.14256
2.14832
2.14755
2.14571
2.14326
1.18631
1.18336
1.35053
1.42604
1.32773
1.24752
1.48286
1.42727
1.1614
1.18197
1.15373
1.07232
2.32546
2.36113
2.34371
2.36765
2.38796
2.37647
2.41047
2.42294
2.39933
2.41402
2.40342
2.41449
2.4185
2.4423
2.46722
2.47985
2.4817
2.53169
2.50875
2.55569
2.56507
2.43615
2.44938
2.56501
2.57312
0.676291
0.840748
0.691808
0.810969
0.724359
0.698212
0.661497
0.629252
0.657009
0.691717
0.586102
0.637275
0.63719
0.528125
0.588934
0.735244
0.850791
0.76347
0.85485
0.854855
0.84772
0.916723
1.06196
0.969294
1.15374
1.15791
1.11957
1.07109
1.19551
1.23417
1.28962
1.28265
1.30001
1.2952
1.41071
1.36334
1.46399
1.45092
1.4805
1.48114
1.46121
1.51549
1.55766
1.52987
1.51722
1.54269
1.59446
1.57867
1.55959
1.6059
1.68748
1.69071
1.68208
1.70515
1.8339
1.74572
1.91533
1.94402
1.94139
2.0106
2.08467
2.16259
2.16948
2.18263
2.22959
2.2776
2.31442
2.31385
2.35228
2.32698
2.37916
2.39401
2.39395
2.39506
2.39362
2.39521
2.36248
2.39386
2.36216
0.0469357
0.0316771
0.0523807
0.0297479
0.338473
0.642933
0.327739
0.804525
0.670459
0.677479
0.522763
0.541269
0.544964
0.538208
0.546784
0.554668
0.535219
0.534664
0.542239
0.0525693
0.0423645
0.001
0.001
0.0191797
0.001
0.0226011
0.0234033
0.001
0.00394488
0.001
0.001
0.001
0.001
0.001
0.001
0.00208305
0.001
0.001
0.00100986
0.001
0.001
0.001
0.00188866
0.001
0.001
0.001
0.001
0.001
0.001
0.001
0.001
0.001
0.00100941
0.001
0.001
0.001
0.00100992
0.001
0.001
0.001
0.00101
0.001
0.001
0.001
0.001
0.001
0.001
0.0010008
0.001
0.001
0.001
0.00100949
0.001
0.001
0.001
0.001
0.001
0.001
0.001
0.001
0.001
0.001
0.00101
0.001
0.001
0.001
0.001
0.001
0.001
0.001
0.001
0.001
0.001
0.001
0.001
0.001
0.001
0.001
0.001
0.001
0.001
0.001
0.001
0.001
0.001
0.001
0.001
0.001
0.001
0.001
0.001
0.001
0.00106302
0.001
0.001
0.001
0.001
2.62176
2.60379
2.62605
2.63092
2.62082
2.62237
2.4594
2.45851
2.52347
2.49354
2.59575
2.60376
2.58701
2.47276
2.4576
1.52978
1.5281
1.5318
1.5188
1.52987
1.45791
1.50446
1.29063
1.349
1.21349
1.21367
1.15925
1.15943
1.15749
0.001
0.001
0.001
0.001
0.968466
1.16064
0.986772
0.001
0.001
0.943328
0.841362
0.001
0.001
0.001
0.001
0.539058
0.67702
0.0657608
0.067777
0.208052
0.0636022
0.498246
0.359467
0.506718
1.53104
1.52971
1.53518
1.53323
1.53209
1.23974
1.3593
1.301
1.42024
1.48276
1.50953
1.43694
1.51988
1.47244
1.47167
1.45894
0.001
0.00107548
0.001
0.001
0.001
0.001
0.001
0.001
0.001
0.001
0.001
0.001
0.001
0.001
0.001
0.0639414
0.0635351
0.00833268
0.001
0.001
0.00909773
0.001
0.001
0.001
0.001
0.00100955
0.001
0.001
0.001
0.001
0.001
0.001
0.001
0.001
0.001
0.001
0.00107992
0.001
0.00107974
0.001
0.001
0.001
0.001
0.001
0.001
0.001
0.001
0.001
0.001
0.001
0.0580728
0.001
0.001
0.001
0.001
0.001
0.001
1.13374
1.06401
1.05166
0.981889
0.974603
0.893095
0.878981
0.86757
0.870651
0.857035
0.87119
0.800504
0.810919
0.733027
0.723622
0.868883
0.87426
0.667003
0.656423
0.657159
0.668404
0.943861
1.00575
0.924378
0.819898
0.800001
0.880044
0.808295
0.893174
0.728518
0.699715
0.758555
0.712655
0.667282
0.666016
0.657576
0.680857
0.680225
0.651431
0.642902
0.626713
2.24665
2.25932
2.27714
2.28173
2.28168
2.28937
2.39207
2.36649
2.34335
2.30504
2.41974
2.37474
2.36514
2.19624
2.19535
2.22401
2.21017
2.23242
2.23467
2.26425
2.24158
2.14875
2.15498
2.17837
2.16318
2.17815
2.18567
1.82639
1.7488
1.67028
1.70579
1.65264
1.56016
1.74297
1.70752
1.94198
1.94012
1.90184
1.94534
2.0311
2.07775
1.94324
1.98824
2.08037
2.0768
2.09933
2.08095
2.122
2.13962
2.14059
2.13944
2.14118
2.14039
2.14526
2.14375
2.14147
2.14112
1.18181
1.23969
1.42635
1.40513
1.32737
1.40924
1.42978
1.50423
1.17437
1.17234
1.16458
1.08369
0.922435
0.964084
1.04514
2.39311
2.39781
2.42377
2.41588
2.43965
2.45139
2.45176
2.45166
2.48821
2.46768
2.48111
2.44758
2.4779
2.4886
2.5126
2.53351
2.54509
2.54199
2.59053
2.59307
2.61464
2.59279
2.50854
2.51356
2.62732
2.62696
0.443047
0.527173
0.392251
0.634572
0.543391
0.625615
0.628893
0.617489
0.550722
0.482193
0.41705
0.416785
0.442017
0.499668
0.672193
0.57171
0.554451
0.751847
0.905529
0.863606
0.718988
0.955069
0.999985
1.01832
0.997123
1.10424
1.16973
1.0505
1.27394
1.21547
1.28741
1.28618
1.37624
1.31973
1.44167
1.47023
1.46584
1.47432
1.59342
1.56378
1.53277
1.58654
1.60472
1.59938
1.59697
1.58853
1.60495
1.6006
1.68403
1.72859
1.76718
1.71981
1.76752
1.79116
1.93232
1.86168
1.95449
1.94468
2.02271
2.10014
2.18476
2.18171
2.21625
2.25433
2.33029
2.31899
2.34256
2.34787
2.37668
2.38638
2.40501
2.39861
2.40875
2.40649
2.39612
2.40614
2.39422
2.39332
0.001
0.001
0.001
0.001
0.001
0.001
0.001
0.177444
0.00103659
0.540363
0.552603
0.0788499
0.280644
0.546963
0.535628
0.55604
0.535691
0.54338
0.544684
0.46636
0.378014
0.001
0.001
0.001
0.001
0.00100179
0.001
0.001
0.001
0.001
0.001
0.00101
0.001
0.001
0.00100863
0.00187238
0.001
0.001
0.001
0.00386496
0.001
0.001
0.001
0.00100974
0.001
0.001
0.001
0.00100983
0.001
0.001
0.00100647
0.001
0.00100976
0.001
0.001
0.001
0.001
0.001
0.00347717
0.001
0.001
0.001
0.001
0.001
0.00130252
0.00130245
0.00130247
0.001
0.001
0.001
0.001
0.001
0.001
0.001
0.001
0.001
0.001
0.001
0.001
0.001
0.001
0.001
0.001
0.001
0.001
0.001
0.001
0.001
0.001
0.001
0.001
0.001
0.001
0.001
0.001
0.001
0.001
0.001
0.001
0.001
0.001
0.001
0.001
0.001
0.001
0.001
0.00101
0.001
0.00159245
0.001
0.00106821
0.001
0.00105254
0.001
0.001
0.001
2.63877
2.66132
2.67122
2.62131
2.62976
2.61575
2.62808
2.50125
2.54165
2.5541
2.5596
2.55813
2.59813
2.62149
2.45727
2.50023
2.4237
2.46352
2.46503
1.52467
1.52111
1.42333
1.39281
1.4843
1.41701
1.4279
1.29326
1.3229
1.18713
1.1595
1.1595
1.15965
1.13475
0.001
0.001
1.07154
1.19127
0.970808
0.001
0.001
0.926071
0.912492
0.001
0.001
0.660897
0.789652
0.0292563
0.095494
0.0423941
0.001
0.515119
0.523553
0.113021
0.148174
0.19379
0.2883
0.443855
1.49128
1.53133
1.51208
1.48346
1.25038
1.2448
1.26964
1.34313
1.45988
1.46126
1.41111
1.4605
1.45963
0.00100999
0.001
0.001
0.001
0.0180711
0.0370686
0.0462884
0.0471074
0.001
0.0795701
0.0867557
0.120865
0.118191
0.136278
0.179375
0.212212
0.163102
0.249195
0.207363
0.164121
0.209044
0.212105
0.206512
0.001
0.001
0.00107959
0.001
0.001
0.00101
0.001
0.001
0.001
0.001
0.001
0.001
0.001
0.001
0.001
0.001
0.001
0.001
0.0329034
0.0780429
0.140587
0.163111
0.226127
0.114797
0.001
0.001
0.327855
0.215087
0.25877
0.275025
0.001
0.001
0.001
0.001
0.001
0.001
0.001
0.001
0.001
0.001
1.05147
0.969916
0.9679
0.910436
0.911367
0.88489
0.901047
0.87205
0.910165
0.837216
0.835656
0.746071
0.762755
0.671892
0.668268
0.642697
0.645677
0.791887
0.76503
0.654496
0.642786
0.643965
0.634549
0.867454
0.909316
0.750289
0.719092
0.791146
0.911013
0.970502
0.925633
0.649679
0.608493
0.672737
0.698462
0.600302
0.582081
0.576706
0.542266
0.576204
0.55035
0.571642
0.591849
2.35007
2.28334
2.29283
2.31112
2.22613
2.31195
2.32161
2.33916
2.34414
2.38799
2.32769
2.42085
2.38965
2.45364
2.17725
2.1988
2.1948
2.21795
2.19926
2.22868
2.22232
2.21412
2.14393
2.15261
2.16007
2.16825
2.16788
2.16771
1.88009
1.8003
1.68941
1.70704
1.61006
1.70099
1.71301
1.76998
1.94707
1.94749
1.94704
1.92398
2.03769
2.08237
2.00358
1.9582
2.08431
2.08234
2.09106
2.10787
2.13921
2.12941
2.14023
2.14184
2.14163
2.14084
2.14129
2.14157
2.14104
2.14148
1.26146
1.17002
1.43505
1.43891
1.35097
1.44337
1.44119
1.54094
1.16552
1.16476
1.14398
1.12653
1.06748
1.16452
2.40553
2.42592
2.44523
2.48098
2.47489
2.49615
2.50938
2.51857
2.52637
2.51446
2.52183
2.54287
2.56441
2.57382
2.57431
2.58521
2.60405
2.62549
2.63575
2.63511
2.64773
2.52457
2.51505
2.66666
2.68547
0.2656
0.311283
0.283173
0.373524
0.496824
0.57428
0.4768
0.49519
0.407324
0.417304
0.417236
0.445281
0.542156
0.490696
0.558954
0.563106
0.567314
0.626927
0.692342
0.868045
0.791831
0.949413
1.03754
1.02881
0.944505
1.10424
1.10079
1.19336
1.25355
1.22689
1.3021
1.24621
1.43692
1.36207
1.47363
1.47082
1.4883
1.54633
1.67903
1.67913
1.62475
1.65411
1.6779
1.62377
1.73618
1.66644
1.64493
1.67331
1.81155
1.82161
1.88434
1.94096
1.82312
1.91442
2.0551
2.00857
2.07702
2.04281
2.23914
2.20156
2.27025
2.28359
2.35501
2.36769
2.42785
2.39582
2.44314
2.4267
2.447
2.48016
2.45319
2.48341
2.49078
2.45051
2.43868
2.47951
2.47656
2.44968
0.001
0.001
0.00101
0.001
0.001
0.001
0.001
0.001
0.001
0.001
0.001
0.0116563
0.280034
0.001
0.001
0.354585
0.116035
0.544414
0.374352
0.47954
0.542912
0.393408
0.299597
0.001
0.00115351
0.001
0.001
0.001
0.001
0.001
0.00143556
0.00100993
0.001
0.001
0.001
0.001
0.001
0.00100156
0.001
0.001
0.001
0.001
0.001
0.001
0.001
0.001
0.0010095
0.00101
0.00100891
0.001
0.001
0.001
0.001
0.00126173
0.001
0.001
0.00126166
0.001
0.001
0.001
0.00100996
0.0015924
0.001
0.00122367
0.001
0.001
0.001
0.001
0.00101
0.001
0.001
0.001
0.001
0.001
0.001
0.001
0.001
0.001
0.001
0.001
0.001
0.001
0.001
0.001
0.001
0.001
0.001
0.001
0.001
0.001
0.001
0.001
0.001
0.001
0.001
0.001
0.001
0.001
0.001
0.001
0.001
0.001
0.001
0.001
0.001
0.001
0.001
0.001
0.001
0.001
0.001
0.001
0.001
0.001
0.001
0.001
0.001
0.00106821
0.001
0.001
0.001
0.00122368
0.001
0.001
2.69348
2.67707
2.69305
2.67088
2.65308
2.68545
2.66751
2.64686
2.66353
2.52928
2.53606
2.53797
2.5417
2.63695
2.65146
2.68091
2.59781
2.46884
2.49652
2.45306
2.45556
2.45492
2.49867
2.38462
1.29548
1.383
1.28403
1.33264
1.32674
1.23343
1.23656
1.23864
1.23697
1.23938
1.2112
1.13261
1.10682
1.02311
1.03302
1.13456
1.25363
0.001
0.001
0.92223
0.913848
0.0245596
0.0354925
0.850978
0.724144
0.0328787
0.0587878
0.594224
0.524852
0.1975
0.155313
0.114864
0.524735
0.448499
0.21178
0.236926
0.346292
1.39353
1.32634
1.3015
1.38583
1.24638
1.27571
1.41252
1.33791
1.38765
1.46166
1.45659
0.001
0.001
0.001
0.00100268
0.040047
0.0181921
0.0462485
0.0464008
0.0454597
0.071316
0.13709
0.102142
0.128844
0.134883
0.194511
0.151881
0.251839
0.251475
0.249755
0.237734
0.250324
0.252736
0.244777
0.249829
0.001
0.001
0.001
0.00369647
0.001
0.00100998
0.00369354
0.001
0.001
0.001
0.001
0.001
0.001
0.001
0.001
0.001
0.001
0.001
0.001
0.00101
0.001
0.362689
0.391132
0.335251
0.391332
0.410898
0.469443
0.366919
0.068284
0.528377
0.550961
0.300965
0.251986
0.001
0.001
0.001
0.001
0.001
0.001
0.001
0.001
0.001
0.001
0.001
0.001
0.001
0.001
0.001
0.001
0.910805
0.909536
0.940233
0.911231
0.913055
0.907754
0.907183
0.728294
0.73001
0.811881
0.824813
0.690757
0.688633
0.646324
0.648738
0.644205
0.644397
0.614963
0.617865
0.654065
0.651728
0.559124
0.545669
0.507547
0.523534
0.834313
0.763041
0.697654
0.915633
0.819502
0.949216
1.04786
0.971405
0.651604
0.60938
0.710536
0.687153
0.485869
0.491232
0.496674
0.527774
0.55203
0.575069
0.609071
0.589538
2.23791
2.25774
2.25186
2.26619
2.25664
2.29271
2.25849
2.29393
2.32305
2.35484
2.34913
2.35019
2.38982
2.35697
2.45181
2.16761
2.17109
2.17736
2.18001
2.17897
2.18017
2.19348
2.21433
2.19876
2.14671
2.15434
2.1634
2.16763
2.16782
1.84745
1.92198
1.73083
1.72504
1.64377
1.7432
1.80312
1.73628
1.95885
1.96995
1.97381
1.95982
2.08382
2.0501
2.01938
2.05177
2.09618
2.0913
2.12234
2.13329
2.15427
2.14759
2.14784
2.15575
2.14877