/*--------------------------------*- C++ -*----------------------------------*\
  =========                 |
  \\      /  F ield         | OpenFOAM: The Open Source CFD Toolbox
   \\    /   O peration     | Website:  https://openfoam.org
    \\  /    A nd           | Version:  8
     \\/     M anipulation  |
\*---------------------------------------------------------------------------*/
FoamFile
{
    version     2.0;
    format      ascii;
    class       surfaceScalarField;
    location    "1860";
    object      phi;
}
// * * * * * * * * * * * * * * * * * * * * * * * * * * * * * * * * * * * * * //

dimensions      [0 3 -1 0 0 0 0];

internalField   nonuniform List<scalar> 
788991
(
0.0652472
-0.0373639
0.06451
0.0439925
-0.0659676
0.145999
0.0165878
0.0127292
0.0581676
-0.0414781
0.0648775
-0.0727052
-0.0275927
0.0762692
0.0483038
0.0869473
-0.109355
-0.0741931
0.057421
-0.145243
-0.0752781
-0.0258491
0.0970786
-0.0574247
0.038831
-0.0493502
0.0528181
-0.0546828
-0.022901
-0.0340664
-0.0173607
-0.0265539
-0.0124348
-0.0193419
-0.0313398
0.0184995
-0.0141638
0.00512699
0.106733
0.0318465
0.0239192
-0.0156256
-0.0694019
0.0688471
-0.150909
0.0393169
0.0803106
-0.0568237
0.0308046
0.0974335
0.102668
-0.0593814
0.0610097
-0.0743304
-0.134742
0.000703117
-0.0458821
0.0130845
-0.0289217
-0.0669033
-0.00296158
0.0638499
0.0636667
-0.0349993
0.049377
-0.0763529
-0.0813804
0.0304047
-0.136728
-0.0761977
0.0524479
-0.138082
0.0193585
-0.043345
-0.020499
0.0553385
-0.0886222
0.071436
0.00249967
-0.0586161
-0.076484
0.0896178
-0.0561595
0.0471142
0.0103153
0.0308738
-0.0562017
0.058452
0.0626477
0.00148141
-0.0653938
0.00205506
0.0631016
0.0602754
0.000289093
-0.0296926
0.0114848
-0.0600666
0.0609712
0.0178215
-0.01321
0.0247946
0.0401695
0.050213
0.0312105
0.00795033
0.0259242
-0.0315416
0.0464469
-0.0561413
0.0375009
0.0371358
0.0319745
0.0422466
0.0847784
0.0458157
0.0661644
0.0453691
0.0553692
-0.098606
-0.0925097
0.0999838
-0.0958119
0.0178031
0.065188
0.127834
-0.0660764
0.0742036
0.0612034
-0.128037
-0.136596
-0.0912837
-0.183342
0
0.0709411
0.021358
-0.0395833
-0.27246
-0.0401693
-0.00554289
-0.0406363
-0.0206106
-0.00648146
-0.0632544
-0.032913
0.0178444
-0.0466182
-0.0373541
-0.0143584
-0.0161361
-0.0383471
0.000653597
0.00980806
-0.0157492
0.0132245
0.0160924
-0.000930336
0.081239
0.143404
-0.0763239
0.0621057
-0.145721
0.0796508
0.160366
-0.0857979
0.0609249
-0.143549
0.0859504
0.183161
-0.103948
0.0707444
-0.157094
0.0872637
0.187976
0.106473
0.0891388
0.17699
0.0710211
0.188774
0.104252
0.0948343
-0.165377
0.0748231
0.183019
-0.107806
0.0987177
-0.173017
0.0847742
0.191651
0.107118
0.10788
0.19145
0.089534
0.198349
-0.106938
0.109166
-0.198172
0.106512
0.201506
-0.10816
0.111693
0.215035
0.11623
0.215327
0.114294
0.111294
-0.236795
-0.0928634
0.220535
-0.0705182
0.121835
0.214108
0.0130954
-0.0652178
-0.0735142
0.0190823
-0.0723133
-0.0641631
-0.0437432
0.0131208
-0.0634519
-0.0142248
0.0311885
0.0485205
-0.00564229
0.029537
0.0336533
0.00837399
0.026956
-0.0256854
0.0274828
0.0367927
0.0407625
0.0266337
0.0792302
-0.0801362
0.116235
0.101509
0.102996
-0.0218048
0.0657437
0.0961403
0.0839587
0.163658
-0.106777
0.0978132
0.216856
0.125684
0.0890469
0.226398
-0.120574
0.0912755
0.209365
-0.116203
0.0780128
0.211639
-0.117374
0.076687
0.196162
0.118335
0.0894246
0.196293
-0.112224
0.0944586
0.205033
0.110104
0.0996758
0.201648
-0.112365
0.124484
0.0316849
0.162228
0.107763
0.218092
0.0103093
0.133275
0.119446
0.130658
0.139961
0.00486152
0.107341
0.0293482
0.0529284
-0.105686
0.056526
0.0397208
0.0846385
0.0595267
-0.0552882
0.0980538
0.0732652
0.0577723
-0.0515206
0.0827607
0.00799927
0.027237
-0.0118354
-0.0365575
0.0242215
0.0148438
-0.113588
-0.0221353
-0.105071
-0.0906206
-0.0335332
0.0831349
-0.0255386
-0.00268363
-0.00727951
-0.142109
0
-0.118401
0.0218676
0.028507
-0.0192914
0
0
0.0238065
0
0
0
0
0
0.0428254
0.0624756
-0.00873936
0.017453
0.0543482
-0.0201962
0.0621938
0.0554053
-0.00940856
0.0442388
0.0552258
-0.00779467
0.0192614
0.0506766
0.0301652
-0.0128409
0.0441652
0.0580722
-0.0375575
0.0442479
0.0871438
-0.0468006
0.0479485
-0.092875
-0.0486038
0.054093
-0.0970231
-0.0642491
0.0630762
-0.116507
-0.0796246
0.0672389
-0.138868
0
0
0
0
0
0.0163336
0.0135318
-0.176826
-0.107345
0.0329958
0.0328879
-0.0342013
-0.0457316
0.0089788
-0.0498711
-0.0311388
-0.0044294
-0.0496844
-0.0345264
0.00713698
-0.0328557
-0.0388729
-0.00496602
-0.000291549
-0.036672
0.0196065
0.0420093
-0.020954
-0.0336297
-0.0816731
0.0611187
-0.140168
-0.0782157
0.0560067
0.132707
-0.0873059
0.0627595
-0.152499
-0.0700515
0.0807813
-0.161571
-0.0660247
0.0918735
0.159689
-0.0790401
0.099609
-0.18246
0.00658073
0.122686
0.133172
0.0161944
-0.0937449
0.117366
0.0131602
0.0914971
0.0944214
-0.00714716
0.121326
0.130214
-0.125674
0.129686
-0.10623
-0.103885
0.125983
-0.0845637
0.11262
0.195616
-0.109179
0.109449
-0.221608
-0.122479
0.109918
-0.235833
-0.0840815
0.111953
-0.234487
-0.0146773
-0.14265
0.154741
0.0939511
0.0235139
0.102365
-0.0173015
-0.0897797
0.00950386
0.0280863
0.0677146
-0.0759669
-0.0557347
0.0740202
-0.0137283
0.023586
0.0543853
-0.00602102
0.0358947
-0.0433962
-0.00298421
0.0401214
-0.0378683
-0.00146537
0.0351523
0.0438977
0.0207698
0.0542812
-0.0758036
0.00534401
0.0956068
-0.097517
0.11928
0.0914144
-0.134122
-0.011408
0.0699007
0.122464
0.117623
0.221329
0.141288
0.109578
0.266161
-0.133772
0.100129
0.249175
-0.129347
0.100954
0.233129
0.125871
0.0832313
0.229836
-0.123622
0.0814294
0.208034
-0.119255
0.0849377
0.192712
-0.10894
0.0881788
0.18796
0.109403
0.0868899
0.212006
0.115959
0.147899
0.0345296
0.102427
0.207547
0.0475749
-0.101838
0.121697
0.0149061
-0.116445
0.139238
0.0166149
0.106843
-0.00419584
0.112123
0.0974023
0.0729745
0.0176127
0.067072
-0.0826436
0.0868351
-0.0128892
0.088628
0.017195
0.0638084
0.0662881
0.0671445
-0.0612051
0.0469344
0.0362848
0.0315515
-0.0120295
0.0444226
0.0632643
0.0270915
0.0220499
0.067717
-0.0469514
-0.0478851
-0.0404703
0.0761116
0.00462532
0.0106053
-0.0228138
0.0214816
0.015408
0.0102016
0.00956762
-0.170191
0.013037
0.117787
-0.127124
-0.0695795
-0.0970289
-0.0147243
-0.0411346
0.038941
0.0139604
-0.0453125
0.0618379
-0.0360006
0
0
0.0280169
0
-0.0200614
0.0139102
0.0328873
-0.14197
0
-0.000110779
-9.88448e-05
0
0
0
0
0
0
0
0
0
0
0
0.0332031
0.06571
-0.0204234
0.00841788
0.0563871
-0.0279822
0.0432383
0.0455293
-0.000726061
0.0233572
0.0455221
0.0213415
-0.00930264
0.0441207
-0.0530394
-0.0402601
0.0430097
0.0797217
-0.0485402
0.0400204
-0.0858729
-0.0435639
0.0429699
0.0895204
-0.0424664
0.0475193
-0.0898448
-0.0646287
0.0586406
0.108587
-0.0789784
0.05554
0.125614
1.02335e-05
0
2.20222e-07
0
0
0
3.93129e-05
-5.19851e-05
-3.45159e-06
0
0
-7.71733e-05
0
0
0
0
7.15677e-05
1.19657e-05
0
-5.47568e-06
0
0.000113881
0
0.000188633
-0.0139878
0.000302533
0
0.0261252
0.0941544
0.0660654
-0.0510933
0.0729353
-0.0101837
-0.0386852
-0.0254577
0.006648
-0.0386441
-0.0286335
0.00141626
-0.031197
-0.033309
0.00562197
-0.0133124
-0.0345981
-0.0161506
0.0179376
-0.0302589
-0.0255501
0.0388864
-0.0104432
-0.0271253
-0.078009
0.0561789
0.129588
-0.079262
0.0540176
-0.127203
-0.0753751
0.0597498
0.142392
-0.0673315
0.0809944
-0.165872
-0.0779503
0.0909661
-0.171001
-0.0959264
0.0925726
0.19739
0.0121925
0.130275
0.121288
0.0148541
-0.0627737
-0.135523
0.127447
-0.127787
0.0328588
0.0622128
-0.0999785
0.0659629
0.0101261
0.0119871
-0.124914
0.116635
-0.119909
0.107552
0.229332
-0.128861
0.104426
0.252186
-0.0982718
0.116348
0.225731
-0.116086
0.12468
-0.215007
-0.0429387
0.0493379
0.0844537
0.0613341
0.079361
0.108652
-0.0577353
-0.0329711
0.0488015
0.087962
0.00221329
0.0926762
0.0815664
-0.0112671
0.0631962
0.0644756
0.11491
-0.0150595
-0.136987
0.017065
0.0159798
0.0347121
-0.0168658
0.0183233
0.0426566
-0.0218169
-0.0181256
0.0502333
-0.011799
0.027614
0.0525073
0.000266897
0.0387381
-0.0491148
-0.00823799
0.0469032
-0.0530136
-0.00688521
0.0564805
0.0783453
0.0099386
0.0848495
0.092556
-0.0246226
0.106331
-0.126176
0.152093
0.132554
0.207158
0.0173324
0.107947
0.178696
0.135646
0.278486
0.149774
0.126088
0.273941
-0.132848
0.112008
0.265755
-0.129204
0.107786
0.24621
-0.130965
0.0819513
0.24084
-0.124315
0.071676
0.200642
-0.111591
0.0866271
0.182123
0.108722
0.101642
0.207348
-0.111882
0.0886003
0.202788
-0.103632
0.152825
0.0433798
0.0934472
0.179422
0.0498065
0.09609
0.117158
-0.00209372
0.0978848
0.143521
0.00698627
-0.0926649
-0.00301328
0.0874559
-0.0926432
0.0663751
0.000226556
0.0739351
0.0849226
-0.0091421
0.0758186
0.0266703
0.0665906
0.0670387
0.0411055
0.101789
-0.0723305
0.0061894
0.0838388
0.105954
-0.0630759
0.0290356
0.0150738
0.0252416
0.0307831
0.0264595
-0.00738174
-0.0171035
0.0288524
0.0161525
-0.00152755
-0.00401818
0.0308311
0.0210781
-0.0346107
0.0278878
-0.0609483
-0.163151
0.0774671
0.0501758
-0.178128
-0.0879754
0.104652
-0.00265146
-0.095151
-0.0939341
0.0160322
-0.109901
0.112901
0.0173393
-0.105057
0.0912915
0
0
0
-0.104413
0
-0.0638649
0.0344037
0.0225199
0.0163625
0
0
0
0
0
0
0
0
0
0
0
0
0
0
0
0
0
0
0
0
0
0
0
0
-2.69575e-06
0
-3.93446e-06
0
-2.17937e-05
-1.13825e-05
-1.41819e-05
0
1.54934e-05
-5.69998e-05
1.00869e-05
0
2.12697e-05
0
0
0
0
0
0
0
0
0
0
0
0
0
0
0
0
0
0.0276773
0.0434451
0.00881279
0.0116987
0.0367923
-0.012859
0.0244568
0.0360468
0.0124825
-0.00265465
0.0404221
-0.0420051
-0.03372
0.046668
-0.0743692
-0.0431177
0.0384402
0.0795644
-0.0471202
0.0362472
-0.0852016
-0.0382139
0.0406925
-0.0838498
-0.0447338
0.047525
0.0898411
-0.0590487
0.0516757
-0.102277
-0.0661359
-0.114081
0.0520808
0
0
0
0
0
0
0
0
0
0
0
0
0
0
0
0
0
0
0
0
0
0
0
0
0
0
0
0
0
0
0
0
0
0
0
0
0.000287374
0.000386398
0
0
0
0
0
0
-0.0313332
0
-0.00464865
0.0446125
-0.0389575
0.00614055
-0.0301773
0.0514833
-0.0173337
-0.0332309
-0.0158575
-0.00377373
-0.0302509
-0.0269942
-0.00381649
-0.0148267
-0.0262592
-0.0110211
0.000703485
-0.0264328
0.0187964
0.0201266
-0.0177211
-0.0209425
0.0250778
-0.00147085
0.0109179
0
0
0
-6.2286e-05
0
0
0
0
0
0
0
0
0
0
0
0
0
0
0
0
0.00018522
0.000194097
-0.0704733
0.0562706
0.120593
-0.0690009
0.0531184
0.116242
-0.0839681
0.0598822
-0.146429
-0.0938927
0.078066
-0.184277
-0.103455
0.0813322
-0.197458
-0.128668
0.0923963
0.236676
0.00818311
0.125301
-0.146299
-0.0535848
0.13959
0.195463
0.0378452
0.105288
0.0980505
-0.0108105
0.13787
-0.115638
0.0124822
0.099339
-0.16233
0.00115667
0.152979
0.148723
-0.129737
0.107839
-0.246153
-0.122515
0.110889
0.227851
-0.115213
0.0923807
-0.212687
-0.0664885
0.0843647
0.177187
0.0608415
-0.0259503
0.0693429
0.0704795
0.0568078
0.0493314
0.00326917
-0.0782516
0.0396388
0.065075
-0.0252243
0.0703126
0.0338014
-0.0215272
0.0500601
0.0555074
-0.0128654
0.0570372
0.0677193
-0.00726739
0.100696
-0.100675
-0.00382604
0.0522716
-0.0613964
0.131107
-0.0349682
0.13842
0.0228052
0.0208029
-0.0524748
0.0105557
0.0223464
0.0502416
0.0212384
-0.0299554
0.0567703
-0.0132627
0.0355644
-0.0582855
-0.00904017
0.0434061
0.0576386
-0.0121179
0.0521175
0.0797681
0.00429498
0.0755017
0.108071
0.000684368
0.0990889
-0.158324
-0.056345
0.149517
-0.22942
0.249656
0.200092
0.211481
0.0900009
0.124606
0.164453
0.143162
0.282458
-0.144796
0.137841
0.287592
0.140627
0.119232
0.261319
-0.131718
0.111017
0.253763
0.129493
0.0805616
0.231552
-0.112241
0.0860724
0.194458
0.109005
0.095171
0.199542
-0.1014
0.0881206
0.189621
0.0954542
0.0761491
0.182398
0.0947683
0.143235
0.0365155
0.0861746
0.162441
0.0393173
-0.0906764
0.0980403
0.00375087
0.0927771
0.125475
0.0116857
0.0774193
0.000718977
0.0983684
0.0863718
0.0595642
-0.000499519
0.0741537
0.0710715
-0.0291872
0.0740486
0.0292669
0.0723825
0.0771732
0.0255167
0.0917809
0.0636774
-0.00500427
0.087379
0.0645422
-0.0252852
0.0618076
-0.0640195
-0.028097
0.035661
0.0366932
0.0601057
-0.0693495
0.0630263
-0.0338619
-0.0383229
0.035638
-0.0380837
0.0332982
-0.034235
0.0322699
0.0666401
-0.0348373
0.0683562
-0.0293729
0.022499
0.0607708
-0.0351208
0.0672687
0.0218409
0.027597
0.0616655
-0.0373627
0.0657656
0.0146804
0.0264046
-0.0563213
0.019748
0.0598183
0.033455
0.022182
0.0522915
-0.00238722
0.0570796
0.0482682
0.0345966
0.0477419
0.00338056
0.0536481
-0.048465
0.0434
0.0436855
0.0507239
0.00134331
-0.0433641
0.0453005
-0.0397261
0.0118431
-0.00801784
0.0392086
-0.0331449
0.0161169
-0.0251704
0.0353177
0.0244998
-0.0259864
-0.0307497
0.0239025
-0.000699109
0.0385948
0.00761365
0.0169034
-0.00211675
-0.0618704
0.0210694
0.04427
-0.356802
0.0352269
0.0805859
-0.0162903
-0.343812
-0.122772
0.0115825
-0.259179
0.201486
-0.0270266
-0.213907
0.190138
0.0202404
-0.131445
-0.0599876
0
-0.000112709
1.92912e-06
-0.0245987
0
0
-0.0352037
0
0
0
0
0
0
0
0
0
4.74132e-05
0.000117099
0
0
0
-0.000111053
0
0
0
0
0
0
0
0
0
-7.54128e-05
-0.000159533
0
0
0
0
0
0
0
0
0
0
0
0
-7.55316e-05
0
0
0
0
0
-0.000104582
0
0
0
0
-0.000109641
0
0
0
-0.000216595
0
-0.000412583
-0.000189874
-3.08407e-06
0
4.07696e-06
0.000163515
0.000338478
-0.000219992
-3.97134e-06
-2.17825e-07
0.000355865
-0.000324418
-0.000104449
0
-0.000107147
-8.45944e-05
0
-7.67683e-06
0
0
0
0
0
0
0
0
0
0
0
0
0
0
0
0
-0.000156726
0
7.20641e-05
0
-8.48892e-05
0
0.0245384
0.0236855
0.00849073
0.0131661
0.0184069
-0.0070807
0.00240294
0.0347056
-0.0329145
-0.0298591
0.0413907
0.0618292
-0.0407302
0.0388264
0.0754533
-0.0456377
0.0360119
-0.0804364
-0.0406203
0.0351776
-0.081537
-0.046629
-0.0608448
0.106821
0.0501743
-0.0392331
0.0387841
-0.0852679
-0.043217
0.0479215
-0.0920462
-0.0930437
0.0510072
0
0
0
0.000187186
7.98688e-05
5.34772e-05
0
0
0
0
0
0
0.000173838
0
0
0
0
0
0
0
0
0
0
0
0
0
0
-9.94042e-05
0
0
0
0
0
5.46887e-05
0.000120823
4.53201e-05
0
-5.11811e-05
0
-0.0186422
0.0296464
0.088939
0.00455483
-0.00212035
0.00218512
-0.0179884
2.83831e-05
0.00502134
-0.0227462
-0.0147243
-0.000181844
-0.0141742
-0.0181711
-0.00545475
-0.00591573
-0.0176901
0.0113791
0.00523528
-0.0149792
0.0172446
0.010994
-0.0062973
-0.00817086
0.00949668
0.0100344
0.0032892
3.47897e-05
0.000101578
3.16922e-05
-2.73371e-06
0
3.7707e-05
0
-7.61693e-06
0.00036678
4.41979e-06
0
-1.10138e-05
5.73079e-07
0
0
0
0
0.000201839
-0.000110747
3.92948e-06
0
0
0
0
0
0
0
0
0
0
0
0
0
0
0
9.12338e-05
0
-0.000110263
-0.0666932
0.0500566
-0.108812
-0.0741025
0.0483124
-0.124096
-0.106601
0.0533723
-0.161593
-0.117519
0.0660877
0.204589
-0.1263
0.0938433
-0.223291
-0.144273
0.0956499
-0.218483
-0.0688818
0.132328
-0.175506
0.0139681
0.126685
0.185393
0.0317844
0.140118
-0.100251
0.0108153
0.12267
0.0850207
0.0175696
0.106907
0.190235
0.0062426
0.153436
-0.156134
-0.144954
0.0790737
-0.194883
-0.105247
0.0596925
-0.187948
-0.0221379
0.0692392
0.131397
0.0225884
0.0751951
-0.106402
0.0618852
0.0317609
-0.0338752
0.0675501
0.02244
-0.0618698
0.0665705
-0.000675973
-0.0811359
0.0277656
0.0575446
-0.0340237
0.0711673
0.0340661
0.040322
0.068921
0.0281279
-0.0439506
0.04278
0.0691594
-0.0277246
0.0489546
0.0721442
0.0115156
0.0305155
0.0693296
-0.024264
0.0104644
0.0660331
-0.0440163
0.00349537
0.0620475
0.0486791
0.00491907
0.0571072
0.045559
0.0465497
0.0363156
-0.0334883
0.00365598
0.0321201
0.05455
0.0110252
-0.0384544
-0.0124835
0.0468333
-0.0550721
-0.00731454
0.0705407
0.0611134
-0.00565187
0.0905677
-0.0766031
-0.00751191
-0.0503383
0.0600911
0.0816503
-0.0176689
0.0730304
0.0294848
0.0408028
0.0376486
-0.0580298
0.032133
0.0453232
-0.0300848
-0.0258656
0.0557025
-0.0208106
0.0342548
-0.0575406
-0.0211205
0.0403223
0.0617562
0.00397941
0.0516736
-0.119655
-0.031536
0.126391
0.178679
-0.092
0.115495
-0.183316
0.014097
0.0860215
0.246301
0.314582
0.135958
-0.135174
0.178468
0.142901
0.106567
0.145379
0.285482
-0.153139
0.129231
0.301731
-0.153201
0.117776
0.279053
0.142887
0.106916
0.244409
-0.11766
0.0915045
0.220492
0.110144
0.0897992
0.204058
-0.101097
0.0888355
0.182388
0.0868228
0.082634
0.171987
-0.0834069
0.0702391
0.165638
0.0827426
0.122306
0.0325951
0.0781864
0.146088
0.0354436
-0.0763178
0.106984
0.0065977
-0.089488
0.116334
0.0140996
0.0820304
-0.0117097
0.0872362
0.0728389
0.0573757
-0.0066361
0.0922857
0.0722862
-0.0126315
-0.0826503
0.0165491
0.0769796
0.0688827
0.018646
0.079505
-0.0667318
-0.00803733
0.0851777
0.064847
-0.0295395
0.0511379
0.0601195
-0.0682505
0.0283618
-0.0372621
-0.0358753
0.0279671
-0.0664922
-0.0386558
0.0211965
0.0550609
-0.0309776
0.0191998
0.0577416
-0.0282349
0.0311466
0.056208
-0.0345532
0.0295135
0.0511579
-0.018809
0.0190222
0.0462521
-0.00146538
0.0274662
0.0402496
0.00590144
0.0407887
-0.0346239
0.00506841
0.0351325
0.0275865
0.00540248
0.0289939
0.0341535
0.0238773
0.00941451
0.0275817
0.0287192
0.0274774
-0.0202804
-0.0085072
0.023778
0.0273307
0.0177273
0.027694
-0.0129691
-0.0617361
0.0754202
0.000541589
0.00122098
-0.0167208
0.0343983
0.00862935
-0.0294212
-0.0198699
0.00852136
-0.00899549
0.02167
0.0481979
0.0017877
-0.0123649
0.00609224
0.0431196
0.0185082
-0.0131048
-0.0774964
0.0518059
-0.198505
0
0.0170277
-0.120171
-0.0066284
0.0200439
-0.00860891
-0.0273231
-0.0800897
-0.0375308
-0.0713296
0.0802648
0.0437467
-0.170473
-0.0115145
0
0
0
0
0
0
2.89859e-05
0.000227456
-2.41394e-05
0
0
0
-8.00389e-05
0
0.000162967
0
-8.15341e-05
0
0
0
0
0
0.00015227
-0.000285173
0
2.04945e-05
0.000169441
0
0
0
0
0.000105487
0
0
0
0
0
0
0
0
-5.07833e-05
-9.78105e-05
0
0
0
0
-6.94771e-05
-2.76134e-05
0
0
0
-0.00021743
-3.83654e-05
0
0
0
0
-2.69676e-05
0
0
-1.21984e-05
0
0
0
0
0
0
0
0
-2.50737e-05
0
1.35028e-05
-6.19366e-05
0
6.61962e-06
0
-5.52194e-05
0
0
0
0
0
0
0
0
4.70826e-05
0
0
0
0
0.0262949
0.00331957
0.0301547
0.0150891
-0.0030701
-0.0292519
-0.021821
0.0347252
-0.0511415
-0.036902
0.0328348
-0.0624598
-0.0434882
0.0374215
-0.0754086
-0.0429175
0.029332
0.0789579
-0.0393921
0.0361298
0.0836185
-0.0540046
-0.065601
0.099433
0.0411302
-0.0431345
-0.0897366
-0.0436796
-0.0410689
0.0415858
-0.085241
-0.0863334
0.0459624
-1.41587e-05
0.000133015
-2.03135e-05
0
1.57554e-06
-1.71282e-06
0
0
0
0
0
0
0
0
0
0
0
0
0
0
0
0
0
0
0
0
0
0
0
0
-3.0331e-05
0
0
0
0.000154829
-0.000281052
-0.0276008
0
0
0.00133493
0.0103531
0.0742815
-0.00536298
0.0131544
-0.00705457
-0.0112894
-0.0076909
0.00581043
-0.00986526
-0.00704338
0.000854662
-0.0101883
-0.00969428
0.00617199
-0.00434679
-0.00943607
-0.00835571
0.000155818
-0.00668456
-0.00539361
-0.00549692
-0.0118385
0.0290567
-0.00670727
-0.00212188
-0.0133389
0
0
0
0
0
0
0
0
0
0
2.48651e-06
0
0
0
0
0
0.000312358
0
0
0.000201358
4.25371e-05
2.21533e-05
0
-1.33605e-05
0
0
0
1.31023e-05
0
-2.46855e-06
0
1.17508e-05
-7.61532e-06
0.000227362
0
8.4822e-05
0
0
0
0.000312306
0
0
0
0
0
-0.0756966
0.0380607
-0.114614
-0.0864516
0.0463462
0.130005
-0.105238
0.0536167
-0.162198
-0.133499
0.0894555
0.197988
-0.060112
0.0372055
-0.0676396
0.0964438
-0.154046
0.063333
-0.177696
-0.13617
0.0409429
0.140014
-0.010832
0.104429
-0.111309
-0.0174688
0.128502
0.153571
0.016681
0.103255
-0.10126
0.0398374
0.0968462
-0.096864
-0.0369495
0.157674
-0.143592
-0.0318342
0.10954
0.0736647
-0.082028
8.65115e-05
-0.124796
-0.0104866
0.0566881
0.0684913
-0.0495423
0.0450867
-0.0791222
-0.0613072
-0.0458284
0.0167382
0.0511468
0.0366101
0.0389774
0.00643628
0.000394676
-0.0479739
0.0557187
0.0399995
-0.0147434
-0.0108905
-0.0473198
0.0348731
0.0195515
-0.0616768
-0.0167107
0.046986
-0.00639253
0.0195451
0.0230385
-0.013182
0.0193766
-0.0135702
0.0160369
-0.00801108
0.013002
0.0175762
-0.0243464
0.0181935
-0.00439406
0.00773477
-0.020261
0.0269981
-0.00242771
-0.0368353
0.00163459
0.0250148
0.000380994
0.0384861
0.0294526
0.000143258
0.0314194
-0.0250541
0.00155747
0.026365
0.0194594
0.055521
0.0235899
-0.0439451
0.0668953
0.0185625
-0.0566561
0.0613037
-0.00633221
0.0785392
0.0169919
0.0496279
-0.0390219
0.0656123
0.0389669
0.0419779
0.0615597
0.023312
0.0465107
0.0558722
0.0755366
0.0169742
0.0397473
0.0716301
0.029926
0.0209579
0.0697066
0.0460031
0.0121685
0.0661428
0.0510118
0.0135364
0.061462
0.0443607
0.0180379
0.0585335
0.0349509
0.0490717
0.00879101
0.0382139
0.0564495
0.0117838
0.0398524
0.0460461
-0.00774374
-0.062875
-0.00439899
0.0486289
-0.0070057
0.0464143
-0.0141855
0.0518155
-0.0595396
0.0410787
-0.0478242
0.0744891
0.046149
-0.0315137
-0.0148858
0.0102101
0.0112717
0.0233164
0.0123538
0.0130182
0.0188965
-0.00913118
0.0213463
0.0179289
0.00592826
0.0297541
0.0228848
0.00303665
0.0404369
0.0289399
-0.00229175
0.0457542
0.0330743
-0.00981123
0.0483724
0.0300857
-0.0186823
0.0375758
0.058125
0.0287368
-0.021469
-0.00548951
0.0204997
-0.0427209
-0.0613012
0.00481414
0.0534851
-0.0644162
-0.0261855
0.052104
-0.014295
0.0172666
0.0411433
-0.0218678
0.0220195
-0.0708334
-0.047537
0.0494627
-0.055081
-0.106187
-0.0148729
0.0510532
-0.109588
0
0
-0.00396448
0
-0.367366
0.266238
0.0131221
-0.0446823
0.0630638
0.114336
0.180733
0.142257
0.28478
0.16557
0.145024
0.341431
-0.142473
0.119987
-0.0790261
0.285886
0.114276
0.207013
-0.113386
0.0969842
0.225471
0.102163
0.0863734
0.187614
0.0839331
0.0829612
0.161611
-0.0707482
0.0784072
0.152199
-0.0736155
0.0660176
0.14745
-0.0714917
0.115905
0.0326514
0.0766485
0.131039
0.037688
0.0751257
0.0963477
0.00167232
-0.0804342
0.115669
0.012281
0.0818973
0.0113588
0.0829711
0.0778472
0.0817047
-0.00607906
0.0755774
0.0890451
-0.0155595
-0.0822144
0.00813285
0.0569668
-0.0677759
0.0128255
0.0666073
0.0713404
-0.0143733
0.0757552
0.0614499
-0.0645858
0.0401491
-0.0390401
-0.0219811
0.0341421
-0.0657634
-0.036705
0.0195001
0.0536457
-0.0376938
0.0153596
0.0521485
-0.0279209
0.0227724
0.0565954
-0.0306455
0.0297999
-0.0519465
-0.0390359
0.0222021
0.048864
-0.022001
0.0100393
-0.0433308
-0.00158456
0.0245736
-0.0350414
0.00587288
0.0311915
0.0252379
0.00932267
0.0370106
-0.0201283
0.00856834
0.0247344
-0.0151849
-0.014539
0.0254138
0.030351
-0.0381337
0.0915491
-0.089092
-0.016583
-0.0234904
0.010381
0.0137446
-0.0559979
0.0377033
0.00484111
-0.0234896
0.000314823
-0.0260452
0.0196297
0.0452798
0.0240893
-0.0159978
-0.0157904
-0.0409775
0.0290833
0.0194652
-0.177851
-0.0892226
0
-0.107642
-6.86574e-05
0.0461387
0.0664382
0.0755092
0.101998
0.144638
-0.0217321
0.0837933
-0.280744
-0.111191
0
0
0
0
0
0.000132577
0.000187221
-6.07386e-05
0.000271445
0
-3.77868e-05
1.07413e-06
0.000203658
1.77238e-06
0
0
0
0
0
0
0
0
0
-0.000122956
0
0
-0.000181417
0
-0.000439576
0
0
0
0
0
0
0
0
0
0
0.0032341
0.00201361
0
-2.827e-05
-4.25328e-05
0
0
0
-4.19386e-05
0
0
0
0
0
-3.95309e-05
0
-7.93435e-06
0
0
0
-3.12008e-05
-1.97907e-05
-5.04672e-05
0
0
0
0
-0.000100756
3.57413e-05
0
0
0
0
0
0
0
0
0
0
0
-0.000201186
0
-0.000114309
0
0
0
-6.99082e-05
0
0
0
0
0
0
0
0
0
0.000560321
0
-0.000761432
0
0
0
0.00171466
0
0.000421636
-0.0232281
-0.0211107
-0.0492206
-0.0716633
0.0381043
0.0224574
0.046387
0.0722664
0.0236652
-0.0222677
-0.0459328
0.012082
-0.0250801
0.0408163
-0.0313919
0.0238729
-0.0510154
-0.0434404
0.0273923
0.0624819
-0.040044
0.031045
-0.0724359
-0.038043
0.0365362
-0.0799304
-0.0393294
0.0391059
0.0778473
-0.0537545
-0.0853925
0.0334144
-0.0426564
-0.0805393
-0.0355415
0.0373376
-0.0790905
1.1832e-05
0
0
0
0
0
0
0
0
0
0
0
0
0
0
0
0
0
0
0
-0.0344651
0.0304624
0.00879078
0.00690825
0
0
0
0
0
0
0
0
0
-0.000126173
0
0
0
0
0
-0.0297134
0
-0.00468013
0.0240848
0.0100549
-0.0004243
0.00481876
-0.00338127
-0.024067
-0.0254953
0.042925
0.0097442
-0.00600333
0.00109302
-1.29074e-05
-0.00668103
0.00102046
-0.000731261
-0.0100539
-0.00187502
-0.00673204
-0.0169001
-0.00159048
0.0196733
-0.0334215
0.00351493
0
0
-2.27058e-06
1.08755e-05
0
0
0
0
0
0
0
0
0
0
0
0
0
0
0
6.44439e-05
0.000172853
-0.000123732
0
0
0
0.000168381
0
0
5.65958e-05
1.53019e-05
0
0
0
0
0.000189426
0
4.07482e-06
0
0
0
0
0
0
7.66876e-05
-4.6458e-05
0
0
0
0
0
0
0
0
0
-0.0548762
-0.0518671
0.0346679
-0.080261
-0.0723538
0.0419168
-0.120579
-0.0980799
0.0482199
-0.112201
-0.141596
0.0273227
-0.13867
-0.14692
0.0345012
0.118893
0.0366971
-0.0737281
0.102566
-0.0843204
-0.0329414
-0.103824
-0.0517498
0.0442632
0.000318381
-0.00354143
0.049786
-0.0760739
0.00199998
0.077839
-0.0825631
0.0239043
0.0613732
-0.0280118
0.0414722
0.0979472
0.0666595
-0.0730391
-0.00973534
0
-0.062504
0
0.0191726
-0.0342495
-0.0525365
0
-0.0780829
0
0
0
0
0
0
0
0
-0.0467254
-0.00891459
0.0376198
-0.0614454
-0.0103417
0.0516029
-0.0686759
-0.0147575
-0.0554883
-0.0759814
-0.0170864
-0.0580889
-0.0066364
0.0197197
-0.0212324
-0.0147169
0.0128249
0.0209363
-0.0230657
0.00560974
-0.0211435
-0.0441936
-0.000635305
-0.0330685
0.0111598
0.0404976
-0.0287939
0.013012
0.0331877
0.0151721
0.00119697
0.0266148
-0.019817
0.0525784
0.00932506
-0.0545716
0.0573187
0.00435166
0.0578544
0.0508068
-0.0271477
-0.0849038
0.00354944
0.0462069
0.0538679
0.0646436
0.0586163
0.00793301
0.0671408
0.0616587
0.00126308
0.0631741
0.0654898
0.0376342
-0.037218
0.0597669
0.0285492
0.0478075
0.0191255
0.0709265
0.0550143
0.0126364
0.0698995
0.0584259
0.0194567
0.0684488
0.0479904
0.0290673
0.06677
-0.0303039
0.0212835
0.0641348
-0.0312894
0.0510315
0.0140782
-0.0355996
0.0600633
0.0181371
0.0306914
0.00631648
0.00611418
0.065341
0.0315127
-0.0236726
0.0673738
0.036433
-0.0302225
0.0287088
-0.0332137
0.0271109
0.0684155
0.00835656
-0.022545
-0.0587528
0.0385374
0.00241098
-0.0407429
0.0118243
0.0105465
0.022404
-0.0094946
0.0140018
0.0242308
-0.00809002
0.0192237
0.0070522
0.020934
0.0253812
0.0224683
0.0039922
0.0314824
0.0230891
0.00185041
0.0378319
0.0233006
-0.00788386
0.0458413
0.0250459
0.0172106
0.0517463
0.0284292
-0.0225245
0.0645953
0.034636
0.021281
0.0190904
0.0258567
0.023208
0.00461848
0.080597
0.0520885
0.0480717
-0.0212468
-0.0141394
-0.00712986
0.0335846
-0.08973
-0.0555136
0.0396661
0.102525
-0.0236853
0.0363838
-0.0131621
-0.138207
0.0552324
0.0233841
-0.0039078
-0.00232993
-0.0866293
-0.0773764
0
-0.000191598
0
0.000121837
0
3.36949e-05
-0.000108589
-0.291828
0
0
0.0989577
-0.00352954
-0.0127831
0.0244303
0.123949
0.127361
0.1796
0.260545
-0.153181
0.185594
0.105486
0.119591
0.287999
0.0832956
0.11956
0.121934
0.235638
-0.101378
0.0947486
0.219483
-0.0784214
0.0832759
0.16951
0.0648346
0.0802981
0.142754
-0.0653362
0.0721644
0.149699
0.061265
0.0600418
0.12534
0.0587658
0.113858
0.0356553
-0.0829311
0.12324
0.0285695
-0.0676373
0.0925041
0.0115
0.0775857
0.112133
0.0108328
-0.0724158
-0.00418453
0.08495
0.0790665
0.0510112
-0.0122326
0.0672252
0.0650218
-0.0199543
0.064948
-0.00295575
0.0444849
0.0624
0.00596055
0.0642745
0.0663417
-0.0540305
0.0711947
-0.0300902
0.0143791
0.0482467
-0.0346039
0.0162248
0.0484801
-0.0337098
0.0130825
0.0475734
-0.0334699
0.0183421
-0.0537204
-0.0302575
0.0195065
0.0515205
-0.0362457
0.018182
-0.0477544
-0.0393076
0.0122719
0.0453143
-0.020309
0.00834162
0.0388092
-0.000594302
0.0184015
0.0282478
0.00846797
0.0302059
-0.01882
0.00906514
0.0202191
-0.011581
-0.0117171
0.0300451
-0.0816158
0
0
0
0.042296
0
-0.00119054
-0.0216211
-0.0207674
0.10026
-0.00162092
0.0676132
-0.0788795
-0.0425033
-0.0577844
0
0
0
0
-0.0433081
0
0
-0.0962551
0
0
0
0
0
0.017862
-6.97257e-07
0
-0.0708508
0
0
0
0
0
0
0
0
0
0
6.98131e-05
9.32388e-05
4.89717e-05
0
6.69483e-05
0
0
0
0
-0.000387556
0
-9.21305e-05
0
0
0
0
0
0
0
0
0
0
-2.11876e-05
3.3377e-05
-0.000130638
0
0
0
0
0
-7.0653e-05
0
0
-0.0106045
0
-0.00278881
0
-0.0186578
0
0
-3.89485e-05
0.000165234
1.62248e-05
0
-3.64393e-05
-2.21309e-05
-9.61464e-05
1.77713e-05
0
1.09488e-05
0
0
-4.50975e-05
0
2.6135e-05
0.000122549
-2.84038e-05
0
6.16722e-05
0
-7.29259e-05
4.92689e-05
-0.00017779
0
0.0001072
0
0
0
0
1.54338e-05
0
-8.14067e-05
0
-5.65541e-05
-4.99441e-05
0
0
0
2.13343e-06
-2.57395e-05
5.5965e-05
4.21268e-05
-7.32844e-05
0
-2.50652e-05
0
0
0
0
0
2.05127e-05
0
0
0
0
0
2.25259e-05
0
-3.04583e-06
0
0
0
0.000814569
0
0
0
0
0
0
0
0
-0.0259462
-0.0226711
0.0463815
0.0784437
-0.0248892
0.0496171
0.0777705
-0.0240278
0.0620783
-0.0236715
0.0884551
-0.0608381
0.0544467
-0.0815995
0.0125776
-0.0277117
0.0460616
0.0130518
-0.0297968
-0.0398175
-0.0318351
0.023849
-0.0479973
-0.0368094
0.0278983
0.0573866
-0.036071
0.036344
0.0696575
-0.0363094
0.0403432
-0.072408
-0.036495
0.0321553
-0.0703061
-0.0453729
-0.0720535
-0.0270384
0.0282288
-0.0717767
0
0
0
0
0
0
0
0
0
0
0
0.0118957
0.0190779
-0.0068534
0.00386224
0
0
0
0.000179004
0
-0.000126335
0
-0.0526039
-0.0229919
0.000175874
0
-0.000136706
-6.54814e-06
0.000312955
1.28595e-05
0
6.29677e-06
0
0
0
0
0
0
-0.0320562
-0.0232814
-0.0444185
-0.0141529
0.00634369
0.0328581
0.0107774
0.00662407
0.0141961
0.00758992
-0.0341198
-0.0517028
-0.00646248
0.00149249
0.0102935
-0.00639389
-0.0105018
0.00624874
0.00892517
-0.0269568
0.00635439
-0.0249221
-0.0417704
0.00525648
-5.61664e-05
0
0
1.43158e-05
7.86667e-05
-2.88741e-05
0.000102933
9.48696e-05
-2.43315e-05
2.74483e-05
1.68328e-05
0.000122125
-2.55758e-05
0
4.24565e-05
0
0
0.000295326
0
0
0
0
0.000223959
-8.02891e-06
7.02461e-05
0
0.000186538
-4.64073e-05
-5.05462e-05
0
0
-1.33813e-05
0.000102792
-1.75476e-05
0
0
2.74557e-05
-3.04453e-05
0
0
0
0
0
0
0
0
0
0
0
3.03339e-05
0
0
0
0
0
0
0
0
0
0
0
0
0
0
0
0
-0.05216
-0.0390656
-0.0327126
-0.0639503
-0.0560478
0.0271483
-0.0784801
-0.0979959
0.0288582
-0.110482
-0.130104
0.020898
0.0899344
-0.106323
-0.0729041
-0.0485338
-0.054673
0.00481343
-0.0267369
0.010217
-0.114385
0.0895764
-0.0106191
-0.0221037
0
0
0
0
-0.0262337
-0.0196105
0
0.0507388
0.025062
-0.0119698
-0.0101787
0.0290157
0.0391487
0.0502108
-0.0484821
0.0886597
0
0
0
-0.000489689
0
0.000302485
0
0
0
0
0
0
0
0
0
-8.50495e-05
0
5.71806e-05
-0.0592168
-0.00843572
-0.0468513
-0.0706376
-0.0120241
-0.0554384
-0.0799704
-0.0160408
0.0608798
-0.0758388
-0.0218352
0.050935
-0.0607912
-0.0362725
-0.0298585
0.0401273
0.0205094
-0.0412461
-0.0236292
0.0627545
-0.00868635
0.0199078
0.0219188
-0.0169106
0.0126863
0.0212121
-0.0324539
0.00477859
0.0268769
-0.0500332
-0.0022839
0.0392678
0.0220539
0.0434192
-0.018957
0.0116898
0.0344604
-0.0180597
0.00104497
0.0278372
0.0206564
0.0557726
-0.00569363
-0.0737552
0.0496278
-0.0132163
0.0768582
0.0384453
-0.0424108
0.0908492
-0.0154023
0.0493687
0.0806631
0.0612918
0.0188996
0.052205
0.0650848
0.0119097
-0.0625285
0.0758037
0.0145233
0.0611005
0.070971
0.0179436
-0.0605436
0.010521
0.0742552
-0.063273
0.0206528
0.0753999
-0.0532589
0.0371502
0.0759616
0.0341229
0.0350269
0.0729909
0.0297365
0.0327361
0.068682
-0.0219214
0.0530145