/*--------------------------------*- C++ -*----------------------------------*\
  =========                 |
  \\      /  F ield         | OpenFOAM: The Open Source CFD Toolbox
   \\    /   O peration     | Website:  https://openfoam.org
    \\  /    A nd           | Version:  8
     \\/     M anipulation  |
\*---------------------------------------------------------------------------*/
FoamFile
{
    version     2.0;
    format      ascii;
    class       volScalarField;
    location    "16740";
    object      alpha;
}
// * * * * * * * * * * * * * * * * * * * * * * * * * * * * * * * * * * * * * //

dimensions      [0 0 -1 0 0 0 0];

internalField   nonuniform List<scalar> 
526318
(
0.000185088
0.000402664
0.000255812
0.000229946
0.000260526
0.000214147
0.000633222
0.000213492
0.000283012
0.000626035
0.00019182
0.000120306
0.000221478
0.00045289
0.000432406
0.00040259
0.00021672
0.000151354
0.000168029
0.000166842
2.78632e-05
0.000558952
0.000436683
0.000467244
0.000173653
0.000333293
0.000238757
0.000523659
0.000280417
0.000314196
0.000325961
0.00034166
0.00022764
0.000279915
0.000501506
0.000612267
0.000633387
0.000396962
0.000219027
0.000228277
0.000530018
0.000362946
0.000348209
0.000223501
0.000644592
0.00108847
0.000616635
0.000571061
0.000589236
0.000303434
0.00038
0.000322226
0.000427116
0.000229849
0.0020926
0.000822589
0.00125568
0.00119587
0.000337447
0.000226332
0.000470904
0.000432765
0.000300067
0.000283989
0.000165976
0.000254571
0.000312166
0.000495233
0.000542138
0.000369899
0.000350413
0.000369561
0.000523718
0.000455091
0.000521709
0.000646413
0.000381335
0.000509638
0.000370776
0.00058161
0.000262481
0.000541376
0.000304089
0.000564233
0.000406709
0.000360126
0.000529928
0.000520057
0.000342995
0.000411429
0.000378621
0.000557596
0.000635223
0.00056638
0.000877819
0.000721896
0.000681489
0.00041967
0.000415812
0.000641868
0.0159816
0.00383562
0.00295523
0.00165511
0.00455778
0.00689047
0.00140426
0.000865319
0.000879506
0.000396298
0.000197727
0.000525959
0.000391964
0.00014266
0.00017042
0.000507472
0.000316892
0.000241612
0.000338797
0.000586046
0.000560486
0.000601565
0.000622915
0.000540301
0.000518912
0.000559127
0.000493232
0.000665525
0.000615529
0.000652418
0.000730896
0.000605833
0.000647771
0.000704189
0.000625842
0.000843598
0.000648856
0.000671261
0.00066758
0.000968024
0.000792559
0.000725435
0.0008081
0.000827493
0.000799082
0.000906751
0.000758828
0.000844897
0.00079957
0.000835579
0.000829555
0.00083478
0.000881346
0.00088439
0.000837657
0.00110443
0.000878947
0.000904662
0.00100745
0.00124745
0.000923834
0.00114984
0.000856668
0.000157957
0.00035409
0.00049051
0.000524706
0.000469735
0.000333259
0.000550822
0.000291212
0.00046689
0.000524579
0.000504322
0.00033264
0.000551973
0.000625958
0.000795823
0.000727928
0.000568052
0.000535148
0.000540377
0.000578115
0.000523484
0.00058971
0.000854174
0.000698509
0.000648919
0.000635682
0.000652088
0.000584752
0.000645121
0.000662024
0.00075317
0.000625714
0.000689805
0.000725847
0.000692657
0.000788622
0.000926937
0.00073181
0.000993381
0.00093513
0.000796453
0.000754301
0.000967644
0.00100372
0.00103557
0.000950456
0.000872476
0.000200597
0.000336338
0.000371386
0.000680734
0.000914323
6.9859e-05
0.000380448
0.00037287
0.000846864
0.000484526
0.000744621
0.00067688
0.000297787
0.000327893
0.000595693
0.000457791
0.000731907
0.000645221
0.000811443
0.00267812
0.00265238
0.00113766
0.00160125
0.133459
0
0.07328
0.0107765
0.00749266
0.00431748
0.000397571
0.000468972
0.00039613
0.000346376
0.000231061
0.000434931
0.00048605
0.000527548
0.000486949
0.000530637
0.000493269
0.000427025
0.000374266
0.000392286
0.000349605
0.000478379
0.000450655
0.00041416
0.000616311
0.000548518
0.000557774
0.000555541
0
0
0.0566617
0
0.00805591
0.0200617
0.00461712
0.00322015
0.00100198
0.00108967
0.000723807
0.000372887
0.000134875
0.000496179
0.000120483
0.00045188
0.000374839
0.000210623
0.000370765
0.000491037
0.000515223
0.000589604
0.000566116
0.000622819
0.00071284
0.000636331
0.000842193
0.000665328
0.00073205
0.0010035
0.000977383
0.00082006
0.00131232
0.00121799
0.000993235
0.00103167
0.000809937
0.000958384
0.000968755
0.00107062
0.00122364
0.00137305
0.00114284
0.00090841
0.00127362
0.000775064
0.000852975
0.00090403
0.000847553
0.00115761
0.00103422
0.00128075
0.00143271
0.00162863
0.00176339
0.00111337
0.000940844
0.00105395
0.000911397
0.000406629
0.000326109
0.000643512
0.000263986
0.000468907
0.000398581
0.000429302
0.000264421
0.000281365
0.000493629
0.000469123
0.000642505
0.000873731
0.000659448
0.00068698
0.000696298
0.000713616
0.000654053
0.00075824
0.000563008
0.000903134
0.000698151
0.000701217
0.000763556
0.000730572
0.000619442
0.000614965
0.000665872
0.000626057
0.000698314
0.00059396
0.000705925
0.000615954
0.000639017
0.000605593
0.000707879
0.000649586
0.000779632
0.000916615
0.000891622
0.000837082
0.000689401
0.000828597
0.000855862
0.000896409
0.000794312
0.000725205
0.000839832
0.000735818
0.00076467
0.00070036
0.000658103
0.000692278
0.000724065
0.000694359
0.000666668
0.000641243
0.00069386
0.000491199
0.000397105
0.000400287
3.03202e-05
0.000942588
0.000274255
0.000519132
0.000135597
0.000640938
0.000460552
0.000633048
0.00261233
0.00111316
0.000344022
0.000780823
0.000448532
0.000682272
0.00061865
0.000738713
0.000708258
0.0007331
0.0107942
0.00249093
0.00202287
0.00248985
0.000851971
0.00478893
0
0
0
0
0
0
0.146303
0.00773095
0.00751324
0.0234184
0.000408909
0.000490872
0.000357656
0.000417588
0.000453901
0.000337403
0.000306663
0.000487465
0.000411509
0.000603106
0.000413626
0.000450141
0.000429198
0.000413314
0.00034449
0.000389267
0.000423738
0.000444398
0.000458016
0.000450094
0.000518236
0.000621029
0
0.000465223
0.00046148
0
0
0
0
0.000276339
0.000595424
0.000249731
0
0
0
0
0
0
0
0
0
0
0.0129976
0.00918116
0.00925123
0.000798716
0.000829193
0.00352308
0.000764875
0.000571244
0.0002014
0.000431116
0.000448341
0.000118859
0.000158352
0.000379833
0.000265792
0.000352074
0.000222653
0.000462462
0.000625233
0.000618013
0.000625557
0.00059156
0.000585333
0.000734399
0.000946613
0.000664055
0.00105627
0.000776635
0.000902594
0.00102701
0.00145092
0.00142407
0.00135457
0.00107933
0.00144405
0.0010599
0.00129274
0.00124402
0.0012304
0.0017529
0.00154348
0.000940665
0.000957689
0.00116398
0.0011426
0.00134348
0.00116154
0.00142863
0.00157901
0.000675045
0.000767506
0.000746172
0.000690031
0.000744622
0.000579565
0.000498374
0.000555668
0.000832871
0.000777161
0.000829793
0.000802744
0.00106214
0.00123701
0.000451012
0.00032377
0.000444649
0.000310354
0.000533954
0.000600874
0.000471553
0.000184857
0.000161462
0.000504309
0.000433953
0.000415989
0.000544505
0.000765409
0.000601505
0.000765753
0.000825255
0.000680868
0.00111337
0.00113036
0.00111808
0.000739328
0.000902976
0.000707132
0.000775775
0.000650037
0.000737175
0.00055122
0.00068563
0.000633635
0.000606958
0.000705816
0.000563167
0.000644929
0.000611746
0.000606204
0.000607215
0.000584226
0.000659413
0.000570133
0.000797791
0.000819226
0.000653934
0.000739235
0.000753014
0.000760721
0.000748671
0.000785435
0.000766182
0.000716162
0.000590124
0.000616956
0.000623232
0.000619134
0.000597126
0.000641848
0.000523344
0.000533543
0.000416901
0.00047877
0.000402315
0.000216067
4.58331e-05
0.000463103
0.000757244
0.000595654
0.000978571
0.000176099
0.000946701
0.000391746
0.000787615
0.000266631
0.00207613
0.000944289
0.000234868
0.000803457
0.000661195
0.000594381
0.00044329
0.00117325
0.000403065
0.00130368
0.0185001
0.0111409
0.00291901
0.0151167
0.00555347
0.00180047
0
0
0
0
0
0
0.027329
0
0.32325
0.221136
0
0
0
0
0
0
0
0
0
0
0.00920426
0
0
0.00976327
0.0101658
0.00822706
0
0
0
0
0
0
0
0
0
0
0
0
0
0
0.000398126
0.000427209
0.000380253
0.000334883
0.000417101
0.000409005
0.000447977
0.000360643
0.000408343
0.000432542
0.000460119
0.000322367
0.000356133
0.000401867
0.000341025
0.0003854
0.000332014
0.000403006
0.000452982
0.000468719
0.000621
0.000493514
0
0
0
0
0
0
0
0
0
0
0
0
0
0
0
0
0
0
0
0
0
0
0
0
0
0
0
0
0
0.0400036
0.0068017
0.00540673
0.00502211
0.00212054
0.000432387
0.00130894
0.000387151
0.000478512
0.0002481
0.000447409
0.000122686
0.000328942
0.000392183
0.000143886
0.000232338
0.000275913
0.000393511
0.000286904
0.0027081
0
0
0
0
0
0
0
0
0
0
0
0
0
0
0
0
0.000558164
0.000561657
0.000492074
0.000548973
0.000788222
0.000546248
0.00109499
0.000813916
0.00120258
0.000992699
0.0010338
0.00107323
0.00154104
0.00147817
0.00164724
0.00145827
0.00150456
0.00144874
0.0014969
0.00145298
0.00170015
0.00143042
0.00171987
0.00189231
0.00115438
0.00109271
0.00131615
0.00137862
0.0017314
0.00169078
0.00215251
0.00204008
0.000379626
0.000473591
0.000351486
0.000424866
0.000402815
0.000528618
0.000343748
0.000287844
0.000268152
0.000293027
0.000954965
0.000682738
0.000734106
0.000461594
0.00091078
0.00103701
0.000938661
0.00104554
0.00151076
0.00120062
0.000520268
0.00131341
0.000318493
0.000251704
0.000384628
0.000241158
0.000112776
0.000537235
0.000439516
0.000160339
0.000428724
0.000747395
0.000701027
0.000874529
0.00074787
0.000539177
0.00114699
0.000966404
0.00132084
0.00129547
0.00107353
0.000895183
0.000830058
0.000741801
0.000576925
0.000764918
0.00074975
0.000586993
0.000646809
0.000660661
0.000545089
0.000619413
0.000561311
0.000515611
0.000513454
0.000575279
0.000562173
0.000604497
0.00055937
0.000658857
0.000678679
0.000699064
0.000603465
0.000575292
0.000743877
0.000762643
0.000630428
0.000699607
0.000659624
0.000642475
0.000597972
0.000605343
0.000585858
0.000582614
0.000542299
0.000502419
0.000405963
0.000439972
0.000356854
0.000425594
0.000320808
0.000278074
0.000256407
0.000224118
0.000272628
0.000244846
0.000233322
0.000269506
0.000220029
0.000253178
0.000179975
0.000192782
0.000187919
0.000209596
0.000170479
0.000190348
0.000179943
0.000193368
0.00020529
0.000184166
0.000186733
0.000183319
0.000187053
0.000177888
0.000188243
0.000179061
0.000191377
0.000157241
0.000208673
0.00018888
0.00016969
0.000195731
0.000155966
0.00018744
0.000175242
0.000199489
0.000170361
0.00018333
0.000198106
0.000172475
0.000174099
0.000148513
0.000801638
0.000586859
0.000236124
0.00032472
0.00026741
2.08186e-05
0.000153896
0.000219448
0.00099845
0.00138841
0.000557075
0.00125177
0.00136202
0.00145536
0.000649909
0.00113169
0.000800709
0.00179034
0.000556451
0.00249073
0.00140218
0.00101664
0.068462
0
0.00822678
0.111175
0.00443077
0.0058176
0
0
0
0
0
0.00540178
0
0
0
0
0
0
0
0
0.0090767
0
0
0
0
0
0
0
0
0
0
0
0
0
0
0
0
0
0
0
0
0
0
0
0.00237742
0
0.00404934
0.00076357
0
0
0.0131072
0.00270731
0
0
0
0
0
0
0
0
0
0
0
0
0
0
0
0
0
0
0
0
0.000393607
0.000387422
0.000475293
0.000370069
0.000442106
0.000408312
0.000560229
0.000348575
0.000359295
0.000461026
0.000400814
0.000307227
0.000360821
0.000354898
0.000439995
0.000409807
0.000493193
0.000344387
0.000456245
0.000365506
0.000324907
0.00034852
0
0
0.00360151
0.00289377
0
0
0
0
0.00684021
0
0
0
0
0
0
0
0
0
0
0
0
0
0.122375
0
0.00159517
0.06949
0.00532862
0.00488374
0.00120944
0.00346707
0.000548645
0.000243216
0.000263639
0.000206051
0.000253736
0.000352914
0.000329628
0.000140018
0.00038557
7.45485e-05
0.000354797
0.000360545
0.000407008
0.00047435
0.00329007
0
0
0
0
8.08485e-05
0
0
3.5467e-05
0
0
0
0
0
0
0
0
0
0
0
0
0
0
0
0.528812
3.26087
0.000448506
0.000424742
0.000542154
0.000451792
0.000942627
0.00072574
0.000989995
0.00118955
0.00111796
0.00079138
0.00125829
0.00085563
0.00207127
0.00188269
0.00211534
0.00181018
0.00156196
0.00164853
0.00164333
0.00152494
0.00203222
0.0022384
0.00210207
0.00183655
0.00162094
0.00125728
0.00194349
0.00200509
0.00238555
0.00207941
0.00210675
0.00196513
0.00026692
0.000245013
0.00033169
0.00043889
0.000422845
0.000492204
0.000271091
0.00028374
0.000206735
0.000221753
0.000241376
0.000209246
0.000232607
0.000183062
0.000197716
0.000215278
0.000235201
0.000185374
0.000201592
0.000199574
0.00019996
0.000220975
0.000208472
0.000191601
0.000170643
0.000174878
0.000161272
0.000175361
0.000205126
0.000204318
0.000671019
0.00108104
0.000675348
0.000498132
0.00101419
0.00118072
0.000938152
0.0011559
0.00174341
0.00138164
0.00154248
0.000802973
0.00150844
0.000375628
0.000695533
0.000305501
0.000125904
0.000451224
0.00015326
0.000548044
0.00120149
0.000451157
0.000259148
0.000761371
0.00154144
0.00118262
0.00182981
0.00130641
0.000863239
0.00078462
0.00101781
0.000965821
0.000934709
0.000819674
0.000899686
0.000777729
0.000765162
0.000694789
0.000515129
0.000565879
0.000480357
0.000464004
0.000466011
0.000501507
0.000498984
0.000482207
0.000541884
0.000530564
0.00051464
0.000602526
0.000552673
0.000551995
0.000578482
0.000468509
0.000640185
0.000623879
0.000570135
0.000577967
0.000528066
0.000548711
0.000571046
0.000519135
0.000549773
0.000507313
0.000452356
0.000392757
0.000411069
0.000360935
0.000306461
0.000328822
0.000213534
0.000269629
0.000207688
0.000206523
0.000284857
0.000177409
0.000150855
0.000170907
0.000172328
0.00017688
0.000168636
0.000170921
0.00017339
0.000185097
0.000181107
0.000164699
0.000170483
0.000147208
0.000146044
0.00017838
0.000180352
0.00016353
0.000160798
0.000184474
0.000165305
0.000170852
0.000166529
0.000147358
0.000141312
0.000145528
0.000161257
0.000158675
0.000168567
0.00143581
0.000985352
0.000657854
0.000577104
0.00127474
0.000924889
0.000348839
0.000313091
0.000562969
0.000931946
0.0015297
0.0015984
0.00163752
0.00153997
0.00180831
0.00701659
0.00579815
0.00210357
0.00405932
0.0030319
0.000448246
0.00199947
0.00191919
0.00209237
0.00246622
0
6.44598
0.411971
0.0143552
0.0175967
0.00801298
0
0
0
0.00634417
0
0
0
0
0
0
0
0.0128107
0
0
0
0
0
0
0
0
8.85837e-05
0
0
0
0
0
0
0
0
0
0
0
0
0
0
0.00155861
0
0
0
0
0
0
0
0
0
0
0
0
0
0
0
0
0
0
0.000401483
0.000330955
0.000388534
0.000381192
0.000395221
0.000393923
0.000422963
0.000302995
0.000349899
0.000374952
0.000356353
0.000433312
0.000323811
0.000324873
0.000367088
0.00031277
0.000381565
0.000247915
0.000322072
0.000325773
0.000363718
0.000219781
0.0018914
0
0.000793024
0
0
0
0
0
0
0
0
0
0
0
0
0
0
0
0
0
0
0
0.0498576
0.0730691
0.0103103
0.00482364
0.00358645
0.00388089
0.00079909
0.00269333
0.00054682
0.000470705
0.000470503
0.000309187
0.000271401
0.000303313
0.000131651
0.000368879
0.0002195
0.000312934
0.000387761
0.000251584
0.000505036
0.000220154
0
0
0
0
0
0
0
0
0
0
0
0
0
0
0
0
0
0
0
0
0
0
0.488536
0
0
0
0
0
0
0
0
0.000420815
0.000303364
0.000438482
0.000561046
0.00082843
0.000727834
0.000604669
0.00093446
0.000269631
6.66017e-05
0.000331562
0.00131695
0.000641765
0.00112281
0.00166909
0.0021785
0.00199232
0.00224653
0.00201688
0.00172562
0.00202887
0.00182951
0.00210073
0.00203735
0.00185039
0.00199251
0.00231718
0.00188947
0.00170565
0.00196569
0.0021211
0.00201863
0.00197664
0.00211529
0.00257168
0.000140564
9.7768e-05
6.94782e-05
0.000135621
7.59786e-05
9.35463e-05
0.000109895
7.29592e-05
5.63305e-05
6.14572e-05
3.38831e-05
3.79145e-05
2.01904e-05
4.7315e-05
0.000121721
0.000122166
0.000136356
0.000136817
0.000117255
0.000137364
0.000134971
0.000125469
0.000109801
0.000128018
0.000101639
0.000108993
0.000127336
0.000110837
0.000117018
0.000183613
0.000193891
0.000157054
0.000147841
0.000168679
0.000152351
0.000260571
0.000229425
0.000332467
0.000383522
0.000526022
0.000418473
0.000319663
0.000262241
0.000155831
0.000283413
0.000183261
0.000274625
0.000157549
0.000240677
0.000187886
0.000219167
0.000197046
0.000223748
0.00024242
0.000249841
0.000222526
0.000225167
0.000221156
0.000221399
0.000169824
0.000167176
0.000212916
0.000220249
0.000628729
0.000975662
0.00109905
0.00130848
0.000901561
0.000549672
0.000619814
0.00125789
0.00103126
0.00144372
0.00213874
0.000129023
0.000121855
0.000127948
0.000123292
0.000120442
0.000103603
9.12849e-05
9.39643e-05
9.58287e-05
7.34617e-05
6.97928e-05
4.73401e-05
3.74301e-05
3.56957e-05
2.38747e-05
2.91406e-05
2.70746e-05
3.814e-05
0.00119042
0.00127301
0.000666852
0.000660778
0.000390379
3.75992e-05
0.000208029
0.000506993
0.000843056
0.000414027
0.000904148
0.000111602
0.00110262
0.00101953
0.00170054
0.00208271
0.00141534
0.001331
0.000825932
0.00111259
0.00122866
0.000860006
0.000954492
0.00106013
0.000813471
0.0008852
0.000544791
0.00057805
0.000458031
0.00047421
0.000423437
0.000419028
0.000448496
0.00045265
0.000483448
0.000466362
0.000485212
0.000479018
0.000489902
0.000426995
0.000492461
0.00057395
0.00035029
0.000493137
0.000490834
0.000504924
0.000479732
0.000494503
0.000450371
0.000477998
0.000390905
0.000383426
0.000401185
0.000400938
0.000322064
0.000339296
0.000354312
0.00035104
0.000240071
0.000284114
0.000204223
0.000232612
0.000339145
0.000192592
0.000130635
0.000152696
0.000137212
0.000158687
0.000163735
0.000168697
0.000162414
0.000171584
0.000166473
0.000154717
0.000145426
0.00017534
0.000154312
0.000144799
0.000208869
0.000156856
0.000129136
0.000233576
0.000152619
0.000172978
0.000157962
0.00172708
0.00178882
0.00214217
0.00162972
0.00207522
0.00146694
0.00270451
0.000541075
0.001363
0.0033557
0.00131299
0.00209148
0.00238764
0.000630954
0.00117316
0.00964478
0.0091321
0.00317323
0.0059107
0.00172821
0.00488454
0.00107334
0.00151599
0.0192213
0.0236854
0
0
0
0.0149504
0
0.00976883
0.333757
0.040102
0.0599662
0
0
0
0
0
0
0
0
0.0160277
0
0
0
0
0
0
0
0
0.195184
0
0
0
0
0
0
0
0
0
0
0
0
0.00100524
0
0
0
0
0.0157734
0
0
0
0
0
0
0
0
0
0
0
0
0
0
0
0
0
0
0
0.002187
0
0
0
0
0.00242717
7.15444e-05
9.21588e-05
9.67193e-05
5.18903e-05
6.83738e-05
4.564e-05
0.000263477
0.000272355
0.000366475
0.000374566
0.000343024
9.74215e-05
0.000335664
0.000387755
0.000343984
0.000271457
0.000309717
0.000362297
0.000182239
0.000209204
0.000315773
0.000173321
0.000132508
0.00028373
0.000183505
0
0
0
0
0
0
0
0
0
0
0
0
0
0.0027243
0.00289667
0.00285022
0
0
0
0
0
0
0.202441
0.0764011
0.0070224
0.0373099
0.00426155
0.00189484
0.00054816
0.000428966
0.000402586
0.000268784
0.000413956
0.000482715
0.000414886
0.000407634
0.000289965
0.000267745
0.000205225
0.00033735
0.000248544
0.000297089
8.625e-05
0
0.001005
0
0
0
0
0
0
0
0
0
0
0
0
0
0
0
0
0
0
0
0
0
0
0
0
0
0
0
0
0
0
0
0
0
0
0
0.000179799
0.000208374
0.000149631
0.000433987
0.000135174
0.000527742
0.000297836
0.000681729
0.000467079
0.000251037
0.00099777
0.000156985
0.000385405
0.00138801
0.000695284
0.0012127
0.00170115
0.002544
0.00255401
0.00253429
0.00316136
0.0020079
0.00256986
0.00239621
0.00189215
0.00278215
0.00277421
0.00261866
0.00253595
0.00149969
0.00248066
0.00178795
0.00216826
0.00259295
0.00236219
0.00373047
0.00300329
0.000111935
0.000156145
0.000148649
6.49542e-05
7.96698e-05
8.26575e-05
0.000209261
8.42335e-05
0.000143771
0.000150228
0.000119148
0.000135186
0.000124214
0.000135824
0.000161017
0.000108396
0.00019736
0.000164281
0.00017204
0.000199184
0.00016884
0.000133868
0.000263436
0.000254496
0.000373824
0.000341187
0.000445369
0.00057254
0.000302622
0.000318855
0.000125691
0.000223802
0.000305537
0.00017559
0.00016977
0.000213265
0.000275263
0.000273437
0.000243305
0.000225462
0.000262043
0.000240702
0.000240576
0.000241061
0.000273777
0.000292687
0.000259234
0.000236159
0.000245818
0.00021457
0.000208847
0.000217792
0.000179209
0.0014191
0.00119795
0.000902067
0.000655746
0.00137538
0.00100227
0.000667617
0.000626245
0.00118054
0.00147668
0.0018433
0.0013657
0.000124961
0.000120519
0.000119999
0.000108839
0.000122201
0.000103415
0.000111886
8.59062e-05
8.23887e-05
5.55688e-05
6.76264e-05
5.34917e-05
4.3814e-05
3.60221e-05
3.30091e-05
1.8973e-05
5.19615e-05
6.0087e-05
5.07286e-05
9.52348e-05
9.54984e-05
8.55027e-05
7.09391e-05
6.23434e-05
0.00010889
0.00126343
0.000575331
0.00062019
0.0014416
0.00093342
0.00076501
0.00076133
0.000610618
0.00112527
0.00081947
0.000768806
0.00145097
0.00114785
0.00112325
0.0022527
0.00136476
0.00141966
0.00183849
0.00133877
0.00131509
0.00147849
0.000997655
0.000803518
0.000993395
0.000456024
0.000540066
0.000607975
0.00059865
0.00051741
0.000441587
0.000420938
0.000355933
0.000428964
0.000407457
0.000466725
0.000435773
0.000392574
0.000432036
0.000377352
0.000386503
0.000492731
0.000387901
0.000455201
0.000356664
0.000427795
0.000420222
0.000419151
0.000359908
0.000405029
0.000395716
0.000298734
0.000287482
0.000320856
0.000299808
0.000285376
0.000269589
0.000338531
0.000111614
0.000257675
0.000277294
0.000266007
0.000109168
0.000127837
0.000113015
0.000116939
0.000128843
0.000141943
0.000147179
0.000139143
0.000157498
0.000166795
0.000153251
0.000134219
0.000144553
0.000138282
0.000188161
0.000137278
0.0001692
0.000144072
0.000127142
0.000250535
0.00021359
4.5752
0.00962815
0
0.0142516
0.000327191
0.000532478
0.00175656
0.00160775
0.00196432
0.00302719
0.00185486
0.00284905
0.017947
0.00142694
0.00857921
0.0027122
0.000132373
0
0
0.162626
0.0201306
0.0334076
0
0
0
0.00152433
0
0
0.0136081
0.00691858
0
0
0
7.19161
0
0
0
0
0
0
0
0
0.278413
0
0
0
0
0
0
0
0
0.821152
0
0
0
0
0.00341884
0
0
0
0
0
0
0
0.000577101
0.0040621
0
0
0.0121404
0.0082107
0
0
0
0
0.00578462
0
0.00762075
0
0
0
0
0
0
0
0
0
0
0
0
0
0
0
0
0
0.0037635
0
0
0
0
0
0
0
0
0.000114126
6.35587e-05
0.000139932
6.37931e-05
7.99446e-05
0.000101233
6.92709e-05
8.31534e-05
8.31098e-05
7.20449e-05
0.00045083
0.000286452
0.000280669
0.000302546
0.000177797
0.000305562
0.000134938
0.000276539
0.00044888
8.13596e-05
0.00014188
0.000131312
0.000130098
0.000218687
0.000150033
0.000220854
0.000185651
0
0
0
0
0
0
0
0.00249314
0.00188706
0.0026868
0
0
0
0
0.00358188
0.0054778
0
0
0
0
0.0622564
7.82945
0.00957267
0.0172502
0.0164207
0.000250626
0.000372013
0.000450163
0.00142916
0.00047372
0.000516961
0.000422369
0.000213204
0.000132745
0.000376558
0.000462114
0.000274142
0.000356386
0.000162252
0.000172861
0.000183438
0
0
0.000949697
0
0
0
0
0.000246823
0
0
0
0
0
0
0
0.00890911
0
0.00411959
0.00681243
0
0
0
0
0
0
0
0
0
0
0
0.011121
0
0
0
0
0
0
0
0
0
0
0
0
0
0.00342878
0.000154327
0.000235924
6.16585e-05
0.000143794
0.000310967
0.00057339
9.7455e-05
0.000294439
0.000576278
0.00065432
0.00022351
0.000750423
0.000372073
0.000187277
0.000458594
0.00134274
0.000274742
0.00217776
0.00127627
0.00278809
0.00307041
0.00312939
0.00225144
0.00185446
0.00228842
0.00162177
0.00229335
0.00253792
0.00301746
0.00249421
0.00205536
0.00237432
0.00130933
0.0027619
0.00318364
0.00343812
0.001864
0.00249769
0.00345955
0.000121205
0.000199463
0.000158866
0.000128669
2.25558e-05
6.12823e-05
0.00015693
0.000292231
0.00016339
0.000162944
0.000348639
0.000219817
0.000116193
0.000170527
0.000154554
0.000154629
0.000152098
0.000136838
0.000154411
0.000122215
0.000153085
0.000130788
0.000186472
0.000183833
0.000167735
0.000178163
0.000192557
0.000183071
0.000223778
0.000275113
0.000401013
0.000346001
0.000604649
0.000481362
0.000343316
0.0003303
0.00016942
0.000199707
0.000161211
0.000163529
0.000240793
0.000224013
0.000198056
0.000193397
0.000244677
0.000207868
0.000310432
0.000256003
0.00024626
0.000262802
0.000264412
0.000261914
0.000306565
0.000258612
0.000139597
0.000215935
0.000230268
0.00029888
0.00132231
0.00146496
0.000902652
0.000783883
0.00103122
0.00125374
0.000717628
0.000790723
0.00135123
0.00135386
0.00127025
0.00146045
0.000162437
0.000159108
0.000116117
0.000110399
0.000122418
9.49803e-05
0.000111142
8.98175e-05
7.76586e-05
5.65254e-05
6.46057e-05
5.25969e-05
2.78626e-05
4.80589e-05
1.24242e-05
2.07287e-05
4.04424e-05
8.35337e-05
6.23611e-05
8.23364e-05
8.34382e-05
5.55563e-05
6.72169e-05
0.000110549
0.000112089
0.00579438
0.0012634
0.00219277
0.00149131
0.00257728
0.00193114
0.00382771
0.00449335
0.00173028
0.000270413
0.00120252
0.00687375
0.00685411
0.00711837
0.00333888
0.00257135
0.000992251
0.00141673
0.00094973
0.00127451
0.00117856
0.00105843
0.000758182
0.000759445
0.000516251
0.000451595
0.000543791
0.000456787
0.000395286
0.000428919
0.000462378
0.000370101
0.000417985
0.000412454
0.000337178
0.000419956
0.000325953
0.000354123
0.000366106
0.000376119
0.000376074
0.000323129
0.000377408
0.000427617
0.000371331
0.000334732
0.000259937
0.000347067
0.000287684
0.000280822
0.000263915
0.00025899
0.000230096
0.00023793
0.000157873
0.000185521
0.00020392
6.3209e-05
0.00015426
7.35214e-05
0.000101536
7.19433e-05
0.000130398
0.00011225
0.00015856
0.000130723
0.0001589
0.000122373
0.000125856
0.000163347
0.000155444
0.000121526
0.000148893
0.00011866
0.00013042
0.00012434
0.000154333
0.000225102
0.000159558
0
0
0.0444604
0
0
0.0046945
0
0.00348928
0.00611545
0.0104446
0.0418569
0.0229971
0.019221
0.00263418
0.0199405
0.00771667
0.00989445
0.0220131
0.00715262
0.0160305
0
0
0
0
0
0.0205191
0.00530175
0
0
0
0
0
0
0
0
0.212048
0
0
0
0
0
0
0.65369
0
0
0
0
0
0
0
0
0
0
0
0
0
0
0
0
0
0
0
0
0
0
0
0
0
0
0
0
0
0
0
0
0
0
0
0
0
0
0
0
0
0
0
0
0
0
0
0
0
0
0
0
0
0
0
0
0
0
0
0
0
0
0
0
0
0
0
0
0
8.42279e-05
0
0
0
0
0.000107739
0.000122729
0.000141827
0.000183612
6.35137e-05
8.8607e-05
2.2293e-05
0.000105863
0.000101236
0.000121249
0.000108646
0.000167358
6.68767e-05
0.000133381
0.000188474
0.000138756
0.000290478
0.00037812
8.87621e-05
0.000512949
0.000152569
0.000331511
0.000148078
0.000495589
9.09823e-05
0.000221587
0.000258809
7.82347e-05
0.000240914
0
0
0
0
0.00286178
0.0016446
0.00281927
0
0
0.00220802
0.00331135
0
0
0
0
0.0187815
0.0046404
0.00947835
0.0156684
0
0.0169014
0.0173149
0
0.00840782
0.000207323
0.0004751
0.000505464
0.000311526
0.00028532
0.00153341
0.000529391
0.000697369
0.000514036
0.000225837
0.000531279
0.000542223
0.000305505
0.000538888
0.000452437
0.000427409
0
0.00334812
0
0
0
0
0
8.86289e-05
0
0
0.00023103
0
0
0
0.000903322
0
0
0
0
0
0
0
0
0
0
0
0
0
0
0
0
0
0
0
0
0
0.00555434
0
0.0123159
0
0
0
0
0
0
0
0
0
0
0
0
0
0
0
0
0
0
0.000103116
0.000164199
0.000346288
0.00046757
0.000162498
0.0003204
0.000131435
0.000601637
0.000167972
0.000472998
0.000456112
0.000473211
0.000431231
0.000956258
0.000614007
0.000433218
4.76701e-05
0.00204066
0.000843086
0.000605531
0.00216278
0.00193381
0.00132971
0.00213913
0.00222592
0.00297609
0.00178854
0.00314435
0.00227726
0.00251835
0.00354414
0.00241188
0.00338617
0.0017958
0.00164638
0.00109725
0.00313484
0.00375276
0.0021462
0.00506711
0.00347035
0.000295002
0.000191313
5.58098e-05
0.000480996
0.00026219
0.000453267
0.000175674
0.000480215
0.000340856
6.34017e-05
0.000248049
3.20273e-05
2.23923e-05
0.000175831
0.000138419
0.000160739
0.000158199
0.000144338
0.000119523
0.00019737
0.000164591
0.000185898
0.000227559
0.000202549
0.000160526
0.000196403
0.000145576
0.000212231
0.00029934
0.000448076
0.000418107
0.000564859
0.000647687
0.00037412
0.000430108
0.000125988
0.000170335
0.00017258
0.000136295
0.000185707
0.00023361
0.000151613
0.000200858
0.000207439
0.0002349
0.000270394
0.000223731
0.000271236
0.000388089
0.000271574
0.000204934
0.000230831
0.000214544
0.000206014
0.000224081
0.00015718
0.000288937
0.00151797
0.00130478
0.00092331
0.000888421
0.00111159
0.00103976
0.000910791
0.000815775
0.00147393
0.00127711
0.00102267
0.00110355
0.00180503
0.00154207
0.00102588
0.000193567
0.000194202
0.000103632
9.49493e-05
8.34155e-05
8.30525e-05
9.88705e-05
9.8836e-05
5.50612e-05
7.17372e-05
5.18287e-05
2.84862e-05
9.21566e-06
3.51572e-05
4.45879e-05
1.90425e-05
4.97382e-05
6.36238e-05
9.42947e-05
0.000100836
0.000103982
0.00012579
5.42035e-05
1.50497e-05
0.000127865
0.000135792
0
0.00968199
3.72738
0.00225971
0.00435941
0.00535305
0.00368483
0.00408173
0.00859667
0.0438872
0.463172
0
0.0776117
0.00594676
0.00205586
0.00324008
0.00612786
0.000639387
0.000835202
0.000706921
0.00178252
0.000749124
0.000484102
0.000632185
0.000635241
0.00030633
0.000472738
0.000546757
0.000412171
0.000517972
0.000325796
0.000432644
0.000389541
0.000402466
0.000347561
0.00030308
0.000312316
0.000334597
0.000290509
0.000225322
0.00028854
0.000224557
0.000259174
0.000255625
0.000298333
0.000226763
0.000196988
0.000240028
0.000172701
0.000198331
0.000170156
0.000161951
0.000141671
0.000122573
7.60247e-05
9.61086e-05
0.000125629
8.22816e-05
0.000110268
3.15425e-05
0.000114803
8.87395e-05
0.000146078
0.00012445
0.000137487
0.000159575
0.000136073
0.000163407
0.000164182
0.000116696
0.000155266
0.000120275
0.000138719
0.000101235
5.84755e-05
0.000100501
8.87829e-05
0.000152081
0
0
0
0
0
0
0
0
0
0.0265065
0.0166992
0
0
0.054118
0.0129318
0.0287385
0.018294
0.0270064
0.0121021
0.103098
0
0
0
0
0
0
0
0
0
0
0
0
0
0
0
2.63568
0
0
0
0.200467
0
0
0
0
0
0
0
0
0
0
0
0
0
0
0
0
0
0
0.242238
0
0
0
0
0
0.00209552
0.00229537
0.0042231
0
0
0
0
0
0
0
0
0
0
0
0
0
0
0
0
0
0
0
0
0
0
0
0
0
0
0
0
0
0
0
0
0
0
0
0
0
0
0
0
0
0.00596005
0
0.00282709
0
0.0104984
0
0
0
0.000153725
0.000165702
0.000157945
0.000138291
0.000150945
0.000122757
0.00012038
2.3407e-05
7.28842e-05
9.27918e-05
5.1002e-06
5.34273e-05
0.000128571
0.000130755
0.000161954
0.000104561
0.00018395
0.000136044
0.000118567
0.000183401
0.000140433
0.000438444
0.000703468
0.000431281
0.000348697
0.00071552
0.000204767
0.000345343
0.000379096
0.000184987
8.49342e-05
0.000274874
0.000247821
0
0
0.00227027
0.00157856
0.00299608
0
0
0.00247536
0.00241556
0
0
0.00520958
0.00190771
0
0
0
0
0.0273156
0.00952104
0
0.00957597
0
0
0.0821708
0.000392034
0.000536244
0.000460833
0.000180408
0.000778982
0.00154063
0.00100844
0.000694164
0.000313693
0.000359502
0.000697565
0.000358876
0.000517083
0
0
0
0
0
0
0.0121643
0.00430534
0
0
0
0
0
0
0
0
0
0.00362261
0
0
0
0
0
0
0
0.00243808
0
0
0.0167574
0
0
0
0
0
0
0
0
0
0
0
0
0
0
0
0
0
0
0
0
0
0
0.00226353
0
0
0
0
0
0
0
0
0
0
0
0.000197554
0.000452189
0.000361814
0.000209576
0.00079239
0.00034696
0.000137295
0.000967815
0.000382618
0.000279104
0.000638401
0.000957403
0.000885955
0.00191643
0.000274575
0.00220401
0.00285714
0.000602338
0.00150412
0.00351646
0.0012515
0.00110501
0.00461616
0.00139293
0.00192048
0.00220999
0.00413259
0.00291243
0.00164769
0.00133619
0.0015952
0.00475325
0.00607585
0.00420351
0.00280497
0.00484157
0.00159957
0.00895971
0.00522482
0.00296633
0.00551655
0.0050634
0.00526234
0.000203753
0.00040787
0.000421893
0.000491143
0.000410207
0.000145219
0.000293956
0.000237951
0.000138626
0.000171519
0.000149594
0.000105028
0.000138286
8.97536e-05
0.000200862
0.000145501
0.000207329
0.000127311
0.000170563
0.000139562
0.000118185
0.000177103
0.000208668
0.00016028
0.000237494
0.000284281
0.000203224
0.000227963
0.000245005
0.000359772
0.000546066