/*--------------------------------*- C++ -*----------------------------------*\
  =========                 |
  \\      /  F ield         | OpenFOAM: The Open Source CFD Toolbox
   \\    /   O peration     | Website:  https://openfoam.org
    \\  /    A nd           | Version:  8
     \\/     M anipulation  |
\*---------------------------------------------------------------------------*/
FoamFile
{
    version     2.0;
    format      ascii;
    class       volScalarField;
    location    "16740";
    object      Hclip;
}
// * * * * * * * * * * * * * * * * * * * * * * * * * * * * * * * * * * * * * //

dimensions      [0 1 0 0 0 0 0];

internalField   nonuniform List<scalar> 
526318
(
1.36332
1.32017
1.38997
1.29802
1.35241
1.34005
1.32639
1.26245
1.32377
1.19453
1.17596
1.28814
1.23841
1.27329
1.24233
1.26925
1.23446
1.43407
1.341
1.39615
1.38406
1.33786
1.09319
1.34883
1.22273
1.08724
1.36294
1.36086
1.36976
1.38069
1.42143
1.45289
1.43794
1.31991
1.32361
1.31667
1.30476
1.40441
1.31994
1.22492
1.30521
1.30046
0.95725
1.01129
0.912209
0.963263
0.939971
1.04789
1.24902
1.12674
1.22276
1.238
1.19012
1.12816
0.639572
0.880379
0.871664
0.678057
1.39815
1.4053
1.42284
1.37678
1.32992
1.45382
1.44761
1.4135
1.40518
1.39912
1.30498
1.29648
1.405
1.17934
1.23241
1.13193
1.07611
1.07785
1.18358
1.16898
1.09373
1.12098
1.21172
1.20182
1.16439
1.11323
1.14182
1.21004
1.20695
1.18408
1.13774
1.21553
1.11532
1.06454
1.05897
0.990421
0.984035
0.990701
0.988229
0.986457
0.984751
0.982128
0.426873
0.356903
0.445528
0.482331
0.553179
0.339899
0.898209
0.706327
1.02427
0.983806
1.02445
1.14626
1.3676
1.2517
1.36634
1.3854
1.44527
1.42286
1.46283
0.981889
0.983593
0.981084
0.988806
0.942352
0.977448
0.891634
0.935721
0.843847
0.893418
0.841621
0.843752
0.83362
0.808649
0.801242
0.828454
0.771125
0.825254
0.774504
0.793228
0.739052
0.743287
0.763757
0.795896
0.781956
0.736192
0.73857
0.752458
0.742518
0.738261
0.745168
0.759478
0.746466
0.748505
0.749316
0.749715
0.713667
0.747874
0.748069
0.715974
0.671963
0.747319
0.697805
0.75454
1.25518
1.3273
1.28653
1.26519
1.08089
1.1466
1.0754
1.08119
1.07383
1.07647
1.10389
1.07799
1.00977
0.984573
0.948063
0.887912
0.947872
0.990967
0.99153
0.989987
0.875579
0.930756
0.816907
0.822966
0.834859
0.823742
0.828916
0.830169
0.819021
0.822042
0.817838
0.804402
0.787968
0.812321
0.805807
0.777549
0.756378
0.783732
0.764743
0.758566
0.777949
0.765909
0.771269
0.732326
0.752138
0.780814
0.781637
1.23799
1.238
1.2957
1.27245
1.22927
1.24077
1.24456
1.1004
1.16887
0.892395
0.877013
0.874198
0.999229
1.12662
1.00824
1.03432
1.0575
0.986411
0.975767
0.472575
0.275186
0.616367
0.811223
0.050663
0.001
0.19091
0.326212
0.275031
0.286092
1.4616
1.42265
1.46844
1.47369
1.43032
1.42666
1.33053
1.42692
1.27545
1.21243
1.21067
1.20868
1.21583
1.21301
1.19566
1.19194
1.11614
1.17687
0.995399
1.05482
0.982638
0.991888
0.00100536
0.001
0.190984
0.001
0.464402
0.395247
0.459511
0.614427
0.99373
0.808113
1.04157
1.04566
1.15913
1.25312
1.37485
1.3802
1.4138
1.38534
1.46139
1.49413
0.961286
0.962992
0.920636
0.89167
0.790241
0.827609
0.754202
0.764137
0.754319
0.747628
0.736349
0.741875
0.668544
0.692936
0.727236
0.763276
0.817706
0.785527
0.748416
0.744836
0.681424
0.670462
0.720644
0.775409
0.699248
0.736888
0.737056
0.706746
0.703669
0.671002
0.668977
0.628428
0.630204
0.634184
0.620329
0.744827
0.78146
0.744408
0.785313
1.14649
1.11207
0.997088
1.09586
1.01634
1.0599
1.07327
1.07477
1.0759
1.07841
0.988193
0.9017
0.831136
0.811361
0.891249
0.828367
0.81675
0.930101
0.817167
0.86706
0.807539
0.804953
0.817069
0.805475
0.824297
0.814338
0.814161
0.820073
0.816313
0.815403
0.824357
0.818949
0.833631
0.829894
0.832093
0.812882
0.824333
0.808803
0.780356
0.780997
0.808184
0.835844
0.829495
0.805863
0.788811
0.813127
0.854636
0.855474
0.868459
0.829109
0.862084
0.87875
0.918807
0.86843
0.876303
0.900702
0.934929
1.06532
1.12081
1.04403
1.06075
1.15087
1.21324
1.12383
1.00005
1.10383
1.00649
1.02856
0.762295
0.709738
0.743624
0.726985
0.845196
0.969241
0.900929
0.965979
0.965636
0.993585
0.962797
0.239739
0.380294
0.533604
0.383154
0.620154
0.515992
0.001
0.00100998
0.001
0.00100962
0.001
0.001
0.0352552
0.27534
0.15776
0.179036
1.46973
1.45873
1.48683
1.49144
1.45541
1.42742
1.36873
1.28522
1.21227
1.21109
1.20036
1.20478
1.1804
1.17708
1.15773
1.15867
1.10833
1.14959
1.07732
1.01976
0.963319
0.921485
0.001
0.00107126
0.00107126
0.001
0.001
0.001
0.001
0.00107127
0.00107126
0.00107127
0.00100999
0.00100984
0.001
0.00100942
0.001
0.001
0.001
0.001
0.001
0.001
0.421504
0.208673
0.524768
0.502089
0.695905
0.545136
0.907788
1.06344
1.08125
1.16768
1.39073
1.28344
1.40699
1.40478
1.40989
1.45149
1.48499
1.49695
0.881767
0.87868
0.832258
0.861516
0.801165
0.762834
0.753457
0.75545
0.746655
0.753463
0.705051
0.699079
0.648193
0.66104
0.717894
0.689691
0.661145
0.710517
0.704442
0.72343
0.631486
0.620473
0.643794
0.655544
0.657714
0.614368
0.617796
0.614242
0.617057
0.598822
0.600427
0.903185
0.875098
0.876688
0.876179
0.896272
1.00366
0.961288
0.941661
0.821358
0.865273
0.8504
0.854982
0.753911
0.691256
0.861198
0.993444
0.858586
0.888161
0.869019
0.929908
0.920092
0.988308
1.02698
0.948201
0.933405
0.966768
0.840836
0.815019
0.81017
0.815338
0.731667
0.781845
0.707407
0.659387
0.637358
0.75502
0.757552
0.80628
0.809504
0.805142
0.812539
0.804954
0.813926
0.807163
0.820287
0.811069
0.832822
0.823956
0.831772
0.833985
0.858716
0.842526
0.868644
0.869623
0.818063
0.801538
0.866639
0.849784
0.838398
0.854932
0.836647
0.825889
0.879509
0.856412
0.96021
0.968048
0.920404
0.961179
0.969984
0.937043
1.02867
1.00003
1.06812
1.08843
1.11318
1.02776
1.03255
1.02113
1.0095
0.98557
0.960001
1.03192
0.890512
0.862389
0.909184
0.932874
0.610795
0.660829
0.745377
0.861233
0.891861
0.932918
0.837911
0.790406
0.761098
0.7002
0.0629827
0.150848
0.429685
0.235714
0.533958
0.620115
0.001
0.001
0.00100979
0.001
0.001
0.001
0.0958386
0.001
0.0127518
0.0118459
0.001
0.001
0.001
0.001
0.001
0.00101
0.001
0.001
0.001
0.001
0.0011324
0.001
0.001
0.00113189
0.001132
0.00113203
0.001
0.001
0.001
0.001
0.001
0.001
0.001
0.001
0.00100959
0.001
0.00100965
0.001
0.001
0.001
1.47098
1.47701
1.49617
1.48448
1.46598
1.39575
1.21435
1.28748
1.18312
1.19019
1.14973
1.16144
1.15152
1.1565
1.1482
1.14226
1.09017
1.06031
0.964067
1.00734
0.859269
0.90322
0.001
0.001
0.001
0.001
0.001
0.001
0.001
0.001
0.00101
0.001
0.001
0.001
0.001
0.001
0.001
0.001
0.001
0.00100737
0.001
0.001
0.001
0.001
0.001
0.001
0.001
0.001
0.00101
0.001
0.001
0.116542
0.567767
0.366194
0.582729
0.580603
0.877119
0.713138
1.0889
1.04999
1.11046
1.22366
1.32246
1.40774
1.42245
1.40725
1.44694
1.47863
1.45773
1.46524
0.00114495
0.001
0.001
0.001
0.001
0.001
0.001
0.001
0.001
0.001
0.001
0.001
0.001
0.001
0.001
0.00101
0.001
0.86268
0.858414
0.862803
0.824069
0.745589
0.784326
0.705073
0.698915
0.662516
0.656308
0.613562
0.611947
0.642091
0.639326
0.599726
0.633574
0.630637
0.679055
0.660091
0.661868
0.579377
0.551674
0.553027
0.595296
0.602419
0.605214
0.581437
0.581258
0.540822
0.534101
0.495573
0.49857
1.09933
1.06768
1.10723
1.11716
1.06693
1.02373
1.19166
1.21197
1.2764
1.28623
0.831946
0.874406
0.924599
1.00989
0.82894
0.775191
0.810407
0.810405
0.651503
0.702601
0.763219
0.634411
0.859567
0.851771
0.853579
0.860047
0.876501
0.85743
0.873544
0.885095
0.766786
0.759038
0.655039
0.744533
0.737637
0.693899
0.643772
0.666419
0.604308
0.624234
0.604518
0.69036
0.756687
0.688301
0.754372
0.809979
0.809463
0.805821
0.807452
0.813351
0.832646
0.823614
0.842434
0.839403
0.859202
0.853131
0.874108
0.873377
0.873852
0.872979
0.882046
0.874245
0.915684
0.887842
0.855983
0.855237
0.92223
0.887258
0.898951
0.937428
0.980012
0.978377
0.980019
0.978196
1.0098
1.06135
1.12417
1.14361
1.15298
1.13099
1.27439
1.21086
1.33874
1.37895
1.37066
1.40879
1.46568
1.32952
1.41571
1.43971
1.51351
1.5629
1.58957
1.60979
1.63907
1.58398
1.64032
1.59754
1.67697
1.67709
1.7277
1.69432
1.7567
1.7877
1.7765
1.72487
1.79073
1.81247
1.78034
1.77682
1.84474
1.82089
1.85247
1.78808
1.79086
1.85064
1.81764
1.77451
1.77609
1.81091
1.84422
0.833852
0.788973
0.965475
0.956141
0.927187
0.919305
0.913038
0.678243
0.828931
0.530667
0.558894
0.660161
0.643658
0.521614
0.606772
0.585525
0.765116
0.676027
0.650124
0.581237
0.557458
0.586021
0.599613
0.132635
0.001
0.423376
0.141511
0.411237
0.335625
0.00101
0.001
0.001
0.001
0.001
0.00172957
0.001
0.001
0.001
0.001
0.001
0.001
0.001
0.001
0.00138073
0.001
0.001
0.001
0.001
0.001
0.001
0.001
0.001
0.001
0.00100829
0.001
0.001
0.001
0.0010095
0.001
0.001
0.001
0.001
0.00100665
0.001
0.001
0.00101
0.001
0.00101608
0.001
0.00101572
0.00101578
0.00100234
0.001
0.00101558
0.00101567
0.001
0.001
0.001
0.001
0.001
0.001
0.001
0.001
0.0010078
0.001
0.001
0.001
0.001
0.001
0.001
0.001
0.001
0.00101
0.001
0.001
1.45976
1.45038
1.40907
1.41585
1.32496
1.40171
1.23053
1.16442
1.15234
1.157
1.15367
1.15109
1.08865
1.09272
0.939979
0.904622
0.85889
1.03333
1.03776
0.98185
0.983199
0.98684
0.001
0.001
0.00116252
0.00116249
0.001
0.001
0.001
0.001
0.00116251
0.001
0.001
0.00100893
0.001
0.001
0.001
0.001
0.001
0.001
0.001
0.001
0.001
0.001
0.00110951
0.001
0.240834
0.0291675
0.425498
0.582871
0.707205
0.583627
0.877966
1.04008
1.07745
1.10253
1.19287
1.30192
1.36722
1.33489
1.38904
1.32675
1.36726
1.41435
1.36468
1.37039
0.00101264
0.001
0.00100993
0.001
0.001
0.00119245
0.001
0.001
0.00119244
0.001
0.001
0.001
0.001
0.001
0.001
0.001
0.001
0.001
0.00101
0.001
0.001
0.001
0.001
0.001
0.00207048
0.00101149
0.833031
0.837267
0.753517
0.775207
0.647652
0.674489
0.61001
0.608584
0.609121
0.610212
0.581351
0.585585
0.556823
0.558142
0.5351
0.572752
0.651923
0.61423
0.652835
0.650736
0.470578
0.491848
0.535285
0.51229
0.520665
0.52786
0.470277
0.466537
0.451885
0.460659
0.470409
0.469311
1.32133
1.32161
1.15024
1.06472
1.05247
1.03946
1.31948
1.23205
1.47776
1.55362
1.44988
1.37343
1.56687
1.54876
1.61506
1.66364
1.69484
1.69436
1.72059
1.69481
1.74931
1.77625
1.77285
1.77037
1.78814
1.77479
1.77507
1.81782
1.76618
1.76098
0.882543
0.81018
0.95368
1.02653
0.808777
0.757365
0.809503
0.810015
0.639923
0.692039
0.529224
0.687976
0.583706
0.853626
0.801879
0.855165
0.848781
0.854706
0.755231
0.649969
0.5727
0.561648
0.572863
0.614917
0.53879
0.522258
0.44798
0.540265
0.618389
0.615204
0.530802
0.635944
0.704408
0.648093
0.757425
0.70056
0.74223
0.800204
0.836761
0.811244
0.847098
0.848187
0.859136
0.849854
0.882351
0.891168
0.889814
0.904896
0.908254
0.910494
0.943698
0.953189
0.94479
0.938834
0.943555
0.938334
0.956015
0.969071
1.0182
1.0096
0.979404
1.00835
1.00459
1.03737
1.07178
1.13275
1.16444
1.16433
1.1748
1.24501
1.32687
1.40096
1.41365
1.54013
1.4145
1.46447
1.61509
1.6401
1.64013
1.67835
1.72686
1.77676
1.78752
1.79124
1.8187
1.84555
1.86886
1.8667
1.87737
1.87991
1.86037
1.8461
1.78721
1.85759
1.82412
1.77479
1.77547
1.80677
1.83681
1.84803
1.7773
1.83691
1.79501
0.611628
0.616489
0.677355
0.762839
0.652539
0.718687
0.857296
0.785267
0.814403
0.650254
0.55375
0.528063
0.518948
0.622035
0.613971
0.274459
0.383905
0.58127
0.446476
0.557648
0.587355
0.587932
0.570562
0.593193
0.605909
0.001
0.0013784
0.0246362
0.244313
0.246344
0.247843
0.001
0.001
0.001
0.00172946
0.001
0.001
0.001
0.001
0.001
0.00101
0.001
0.00138047
0.001
0.00101
0.001
0.001
0.001
0.001
0.001
0.001
0.00105189
0.001
0.001
0.001
0.001
0.001
0.001
0.001
0.001
0.001
0.001
0.001
0.001
0.001
0.001
0.00101789
0.001
0.001
0.001
0.001
0.001
0.001
0.001
0.00101
0.001
0.00100962
0.001
0.001
0.001
0.001
0.001
0.001
0.001
0.001
1.35759
1.35871
1.33954
1.34954
1.2895
1.34964
1.15369
1.20317
1.11294
1.11408
1.06035
1.04011
0.981699
0.982236
0.896475
0.797284
0.770454
0.941735
0.981505
0.982486
0.985226
0.985008
0.00116258
0.001
0.00116258
0.001
0.001
0.001
0.001
0.001
0.00100548
0.001
0.001
0.001
0.001
0.001
0.001
0.00100999
0.001
0.001
0.001
0.001
0.001
0.001
0.0511118
0.0105199
0.220595
0.394285
0.548799
0.57981
0.774071
0.610542
0.916956
1.05209
1.01961
1.13068
1.30045
1.2005
1.27971
1.2765
1.26783
1.29946
1.35481
1.35946
1.35764
1.33504
0.001
0.001
0.001
0.001
0.001
0.001
0.001
0.001
0.001
0.001
0.001
0.001
0.001
0.001
0.001
0.001
0.001
0.001
0.001
0.00100999
0.001
0.001
0.00193605
0.001
0.00101
0.001
0.001
0.001
0.001
0.001
0.001
0.709284
0.713043
0.676829
0.651241
0.607661
0.631773
0.598579
0.598638
0.752824
0.6981
0.674299
0.52791
0.537222
0.466026
0.469615
0.534278
0.534816
0.528418
0.565891
0.625793
0.581136
0.612944
0.599255
0.494027
0.471179
0.484465
0.507321
0.436261
0.430577
0.431644
0.442124
0.458688
0.450449
0.413178
0.419468
1.89828
1.90415
1.93256
1.91223
1.95076
1.94004
1.96241
1.95687
2.01231
1.99969
1.96293
2.01452
1.97938
2.03519
1.86462
1.81563
1.83583
1.88524
1.86632
1.83576
1.83878
1.89143
1.8972
1.87278
1.85217
1.90534
1.88766
1.89411
1.92024
1.77703
1.77495
1.77475
1.77348
1.79382
1.81504
1.36849
1.31247
1.21019
1.11363
1.02691
1.10275
1.30398
1.28602
1.52423
1.54911
1.43375
1.51757
1.55589
1.60471
1.65162
1.69291
1.68966
1.6917
1.69198
1.71914
1.7313
1.75904
1.746
1.74766
1.75145
1.7615
1.73977
1.73904
0.932679
0.861572
0.803507
0.794369
0.851619
1.02695
1.00535
0.73303
0.789427
0.66227
0.595813
1.88138
1.8998
1.9177
1.92394
1.92932
1.9398
1.94486
1.97264
1.95504
1.97472
1.9762
2.02272
2.04617
2.06799
2.06751
2.07286
2.08712
2.11245
0.569616
0.522075
0.524719
0.776596
0.67235
0.841481
0.745535
0.656606
0.554914
0.567932
0.561447
0.56275
0.413122
0.483646
0.339954
0.367202
0.446729
0.362768
0.625666
0.557775
0.454768
0.651299
0.647933
0.6518
0.707392
0.660755
0.788967
0.734851
0.823411
0.78818
0.824904
0.849145
0.873823
0.894466
0.915934
0.917085
0.924369
0.917199
0.975577
0.962375
0.956471
0.95368
1.00731
0.982552
1.05174
1.01418
0.994638
1.03685
1.08185
1.0716
1.09539
1.13133
1.13183
1.07722
1.18686
1.21663
1.18815
1.17609
1.25877
1.34201
1.41369
1.48023
1.42915
1.44511
1.57403
1.63286
1.67679
1.65845
1.72448
1.75586
1.79636
1.81261
1.80627
1.82488
1.88021
1.8622
1.87674
1.8868
1.86137
1.85961
1.87825
1.8854
1.86665
1.86112
1.87133
0.610817
0.584416
0.61114
0.538711
0.572488
0.584854
0.526205
0.664034
0.559278
0.481489
0.519591
0.488918
0.401416
0.506078
0.513917
0.29511
0.293707
0.243064
0.359349
0.576416
0.46261
0.479551
0.459935
0.273375
0.161881
0.001
0.001
0.001
0.00106382
0.001
0.269842
0.0462073
0.240758
0.194013
0.001
0.001
0.001
0.001
0.001
0.001
0.00100984
0.001
0.00106264
0.001
0.001
0.001
0.00101
0.001
0.001
0.001
0.001
0.00238958
0.001
0.001
0.001
0.001
0.001
0.001
0.00100993
0.001
0.001
0.001
0.001
0.001
0.00101306
0.001
0.001
0.001
0.001
0.00101371
0.001
0.001
0.001
0.001
0.001
0.001
0.001
0.001
0.00101
0.001
0.001
0.001
0.001
0.001
0.001
0.001
0.001
0.001
0.001
0.00212801
0.001
0.001
0.001
0.001
0.00212797
2.05865
2.0289
2.01394
2.10387
2.13637
2.13082
1.34684
1.33953
1.34103
1.33188
1.25215
1.32268
1.15428
1.07403
0.998042
1.01317
0.983187
0.986388
0.983757
0.98269
0.857892
0.780553
0.869376
0.9452
0.947053
0.001
0.001
0.001
0.001
0.001
0.001
0.001
0.001
0.001
0.001
0.00100943
0.001
0.001
0.545004
0.581435
0.607482
0.00100998
0.001
0.001
0.001
0.001
0.001
0.020721
0.0402924
0.2023
0.0709916
0.382402
0.750161
0.888525
1.00277
1.00417
1.31606
1.23916
1.24853
1.04132
1.13885
1.22259
1.27109
1.2768
1.27983
1.29533
1.31281
1.32352
0.001
0.00116704
0.001
0.001
0.001
0.001
0.00100904
0.001
0.001
0.001
0.001
0.001
0.001
0.001
0.001
0.001
0.001
0.00100504
0.001
0.001
0.001
0.001
0.001
0.001
0.001
0.001
0.001
0.001
0.001
0.001
0.00101
0.001
0.001
0.001
0.001
0.001
0.001
0.710222
0.743562
0.735255
0.673096
0.676057
0.644478
0.666262
0.53574
0.562487
0.477189
0.477638
0.682002
0.666742
0.430623
0.426587
0.426535
0.432332
0.48452
0.464982
0.50414
0.452219
0.573178
0.528282
0.573659
0.58184
0.412183
0.369557
0.391275
0.422441
0.397771
0.400021
0.342441
0.376651
0.358804
0.342376
0.316416
0.319991
1.89531
1.90946
1.9323
1.95864
1.9707
1.96844
2.00304
1.97463
1.82807
1.82629
1.8108
1.8313
1.86376
1.82477
1.87431
1.84642
1.76246
1.74944
1.74774
1.78015
1.80806
1.78271
1.373
1.2951
1.19048
1.27995
1.12803
1.03991
1.29253
1.292
1.53094
1.53364
1.54915
1.44536
1.52312
1.63501
1.58148
1.52428
1.5675
1.66904
1.68286
1.67261
1.67819
1.68643
1.71017
1.73763
1.72874
1.74006
1.73587
1.73841
1.73843
1.73509
1.73554
0.777372
0.781253
0.920893
1.00268
0.781026
0.862888
1.01958
1.0358
0.769907
0.712785
0.62426
0.690167
1.90947
1.87633
1.88515
1.93554
1.93311
1.93473
1.94471
1.96634
1.98958
1.99991
2.00002
2.00597
2.02712
2.06906
2.05237
2.06695
2.08504
2.13028
2.10985
1.94039
1.95148
1.96691
2.13568
2.13876
2.13854
0.523407
0.530242
0.52167
0.495646
0.590453
0.603515
0.407386
0.440394
0.478878
0.370147
0.402804
0.409863
0.336793
0.341655
0.340109
0.345912
0.373565
0.401274
0.506722
0.432907
0.434512
0.578281
0.655273
0.57011
0.726618
0.754334
0.686
0.725277
0.788427
0.756023
0.880276
0.822915
0.895035
0.905499
0.913989
0.904941
0.953401
0.993732
1.03007
1.03164
1.03845
1.02363
1.05089
1.03147
1.08117
1.08383
1.10774
1.1077
1.08507
1.08516
1.20609
1.25295
1.15143
1.21434
1.26349
1.22558
1.3268
1.37145
1.46845
1.50904
1.48257
1.57664
1.62866
1.73075
1.71526
1.77557
1.74997
1.84546
1.85121
1.84381
1.87375
1.90045
1.89858
1.95516
1.91912
1.93846
1.89855
1.92026
1.95919
1.86154
1.89148
1.88606
0.00101173
0.284742
0.001
0.260229
0.534077
0.513249
0.529959
0.500428
0.51793
0.361854
0.27826
0.262615
0.163036
0.355836
0.230897
0.270097
0.384201
0.001
0.001
0.0228893
0.148056
0.142688
0.001
0.001
0.001
0.00101164
0.001
0.001
0.00106177
0.0010634
0.001
0.001
0.001
0.00124206
0.001
0.001
0.0010004
0.001
0.001
0.001
0.001
0.001
0.0022299
0.001
0.001
0.001
0.001
0.001
0.00101
0.001
0.001
0.00221219
0.001
0.001
0.001
0.00100982
0.00133187
0.001
0.00100983
0.001
0.001
0.001
0.00101
0.001
0.0010131
0.00101321
0.001
0.001
0.00101311
0.00101322
0.001
0.001
0.001
0.001
0.00163851
0.001
0.0016384
0.001
0.001
0.001
0.001
0.00100984
0.00101
0.00100994
0.001
0.001
0.001
0.001
0.001
0.001
0.001
0.001
0.001
0.001
0.00133182
0.001
0.00100958
0.00100997
0.001
0.001
0.001
0.001
0.00101
2.01068
2.03807
2.04104
2.03694
2.07359
2.17725
2.15259
2.15265
2.17625
2.11672
1.24778
1.23855
1.17825
1.18086
1.1384
1.16632
1.07822
1.03135
1.02332
0.98175
0.95761
0.957493
0.866383
0.879605
0.748629
0.786392
0.789693
0.001
0.001
0.001
0.00101
0.001
0.001
0.001
0.581011
0.721158
0.580087
0.001
0.001
0.001
0.001
0.445957
0.283152
0.00101
0.001
0.001
0.001
0.0460669
0.00101356
0.08712
0.0823985
0.11517
1.12623
1.12775
1.16239
0.863072
1.0059
1.00265
1.03754
1.16114
1.23558
1.18534
1.10331
1.18002
1.20863
1.20729
1.13573
1.15811
0.001
0.001
0.00116707
0.00101
0.001
0.001
0.00101
0.00117385
0.001
0.001
0.001
0.001
0.001
0.001
0.001
0.00103001
0.001
0.0010301
0.00103003
0.00101
0.001
0.001
0.001
0.001
0.001
0.00100577
0.001
0.001
0.001
0.001
0.00109988
0.001
0.00100563
0.001
0.001
0.001
0.001
0.001
0.001
0.001
0.001
0.001
0.001
0.001
0.00103006
0.728562
0.739084
0.746627
0.614264
0.637469
0.59475
0.593583
0.52024
0.514467
0.428277
0.440108
0.426555
0.429121
0.526422
0.522488
0.372081
0.372823
0.337261
0.313046
0.414271
0.409009
0.434712
0.489498
0.56928
0.535243
0.598485
0.553016
0.351253
0.324843
0.38455
0.40645
0.283878
0.280286
0.257147
0.277956
0.318297
0.298051
0.319304
0.323696
1.90062
1.85691
1.92563
1.89598
1.90224
1.93727
1.95496
1.99224
1.99105
2.01538
2.00011
1.94844
2.00983
1.9742
1.79205
1.79369
1.78268
1.79604
1.80959
1.82202
1.82346
1.82653
1.73603
1.73985
1.75951
1.74471
1.77311
1.783
1.374
1.29762
1.21734
1.29285
1.08846
1.18114
1.29401
1.29905
1.52257
1.52215
1.52389
1.45292
1.61285
1.6582
1.56848
1.52204
1.66532
1.66331
1.68086
1.66751
1.70075
1.72669
1.73289
1.7303
1.73214
1.73493
1.73113
1.73597
1.73715
1.7411
0.776713
0.770743
0.939022
1.0162
0.918128
0.836446
1.07203
1.01504
0.746596
0.771011
0.741678
0.658738
1.91963
1.93426
1.92376
1.9574
1.97813
1.96016
1.99525
2.0102
1.98787
1.9999
1.98932
1.99975
2.00557
2.02771
2.05065
2.06927
2.06714
2.12043
2.09679
2.14413
2.15027
2.0225
2.03445
2.15431
2.16197
0.271277
0.418752
0.289485
0.392568
0.321764
0.289872
0.243422
0.214513
0.240316
0.28226
0.174341
0.225255
0.219056
0.119648
0.175444
0.31972
0.434609
0.350327
0.441377
0.443726
0.436708
0.506246
0.653371
0.558763
0.741614
0.745392
0.710021
0.657731
0.781191
0.822418
0.879513
0.869144
0.889443
0.879762
0.998535
0.947123
1.0497
1.04097
1.0661
1.07192
1.04582
1.10308
1.14738
1.12008
1.10391
1.13062
1.18145
1.16782
1.14857
1.19226
1.27776
1.27787
1.27194
1.29145
1.42121
1.3372
1.50787
1.53026
1.53313
1.59629
1.67519
1.74871
1.75908
1.77023
1.81904
1.86605
1.90238
1.90192
1.93939
1.91494
1.96528
1.97872
1.98115
1.98031
1.98379
1.98317
1.93902
1.96863
1.96749
0.001
0.001
0.00750048
0.001
0.001
0.245747
0.001
0.387358
0.250613
0.260793
0.0880987
0.135816
0.135144
0.131901
0.136562
0.145093
0.131959
0.117058
0.136813
0.00741337
0.001
0.001
0.001
0.001
0.001
0.00101151
0.00101184
0.001
0.001
0.00100217
0.001
0.001
0.001
0.001
0.00101
0.00195463
0.001
0.001
0.00100986
0.001
0.001
0.001
0.00188003
0.001
0.001
0.001
0.001
0.001
0.001
0.001
0.001
0.001
0.00100941
0.001
0.001
0.001
0.00100992
0.001
0.001
0.001
0.00101
0.001
0.001
0.001
0.001
0.001
0.001
0.0010008
0.001
0.001
0.001
0.00100949
0.001
0.001
0.001
0.001
0.001
0.001
0.001
0.001
0.001
0.001
0.00101
0.001
0.001
0.001
0.001
0.001
0.001
0.001
0.001
0.001
0.001
0.001
0.001
0.001
0.001
0.001
0.001
0.001
0.001
0.001
0.001
0.001
0.001
0.001
0.001
0.001
0.001
0.001
0.001
0.001
0.00106334
0.001
0.001
0.001
0.001
2.20898
2.19227
2.21222
2.2066
2.20991
2.21481
2.05089
2.05475
2.11244
2.08443
2.18155
2.19968
2.18341
2.06838
1.99547
1.11469
1.11904
1.11533
1.10377
1.12396
1.04611
1.08986
0.877751
0.940299
0.798935
0.8002
0.74734
0.74523
0.748772
0.001
0.001
0.001
0.001
0.555476
0.746569
0.57776
0.001
0.001
0.531263
0.428214
0.001
0.001
0.001
0.001
0.125549
0.263649
0.00101248
0.00101294
0.001
0.00101291
0.0934172
0.001
0.100316
1.11342
1.11824
1.12232
1.11462
1.12279
0.831467
0.946212
0.891135
1.01226
1.06647
1.10496
1.02825
1.11075
1.06477
1.05961
1.05074
0.001
0.00108627
0.001
0.001
0.001
0.001
0.001
0.00101451
0.001
0.001
0.00101244
0.001
0.001
0.001
0.00101974
0.001
0.001
0.001
0.001
0.001
0.001
0.001
0.001
0.001
0.001
0.00100955
0.001
0.001
0.001
0.001
0.001
0.001
0.001
0.001
0.001
0.001
0.00109986
0.001
0.00109964
0.001
0.001
0.001
0.001
0.001
0.00100037
0.001
0.001
0.001
0.001
0.001
0.00101
0.001
0.001
0.001
0.001
0.001
0.001
0.72456
0.657365
0.643375
0.573427
0.563954
0.48
0.467101
0.460668
0.455196
0.451103
0.459289
0.386136
0.399698
0.324951
0.302805
0.460165
0.460817
0.246757
0.243673
0.248377
0.251917
0.5314
0.593887
0.514076
0.406001
0.388483
0.465514
0.395863
0.48123
0.318469
0.293168
0.347404
0.305921
0.25701
0.253986
0.250772
0.273271
0.269571
0.238324
0.23507
0.217511
1.8847
1.84452
1.88952
1.8857
1.87404
1.91918
1.88063
1.90842
1.93969
1.95596
2.02123
1.98581
1.9359
1.78307
1.78269
1.81049
1.79693
1.82353
1.82237
1.84758
1.83056
1.7347
1.74588
1.76359
1.75221
1.76501
1.77434
1.41294
1.3359
1.25837
1.29449
1.24055
1.14706
1.33062
1.2949
1.52705
1.52616
1.48867
1.53102
1.61858
1.66793
1.53096
1.57447
1.6695
1.66594
1.6889
1.6683
1.71487
1.7349
1.72567
1.74098
1.71516
1.73168
1.732
1.73879
1.71872
1.72924
0.768317
0.829912
1.01596
0.993018
0.914454
0.998587
1.01688
1.0924
0.763014
0.757409
0.752767
0.670679
0.510525
0.553999
0.634048
1.98339
1.97626
2.01549
2.00373
2.02451
2.04087
2.03615
2.039
2.07373
2.0542
2.06579
2.03301
2.0634
2.07513
2.09935
2.11672
2.1296
2.12602
2.18026
2.17959
2.20213
2.18067
2.09502
2.10018
2.21542
2.21309
0.001
0.102658
0.00103521
0.213889
0.138171
0.207559
0.215865
0.206666
0.13611
0.0641333
0.00280696
0.001
0.0316164
0.0903599
0.258662
0.164893
0.136777
0.339712
0.49575
0.452386
0.308126
0.543407
0.589828
0.608064
0.58672
0.685819
0.764008
0.633666
0.862694
0.800777
0.872702
0.875682
0.963181
0.904902
1.0246
1.0567
1.05338
1.05951
1.18402
1.14759
1.11778
1.17343
1.19632
1.19032
1.1849
1.1746
1.19193
1.1905
1.27212
1.3148
1.35356
1.30971
1.35305
1.38023
1.51858
1.45238
1.54552
1.53025
1.61351
1.68597
1.77553
1.76843
1.80559
1.84258
1.91906
1.90732
1.92969
1.93515
1.96272
1.97262
1.99057
1.98146
1.994
1.98876
1.9813
1.99364
1.97656
1.98314
0.001
0.001
0.00101
0.001
0.001
0.001
0.001
0.001
0.001
0.135488
0.134279
0.001
0.001
0.135364
0.139186
0.126346
0.137073
0.118819
0.137472
0.0630201
0.001
0.00100986
0.001
0.001
0.001
0.00100179
0.001
0.001
0.001
0.001
0.001
0.00101
0.001
0.001
0.00100863
0.00179844
0.001
0.001
0.001
0.00381781
0.001
0.001
0.001
0.00100938
0.001
0.001
0.001
0.00100983
0.001
0.001
0.00100647
0.001
0.00100976
0.001
0.001
0.001
0.001
0.001
0.00344294
0.001
0.001
0.001
0.001
0.001
0.00127987
0.00127978
0.00127981
0.001
0.001
0.001
0.001
0.001
0.001
0.001
0.001
0.001
0.001
0.001
0.001
0.001
0.001
0.001
0.001
0.001
0.001
0.001
0.001
0.001
0.001
0.001
0.001
0.001
0.001
0.001
0.001
0.001
0.001
0.001
0.001
0.001
0.001
0.001
0.001
0.001
0.001
0.001
0.00101
0.001
0.00151781
0.001
0.00108999
0.001
0.00107961
0.001
0.001
0.001
2.22621
2.24789
2.25722
2.21226
2.21873
2.20014
2.21204
2.10918
2.12027
2.13284
2.15378
2.15596
2.1887
2.21145
2.06753
2.08964
2.01237
2.04795
2.0359
1.11185
1.10828
1.01589
0.978133
1.07608
1.00669
1.02076
0.880249
0.910556
0.775859
0.746384
0.746601
0.747195
0.724621
0.001
0.001
0.663045
0.776163
0.55431
0.001
0.001
0.50928
0.501926
0.001
0.001
0.24476
0.376481
0.001
0.001
0.001
0.001
0.111021
0.113942
0.001
0.00102661
0.001
0.001
0.0338555
1.07561
1.12343
1.09747
1.06561
0.835237
0.836512
0.860093
0.926899
1.04247
1.05019
0.99923
1.04444
1.04579
0.00100999
0.001
0.001
0.001
0.001
0.001
0.00114256
0.00114029
0.001
0.001
0.00101
0.00100946
0.001
0.001
0.00100846
0.001
0.0010099
0.00378863
0.001
0.001
0.001
0.001
0.001
0.001
0.001
0.00109978
0.001
0.001
0.00101467
0.001
0.001
0.001
0.001
0.001
0.001
0.001
0.001
0.001
0.001
0.001
0.001
0.001
0.001
0.001
0.001
0.001
0.001
0.001
0.001
0.001
0.001
0.00205958
0.001
0.001
0.001
0.001
0.001
0.001
0.001
0.001
0.001
0.001
0.001
0.643923
0.559174
0.56218
0.498608
0.50093
0.471547
0.48657
0.461354
0.499241
0.426864
0.431846
0.339316
0.354252
0.261353
0.260867
0.230579
0.233078
0.381968
0.356232
0.236838
0.229205
0.230918
0.232382
0.451697
0.496735
0.333619
0.307699
0.379933
0.496633
0.559209
0.512847
0.241164
0.203655
0.265557
0.288759
0.186942
0.17931
0.160672
0.129957
0.15861
0.137862
0.159129
0.179274
1.83048
1.87457
1.82782
1.90157
1.90646
1.90413
1.93543
1.89993
1.91704
1.97923
1.93083
2.00796
1.97218
2.04332
1.76407
1.784
1.78166
1.80428
1.78686
1.80956
1.85161
1.80254
1.73173
1.745
1.7489
1.75474
1.75516
1.75716
1.46691
1.38725
1.27604
1.29428
1.19678
1.28825
1.30057
1.35752
1.53284
1.5326
1.53364
1.51225
1.62215
1.67001
1.5909
1.54608
1.67378
1.67481
1.67856
1.69695
1.71348
1.71223
1.71656
1.75184
1.74629
1.73062
1.72834
1.72589
1.73123
1.74219
0.850355
0.755344
1.02302
1.02511
0.936505
1.03068
1.02686
1.12798
0.750831
0.752496
0.733675
0.715449
0.657468
0.752741
1.99383
2.01636
2.03352
2.06983
2.06155
2.08178
2.09882
2.10573
2.11214
2.09895
2.10803
2.12847
2.14975
2.16115
2.1623
2.17017
2.19157
2.21217
2.22253
2.22275
2.2347
2.11064
2.10116
2.25408
2.27341
0.001
0.001
0.001
0.00100109
0.0792209
0.162926
0.0685411
0.0856864
0.001
0.00106573
0.001
0.0281327
0.124355
0.0778188
0.152369
0.152563
0.146392
0.214516
0.280403
0.45678
0.379747
0.539998
0.618084
0.614395
0.532143
0.695268
0.698308
0.776945
0.841207
0.812128
0.889734
0.831884
1.0242
0.950843
1.05671
1.05911
1.07395
1.13452
1.26009
1.26852
1.20961
1.23804
1.26984
1.21543
1.32427
1.25224
1.22989
1.26356
1.39858
1.40873
1.47378
1.52709
1.41129
1.50122
1.64472
1.59494
1.663
1.63234
1.82527
1.7912
1.85781
1.8733
1.94399
1.9564
2.01563
1.98516
2.02884
2.0133
2.03265
2.06537
2.03677
2.0679
2.07729
2.034
2.02411
2.06782
2.06667
2.03571
0.001
0.001
0.00101
0.001
0.001
0.001
0.001
0.001
0.001
0.00107478
0.001
0.001
0.001
0.001
0.001
0.001
0.001
0.133891
0.001
0.0564867
0.124639
0.001
0.001
0.001
0.00115428
0.001
0.001
0.001
0.001
0.001
0.00144915
0.00100993
0.001
0.001
0.001
0.001
0.001
0.001
0.001
0.001
0.001
0.001
0.001
0.001
0.001
0.001
0.00101211
0.00101213
0.00101223
0.001
0.001
0.001
0.001
0.0012372
0.001
0.001
0.00123713
0.001
0.001
0.001
0.00100996
0.00151775
0.001
0.00119534
0.001
0.001
0.001
0.001
0.00101
0.001
0.001
0.001
0.001
0.001
0.001
0.001
0.001
0.001
0.001
0.001
0.001
0.001
0.001
0.001
0.001
0.001
0.001
0.001
0.001
0.001
0.001
0.001
0.001
0.001
0.001
0.001
0.001
0.001
0.001
0.001
0.001
0.001
0.001
0.001
0.001
0.001
0.001
0.001
0.001
0.001
0.001
0.001
0.001
0.001
0.001
0.001
0.001
0.00108999
0.001
0.001
0.001
0.00119535
0.001
0.001
2.27968
2.26463
2.27981
2.25211
2.24097
2.27122
2.25443
2.23087
2.25057
2.11377
2.13572
2.12674
2.13388
2.20721
2.25384
2.27369
2.17157
2.0419
2.08009
2.05484
2.0484
2.04202
2.08295
1.97315
0.877713
0.975471
0.876507
0.91661
0.914381
0.827053
0.825648
0.830135
0.827063
0.826997
0.798554
0.72119
0.694378
0.612235
0.615002
0.724257
0.836175
0.001
0.001
0.503511
0.503462
0.001
0.00100999
0.438652
0.306029
0.00100155
0.001
0.182636
0.113541
0.001
0.001
0.001
0.114569
0.0367684
0.001
0.001
0.001
0.983747
0.909127
0.884302
0.97468
0.835982
0.858136
0.996974
0.926991
0.974005
1.0445
1.04488
0.00109791
0.001
0.001
0.00114918
0.001
0.001
0.00114132
0.001
0.001
0.001
0.00100995
0.001
0.001
0.001
0.001
0.001
0.00378825
0.00378707
0.001
0.001
0.0037872
0.001
0.00205961
0.001
0.001
0.001
0.001
0.00362962
0.001
0.00101474
0.00372348
0.001
0.001
0.001
0.001
0.001
0.001
0.001
0.001
0.001
0.001
0.001
0.001
0.00101
0.001
0.001
0.001
0.001
0.001
0.0047487
0.0518693
0.001
0.001
0.111513
0.141082
0.001
0.001
0.001
0.001
0.001
0.001
0.001
0.001
0.001
0.001
0.001
0.001
0.001
0.001
0.001
0.001
0.001
0.001
0.500809
0.505451
0.533408
0.497774
0.498647
0.495517
0.492674
0.316592
0.318468
0.40357
0.412081
0.281255
0.283282
0.233873
0.231042
0.238638
0.235849
0.201158
0.207067
0.245302
0.236415
0.149065
0.136425
0.0960191
0.104254
0.422853
0.347689
0.287208
0.501257
0.405742
0.536311
0.637079
0.558631
0.245045
0.202301
0.2989
0.279838
0.0716043