/*--------------------------------*- C++ -*----------------------------------*\
  =========                 |
  \\      /  F ield         | OpenFOAM: The Open Source CFD Toolbox
   \\    /   O peration     | Website:  https://openfoam.org
    \\  /    A nd           | Version:  8
     \\/     M anipulation  |
\*---------------------------------------------------------------------------*/
FoamFile
{
    version     2.0;
    format      ascii;
    class       volScalarField;
    location    "3000";
    object      alpha;
}
// * * * * * * * * * * * * * * * * * * * * * * * * * * * * * * * * * * * * * //

dimensions      [0 0 -1 0 0 0 0];

internalField   nonuniform List<scalar> 
526318
(
0.000265237
0.000400471
0.000351251
0.000665986
0.000514922
0.00013657
0.000221649
0.000228112
0.000440739
0.000267515
0.000416843
0.000487898
0.000271056
0.000404512
0.000397932
0.000316389
0.00038461
0.000169382
0.000132006
5.19765e-05
0.00037371
0.000583566
0.000322103
0.00041803
0.00062465
0.000685458
0.000303471
0.000171981
0.000457295
0.000265196
0.000183326
0.000267935
0.000165965
8.23345e-05
0.000564912
0.000990973
0.000721335
0.000324428
0.000541894
0.000652407
0.000561167
0.000309685
0.000785944
0.0010702
0.00207577
0.00107993
0.00138606
0.00034056
0.000234285
0.000726872
0.000560508
0.000502006
0.00051291
0.000483497
0.0136285
0.00174389
0.00224557
0.0133385
0.000361121
0.000366442
0.000203143
0.000275418
0.000469663
9.32495e-05
0.000504069
0.00010191
0.000584671
9.40797e-05
0.000586485
0.000476713
0.000487024
0.00116003
0.000187393
0.000456562
0.000398644
0.00078822
0.000575446
0.000690937
0.000302083
0.000361478
0.000151917
0.000391354
0.000258465
0.000682373
0.000271652
0.000439949
0.000792461
0.000389241
0.000609802
0.00014389
0.000610769
0.000111972
0.0012824
0.00104829
0.00124913
0.000721279
0.000506389
0.000537574
0.000641912
0.00025906
0
0
0
0.129755
0.0199066
0
0.00200524
0.00399127
0.000604218
0.000616883
0.000139978
0.000585307
5.06182e-05
0.000493695
0.000279047
0.000341794
0.000235249
5.13618e-05
0.000367852
0.00118104
0.000629046
0.000550526
0.00108513
0.00104198
0.000626228
0.000811722
0.00110043
0.00156845
0.00101025
0.00141731
0.00164356
0.00159989
0.00196284
0.0018253
0.00200568
0.00194213
0.00167303
0.00251023
0.00233191
0.00229747
0.00271445
0.00275722
0.00158161
0.00231211
0.00310537
0.00269509
0.00318701
0.00261525
0.00330091
0.00313564
0.00281128
0.00313007
0.00225359
0.00255554
0.00287585
0.00232401
0.00287424
0.00240219
0.0030108
0.0027924
0.00290037
0.00347746
0.00348344
0.000442998
0.000568603
0.00069674
0.0003014
0.000404982
0.000239239
0.000606493
0.000398631
0.000438005
0.000554601
0.000145643
0.000517395
0.000457877
0.000515151
0.00051523
0.00076985
0.00100618
0.000330833
0.0010785
0.000630394
0.00100737
0.00139427
0.00228482
0.00159519
0.00187212
0.00178768
0.00210746
0.00146636
0.00229297
0.0015139
0.00189405
0.00307261
0.00292853
0.00250078
0.00253951
0.00266836
0.00364972
0.00277182
0.00228143
0.0024946
0.00158387
0.00320373
0.00242401
0.00245352
0.00185001
0.00110467
0.00175349
0.000666656
0.000597729
0.00123692
0.00022625
0.00212209
0.000192446
0.000392496
0.000312539
0.000425111
0.000911858
0.000603542
0.00175559
0.000421186
0.000677603
0.00100307
0.000293609
0.000676845
0.00052414
0.000263865
0.394719
0
0.0143726
0.0062026
0
0
0
0
0
0
0.000323346
0.000294433
0.000280718
0.000158098
0.000186131
0.000444785
0.000368512
7.79256e-05
0.000187315
0.000134319
0.000776449
0.000578126
0.000356565
0.00033683
0.000693235
6.24311e-05
0.000250254
0.00029612
0.000705695
0.000206498
0.000755441
0.000505301
0
0
0
0.0260596
0.164905
0
0
0.00854254
0.000688916
0.00242608
0.000410023
0.000683275
0.00045426
0.000213207
8.19182e-05
0.000376753
9.3173e-05
0.000226131
0.000168111
0.000135847
0.00107461
0.000571615
0.000715208
0.00123954
0.00182205
0.00135354
0.00228223
0.00272002
0.0025381
0.00205476
0.00223325
0.002551
0.00460038
0.0028168
0.00107178
0.000863947
0.000703614
0.000464873
0.000751839
0.000712464
0.00417702
0.00239345
0.00135867
0.00195537
0.00161793
0.0029503
0.00250005
0.00315491
0.00377331
0.00328434
0.0051677
0.00390539
0.00806087
0.00339441
0.00431921
0.000235671
0.000752053
0.00118612
0.00084984
0.000923469
0.00114608
0.00191378
0.000184568
0.000861671
0.000369699
0.000460914
0.000737677
0.00013446
0.000531618
0.000620999
0.000356443
0.000788216
0.00125196
0.000643199
0.00148787
0.00046466
0.00129984
0.00156944
0.00124365
0.0029422
0.00205009
0.0019784
0.00199259
0.00215278
0.0016537
0.00164639
0.0026626
0.003088
0.00201464
0.00266223
0.00249642
0.00222972
0.00248818
0.00236436
0.00262274
0.00219283
0.00248409
0.00150355
0.00107927
0.00117989
0.00137861
0.000798688
0.00117157
0.000744192
0.00117891
0.00131164
0.000465639
0.000667716
0.00037871
0.000608716
0.00103801
0.000490935
0.000914847
0.000797763
0.000297787
0.000906175
0.000623458
0.00116484
0.000889982
0.00058589
0.0026329
0.00022189
0.000191985
0.00135189
0.000366388
0.000482098
0.000449662
0.00243251
0.0101804
0.005227
0.00530678
0.00169418
0.00144325
0.000890458
0.00113019
0.00027754
0.000667403
0.000674825
0
0
0.0544875
0
0.00384936
0.127141
0
0.0210779
0
0
0
0
0
0
0
0
0.000173242
0.00044982
0.000282571
0.000431257
0.000272469
4.20881e-05
0.000133668
0.000482277
0.000566444
0.000662765
0.000325419
0.000251366
0.000427781
0.000554417
0.000108512
5.73612e-05
0.000176052
0.000268152
0.000372996
0.000626688
0.000545382
0.000874133
0
0.000311693
0
0
0
0
0
0
0.00271653
0.0022561
0
0
0
0
0.00729033
0
0
0
0
0
0
0.0414236
0.02005
0.0311272
0.00259831
0.00880464
0.000599458
0.000617274
0.000324021
0.000477072
0.000345447
0.000374522
0.000128147
0.000252696
0.000154786
0.000166907
0.000212754
7.78933e-05
0.000717187
0.00131729
0.00137036
0.000791058
0.00183996
0.00199398
0.00234246
0.00260368
0.00194016
0.00221326
0.00313176
0.00233754
0.00356196
0.00222636
0.00164223
0.0051269
0.00255513
0.00305603
0.00210163
0.00115464
0.00333362
0.00243831
0.00205942
0.00359371
0.00389208
0.00333816
0.00371254
0.00464581
0.00488447
0.00824742
0.00499135
0.00104688
0.000716235
0.000748314
0.000779195
0.000408778
0.000617263
0.00089892
0.00100436
0.000572632
0.00093232
0.000316346
0.00160192
0.00169437
0.00124771
0.00108337
0.000340223
0.000666915
0.00110001
0.000986732
0.000769051
0.000836034
0.000483636
0.000274488
0.00107478
1.83962e-05
0.00097336
0.00134079
0.000581591
0.0017522
0.000610203
0.00292413
0.00217293
0.00436446
0.00674367
0.00579048
0.00332407
0.00361007
0.00203784
0.00269231
0.00152975
0.00286974
0.00186527
0.00319918
0.00250401
0.00311724
0.00267423
0.00235902
0.00280717
0.00223837
0.00169342
0.00181204
0.00188186
0.00140083
0.00155282
0.00134032
0.00101564
0.00156359
0.00104481
0.00123442
0.000566799
0.0011017
0.000832801
0.000882473
0.00126611
0.000862809
0.000130106
0.000637189
0.000189031
0.000878568
9.2599e-05
0.000255676
0.000709406
0.000718554
7.34155e-05
0.000643987
0.000560796
0.000402126
0.00030161
0.000478296
0.00177175
0.000342427
0.00112787
0.000100437
0.00184052
0.000565707
0.000573758
0.0201514
0.00500663
0.00161206
0.00183098
0.0006833
0.00172077
0.0013986
0.000662585
0.00180622
0.0018182
0
0
0
0
0.0424363
0.0192567
0
0
0
0
0
0
0
0
0
0
0
0
0
0
0
0
0
0
0
0
0.00774394
0
0
0.000603556
0.0030189
0.00846109
0
0
0
0
0
0
0
0
0
0
9.70075
8.26801
0
0
0.000356271
6.14339e-05
7.34339e-05
0.000285653
0.000114731
0.000334939
0.000915805
0.000448963
0.000149078
0.00017739
0.00074704
0.000345701
0.000248671
6.58441e-05
0.000547558
0.000354176
0.000441131
0.000116121
0.000734646
0.000636337
0.00105962
0.000720742
0
0
0
0
0
0
0
0
0
0
0
0
0
0
0
0
0
0
0
0
0
0
0
0
0
0
0.031915
0
0
0
0.00745261
0
0.00301584
0.00485964
0.000786293
0.00124572
0.000369876
0.000453081
0.000568287
0.000298063
0.000192606
0.000205871
7.2786e-05
7.07343e-05
0.000333502
0.0002545
0.00045662
0.000217177
0
0
0
0
0
0
0
0
0
0
0
0
0
0
0
0
0
0.00075754
0.00123031
0.000832506
0.0013582
0.00223434
0.00193495
0.00299475
0.00299851
0.00316887
0.00437124
0.00690651
0.00559818
0.00331036
0.00208853
0.00554421
0.0055189
0.00350829
0.00421645
0.0031475
0.00231712
0.00812268
0.0153909
0.0123645
0.00796921
0.00327908
0.00518434
0.00344868
0.00612573
0.0137899
0.0359918
0.0574823
0.0819097
0.000735981
0.000382274
0.00079329
0.000466265
0.000628384
0.000601372
0.000422741
0.000478948
0.000522556
0.000588988
0.00188579
0.00151576
0.00107194
0.000816912
0.000111663
0.000534284
0.000281
0.00119815
0.00217831
0.0011021
0.000758893
0.0028412
0.000819978
0.000662571
0.000946301
0.000852085
0.000569981
0.00103377
0.00116874
0.000349894
0.0024587
0.000708149
0.00494916
0.000875351
0.00152026
0.00411597
0.00607407
0.00717037
0.0347631
0.0120269
0.0144695
0.00503528
0.00452169
0.00307139
0.00404854
0.00384991
0.00308396
0.00244036
0.00308561
0.00285549
0.00247644
0.00269005
0.00222094
0.00156975
0.00174887
0.00201245
0.00188324
0.00139924
0.00157934
0.00146192
0.00106817
0.00116521
0.000924385
0.000981914
0.0017104
0.00112222
0.00142154
0.000967893
0.000711718
0.000417945
0.000671726
0.000481318
0.000782477
0.000768831
0.000533998
0.00048008
0.00035189
0.000430759
0.000242866
0.000578572
0.000602774
0.000359604
0.000515556
0.000410304
0.000335941
0.000494578
0.000431068
0.000552372
0.000397772
0.000407211
0.00028874
0.000293188
0.000312788
0.000319481
0.000264084
0.000331404
0.000204546
0.000225892
0.000236081
0.00022854
0.00011483
0.000106008
0.000219265
0.000167444
0.000170849
0.000157578
0.000191188
0.000230619
0.000203465
0.000177514
0.000201875
0.000224967
0.000236667
0.000217796
0.000201012
0.000197561
0.000220518
0.000223209
0.000250977
0.00025698
0.000232129
0.00119687
0.000527786
0.000185845
0.000857829
0.000243879
0.000182942
0.00054406
0.00177128
0.00023062
0.0158594
0.00121531
0.00291408
0.00139555
0.0768581
0.012429
0.00496264
0.00204367
0.00494179
0.00632554
0.0103357
0.00536477
0.00955009
0.00647331
0
0.0160015
6.53817
0
0
0
0
0
0
0
0
0.0139714
0
0
0
0
0
0
0
0
0.0160271
0
0
0
0
0
0
0
0
0
0
0
0
0
0
0
0
0
0
0.0201363
0
0
0.0215307
0
0.00981556
0
0.00776124
0.00695712
0.0187915
0
0.0227958
0.00750094
0
0
0.0137705
0
0
0
0
0
0
0
0
0
0
0
0
0
0
0.242398
0
0
4.72118e-05
0.000195703
0.000367032
0.000336597
0.000618491
0.000452285
0.000294904
0.000218417
0.000761799
0.000909497
0.000393479
0.000169246
0.000129247
0.000455717
0.000701844
0.000693401
0.000992541
0.000778992
0.000483212
0.000444762
0.000635096
0.000617195
0
0
0.155147
0.263615
0
0
0
0
0.254406
0
0
0
0
0
0
0
0
0
0
0
0
0
0.0205218
0.0141223
0
0
0
0.00624716
0.000775163
0.00539193
0.000882232
0.000179373
0.000409133
0.000253355
0.000610086
0.00018798
0.000161242
0.000176161
0.000402673
0.000291329
9.42173e-05
0.000155101
8.39152e-05
0.000353761
0.00483084
0
0.0226357
0
0
0.000402957
0
0
0.000306485
0
0
0
0
0
0
0
0
0
0
0
0
0
0
0
0.0150011
0
0.00121572
0.00108845
0.0019472
0.00107511
0.00351611
0.0025518
0.00314385
0.00558518
0.00333522
0.00415709
0.00717546
0.00687193
0.0150647
0.00952103
0.0125828
0.0061036
0.00276148
0.00154913
0.00103843
0.00419871
0.864588
0.0635934
0.0061174
0.0206076
0.0238091
0.0166747
1.55517
0
0
0
0.70399
0.720733
0.000601861
0.000522425
0.000709446
0.000730148
0.000403829
0.000718041
0.000541292
0.000480838
0.000450409
0.000357982
0.000512672
0.000648043
0.000274125
0.000367129
0.000256988
0.000225928
0.000236096
7.43861e-05
0.000257929
8.47979e-05
0.000176798
0.000182844
0.000210252
0.000173215
0.000268079
0.000278825
0.000215187
0.000242785
0.000124993
0.000235114
0.000609769
0.00177791
0.000856903
0.00052936
0.000360805
0.0010386
0.00048155
0.000876634
0.00470826
0.00166714
0.0162544
0.00147922
0.00669641
0.000826457
0.00076772
0.00060037
0.000147157
0.00074004
0.00114024
0.000923498
0.00776587
0.010296
0.0124614
0.00256805
0.00774609
0.0429923
0
0.15685
0.0112855
0.0234794
0.0781331
0.0161358
0.00596288
0.0123443
0.00350538
0.00694094
0.00281263
0.00300868
0.00165136
0.00194337
0.00120851
0.00124116
0.00209863
0.00145187
0.00165517
0.00133966
0.00171426
0.00133751
0.00153475
0.00108442
0.00112694
0.00116215
0.00145122
0.00142256
0.000814126
0.000903705
0.00116983
0.00083521
0.000869047
0.00057585
0.000478576
0.000805954
0.000568309
0.000352414
0.000982842
0.000659207
0.000742942
0.000523751
0.000582937
0.00058929
0.000469518
0.000271813
0.000404229
0.00035742
0.000391881
0.000327362
0.00025749
0.000182171
0.000227082
0.000138066
0.000187593
0.000179239
0.00016497
0.000228822
0.000178917
0.000246559
0.000209591
0.000271643
0.000257679
0.000182258
0.000218554
0.000260916
0.000279683
0.000225861
0.000241084
0.000269213
0.000244455
0.000227576
0.000287834
0.0002693
0.00023904
0.000206835
0.000212805
0.00283265
0.00165826
0.0021019
0.00167831
0.00190501
0.00293581
0.00112394
0.000836466
0.000182389
0.00093082
0.00354387
0.00921978
0.0127976
0.00251915
0.00252535
0
0
0.0310065
0
0.0113004
0.0167885
0.00998487
0.0128608
0.000852607
0.0052655
0
0
0
0
0.0106742
0.00819267
0
0
0
0.0200593
0
0
0
0
0
0
0
0.0164728
0
0
0
0
0
0
0
0
0.000823839
0
0
0
0.00646001
0
0
0
0
0
0
0
0
0
0
0
0
0
0
0
0
0.0131316
0
0.00748884
0
0
0
0
0
0
0
0
0
0
0.000178799
0.000228606
0.000344926
0.000467386
0.00030499
0.000451181
0.00104956
3.68818e-05
6.24771e-05
0.000629888
0.000496848
0.00104164
0.000216166
0.000435807
0.000893282
0.00113962
0.00130086
0.000558559
0.000679804
0.000689847
0.000583421
0.000606504
0.103437
0
0.0464705
0
0
0
0
0
0
0
0
0
0
0
0
0
0
0
0
0
0
0
0
0.0269256
0
0
0.0132457
0.00232373
0.000627015
0.00558628
0.000452181
0.000722213
0.000255431
0.000114209
0.000253498
8.95864e-05
0.000278346
2.26936e-05
8.62624e-05
0.000125275
0.000123544
0.000605837
0.000255018
0.000301681
0
0
0
0
0
0
0
0
0
0
0
0
0.00808552
0
0
0
0
0
0
0.000936955
0
0.000900071
0
0
0
0
0
0
0
0
0
0.00181696
0.00230313
0.00148744
0.00346263
0.00665346
0.00126915
0.00230261
0.0070332
0.00194464
0.00205239
0.00244867
0.0280888
0.0334394
0
0
0.00934586
0.00963171
0.0103985
0.0111894
0.00387091
0.00167307
0.00255261
0.00319039
0.0914132
0.812011
0.154623
0.024968
0
0
0
0
0
0
0
0
0.000154227
0.000190274
0.000159489
0.000199505
0.000190802
0.000180316
0.000207148
0.000180606
0.000150558
0.000164684
0.000143346
0.000156873
8.75933e-05
0.000176543
0.000216658
0.000254985
0.000236845
0.000226746
0.00021897
0.000233068
0.000265039
0.000212864
0.000210724
0.00026979
0.000209058
0.00023886
0.000172999
0.000209166
0.000196349
0.000264057
0.000179832
0.000224146
0.000263699
0.000250705
0.00024171
0.00059615
0.000540993
0.000524965
0.000777897
0.00062521
0.000405503
0.00049931
0.00056932
0.000501769
0.000300238
0.000567925
0.000408913
0.000412753
0.000207641
0.000254406
0.000174639
0.000105745
0.000143458
4.70901e-05
9.69853e-05
0.000143183
9.96288e-05
0.000181165
9.2944e-05
0.000234692
0.000155137
0.000135094
9.08652e-05
0.000174256
0.00112708
0.00070503
0.000789523
0.000572817
0.000724539
0.000749335
0.00221519
0.000429249
0.00138906
0.01248
0.000201064
0.000255295
0.000180979
0.000181642
0.000234284
0.00020445
0.000187347
0.000206917
0.000205253
0.000173501
0.000191942
0.000177221
0.000150845
0.000142098
0.000154395
0.000143853
9.9569e-05
0.000141076
0.00635751
0.0100622
0.00810237
0.00124935
0.00241064
0.000462517
0.00153196
0.000462229
0.00935526
0.00778483
0.00374775
0.00893452
0
0.0521504
0
0
0
0
0.00870859
0.0663695
0
0.00642342
0.0139349
0.00294263
0.00440284
0.0046132
0.00128018
0.00394734
0.00153983
0.00136404
0.00132945
0.00226692
0.00126444
0.00132742
0.00129138
0.00103519
0.00139583
0.0014426
0.0011091
0.00107181
0.000836685
0.000921392
0.000744283
0.000708228
0.000319798
0.00053275
0.000241466
0.000459819
0.000387082
0.000504914
0.000862516
0.000324836
0.00016917
0.000625757
0.000663067
0.000554289
0.000769386
0.000742476
0.000684574
0.000381189
0.000462834
0.000406108
0.000357438
0.000248248
0.000233713
0.000188094
0.000192271
0.000149755
0.000203637
0.000174231
0.000207774
0.000177757
0.000200532
0.000237619
0.000241589
0.000180715
0.000296866
0.000193025
0.000167687
0.000303567
0.000273841
0.000196531
0.000215209
0.000215686
0.000263955
0.00167168
0.00606329
0.00521764
0.00348982
0.00665341
0.00790305
0.0305484
0.00446845
0.0140428
0.0460236
0.0122376
0.0347067
0
0.0236275
0.00626981
0
0
0
0
0.0196617
0
0
0
0
0
0
0
0
0.00909839
0.00972901
0.0114623
0
8.31321e-05
0
0
0
0
0
0
0
0
0
0.0333377
0
0
0
0
0
0
0
0
0.212703
0
0
0
0
0
0
0
0
0
0
0
0
0.00543343
0
0
0.00598703
0
0
0
0
0
0
0
0
0
0
0.0272469
0
0
0
0
0
0
0
0
0
0
0.101832
0
0
0
0
0.0930853
0.000138228
0.000230336
0.000140774
0.000124367
0.000130602
0.000121174
0.000743943
0.000248661
0.000312466
0.000631056
0.000546663
0.000250794
0.000539438
0.000453094
0.000586643
0.000450673
0.000694296
0.000352477
0.000208912
0.000435388
0.00108372
0.000712976
0.000765739
0.000603758
0.000537239
0
0
0
0
0.0133182
0
0
0
0
0
0
0
0
0.0129318
0.00227927
0.00521064
0
0
0
0
0
0
0
0
0
0
0
0.000184213
0.000739063
0.000482504
0.000271248
0.00046754
0.000489103
0.000906999
0.000181262
0.00071056
0.000195284
0.000157362
0.000406301
0.000122484
0.000168717
0.000287602
0.000279977
0
0.00377361
0
0
0
0
0
0
0
0
0
0
0
0
0.0162811
0
0
0.00286472
0
0.0259836
0
0
0
0.0218391
0
0
0
0
0
0
0.00661045
0
0
0
0
0
0
0.00284638
0.00136911
0.000589138
0.00315016
0.00302853
0.00344223
0.00212518
0.0359637
0.011743
0.687071
0.137018
0.00260518
0.000906736
0
0
0
0.0190403
0.0511029
0
0.047438
0
0.00992418
0.0241143
0.00367962
0.00447208
0
0
0
0
0
0
0
0
0
0
0
0
0.000220702
0.000157519
0.000177111
0.000132763
0.00029216
0.000165386
0.000302102
0.000259599
0.000250359
0.000246266
0.000257399
0.000282394
0.000249033
0.000199118
0.000188416
0.000216685
0.00017969
0.000248064
0.000238892
0.000244853
0.000270663
0.000269935
0.000519092
0.000571402
0.000606485
0.000424584
0.000577945
0.000572971
0.00052049
0.000504948
0.000451713
0.00037796
0.000273023
0.000487598
0.000421796
0.000128038
0.000345475
0.00037636
0.000239578
0.000198756
9.41406e-05
6.37478e-05
5.34295e-05
6.7651e-05
6.10113e-05
4.48564e-05
6.80085e-05
0.000149786
0.000130327
0.000150563
0.000131115
7.06066e-05
0.00014685
0.000687264
0.00155186
0.000365092
0.000502186
0.000613968
0.00132145
0.000438211
0.000705019
0.000250588
0.00295149
0.00648535
0.0017493
0.00019326
0.000244553
0.000236534
0.00018006
0.000212316
0.000236206
0.000180481
0.000220425
0.000174058
0.000174629
0.000191303
0.000170541
0.000168112
0.000144918
0.00014648
0.000112343
0.000151511
0.000152343
0.000119991
0.00018474
0.000226197
0.000188102
0.000119669
0.000151965
0.000126156
0.0222731
0.0255995
0.00506647
0.0639879
0.0062879
0.00484707
0
0
0.0632744
0
0
0
0
0.0094253
0
0.00430726
0
0
0.540568
0
0.00399372
0.0398863
0.0100435
0.0212405
0.000505982
0.00171939
0.00430046
0.0037483
0.00209535
0.00150199
0.0009339
0.00140061
0.00119035
0.00140525
0.00195428
0.00122408
0.00104723
0.000803921
0.000866394
0.000709258
0.000513854
0.000485911
0.000384146
0.000340288
0.000406705
0.000707294
0.000553021
0.000535051
0.000594139
0.000459899
0.000288309
0.000500769
0.000320958
0.000733296
0.000437847
0.000439415
0.00037744
0.000306254
0.000258502
0.00029116
0.000401322
0.000204935
0.000202846
0.000156608
0.000134597
0.000166668
0.000194792
0.000192744
0.000190158
0.000188746
0.000186684
0.000209507
0.000198651
0.000168262
0.000210769
0.000174748
0.000261941
0.000284812
0.000148623
0.00027011
0.000182148
0.000218312
0
0
0
0
0.0119204
0.0231178
0.17727
0.08223
0.0296243
0
0
0
0
0
0
0
0
0
0
0
0
0
0
0
0
0
0
0
0.0138455
0.00536832
0
0
0
0
0
0
0
0
0
0
0
0
0.0104789
0
0
0
0
0
0
0
0
0.134393
0
0
0
0.0326379
0.00554424
0
0
0
0
0
0
0
0.0118987
0.0131232
0
0
0.0173139
0.0150884
0
0
0
0
0.0120546
0
0.0198532
0
0
0
0
0
0.0110262
0.00706829
0
0
0
0
0
0
0
0
0
0
0.00674541
0
0
0
0
0
0
0
0
0.000172168
5.75586e-05
0.000156915
0.000106113
0.000113351
0.000147913
0.000132157
0.000149562
0.000150353
0.000141499
0.000448593
0.000621674
0.000837491
0.000906991
0.000847861
0.000180547
0.000663892
0.000827515
0.000331361
0.000418095
0.000518893
0.000316853
0.000615718
0.000369021
0.00106044
0.000898031
0.001251
0
0
0
0
0
0
0
0.0115359
0.00204077
0.00783627
0
0
0
0
0
0
0
0
0
0.000940602
0
0
0
0
0
0.000841057
0.000371203
0.000406681
0.000649366
0.000593265
0.000294334
0.000393526
0.00080028
0.000358921
0.000309714
0.000109233
0.000296249
0.000443992
0.000368681
0.000120934
0.000170878
0
0
0.00268158
0.0131233
0
0
0.0132638
0.00211317
0
0
0
0.0230633
0
0
0
0.00666402
0.010969
0.00957855
0
0
0
0.00383487
0
0
0
0.114538
0
0
0
0
0
0
0
0
0
0
0
0
0
0
0
0
0
0
0
0.0011741
0.00081261
0.000699937
0.00389481
0.000673312
0.00232748
0.006929
0.0198138
0.00718343
0
0
0.0171302
0.0142477
0.0128298
0.0167766
0
0
0
0
0
0
0
0.0942408
0.00882463
0.0339095
0.00426078
0.0033306
0
0
0
0.00942187
0
0
0
0
0
0
0
0.00680842
0.000142434
0.000240534
0.00014559
0.00028396
0.000233665
0.000214979
0.000402659
0.000360202
0.000308246
0.000246974
0.000218094
8.22615e-05
0.000236518
0.000292805
0.000249541
0.000315485
0.000235308
0.000301105
0.000230985
0.000287095
0.000264907
0.000276131
0.000248721
0.000228346
0.000329527
0.000282639
0.000241909
0.000304185
0.000575507
0.000656137
0.000484732
0.000520975
0.000803201
0.000539907
0.000589195
0.00068893
0.000456854
0.000394972
0.000490759
0.000555073
0.000223782
0.000169183
0.000280727
0.000366109
0.000181585
0.000128669
0.000137163
9.7723e-05
6.52139e-05
6.2413e-05
6.30478e-05
0.000126501
7.38127e-05
0.000218575
0.00021853
0.000163026
0.000266358
0.000367008
0.00164698
0.000464818
0.000316473
0.000339196
0.00141569
0.00103093
0.000600212
0.000309357
0.00209533
0.00117664
0.00166118
0.00667876
0.000243014
0.00019389
0.000231751
0.000201919
0.000170529
0.000180403
0.000199564
0.000160174
0.000187553
0.000166249
0.000209101
0.000188202
0.000131841
0.000137836
0.000121044
0.00011749
0.000152623
0.000148284
0.000110325
0.000154548
0.000107765
0.00015374
0.000179735
0.000163262
0.000159198
0
0
0
0
0
0
0
0
0.0100192
0
0
0
0
0
0
0
0.000779491
0
0
0
0
0.0719944
0.00339994
0.0337076
0.00246184
0.00154196
0.00152001
0.00551265
0.000152866
0.000772462
0.00126691
0.0008421
0.00202764
0.000747405
0.00059183
0.00128806
0.000770391
0.000323893
0.0006114
0.00065782
0.000596638
0.000710164
0.000507956
0.000473245
0.000368854
0.000284639
0.000484706
0.000293627
0.000480839
0.000660034
0.000400097
0.000416592
0.000413376
0.00029391
0.00040394
0.000338657
0.000208066
0.000278148
0.000266291
0.000198318
0.000203441
0.000150748
0.00019436
0.000166998
0.000191346
0.000174495
0.000179216
0.000185652
0.000165535
0.000194063
0.000201642
0.000162716
0.000181384
0.000155564
0.000158511
0.000183959
0.000261977
0.000149965
0.000188772
0
0
0.155508
0.000614601
0
0
0
0
0
0
0
0.00500568
0
0.00249846
0.0146056
0.0068576
0.00174116
0
0.0114746
0.0328709
0
0
0
0.003524
0
0.00306253
0.00419935
0
0
0
0
0
0
0
0.0257843
0.00892949
0
0
0
0
0
0
0.00953681
0
0
0
0
0
0
0
0
0
0
0
0
0
0
0
0
0
0
0
0
0
0
0
0
0
0
0
0
0
0
0
0
0
0
0
0
0
0
0
0.0205341
0
0
0
0
0
0
0
0
0
0
0
0
0
0
0
0
0
0
0
0
0
0
0
0
0
0
0
0
0
0.00480676
0
0
0
0
0.000181442
0.000157648
0.000161822
0.000142783
0.000169152
0.00016176
0.000184822
9.79064e-05
8.28654e-05
0.000155073
0.000125709
0.000145357
0.000145325
9.39483e-05
0.000282457
0.000551021
0.000521224
0.000507886
0.000488136
0.000686854
0.000271433
0.000223057
0.000825237
0.000253858
0.00134498
0.000333081
0.000386435
0.00112048
0.00179049
0
0
0
0.00774636
0.00701172
0.000994356
0.00608257
0
0
0.0137783
0
0
0
0
0
0
0
0
0.013674
0
0.0234741
0
0
0
0.00059958
0.00023337
0.000355474
0.000466694
0.000451704
0.000921407
0.000745918
0.000176269
0.000310137
0.000424862
0.000253708
0.000139603
9.88755e-05
5.98317e-05
0.000483819
0.000311738
0
0.00389354
0
0
0
0
0
0.000361943
0
0
0.00187154
0
0
0
0
0
0
0
0
0.000297851
0
0
0
0
0
0
0
0
0
0
0
0
0
0
0
0
0
0
0.00432083
0.0243045
0
0
0
0
0
0
0
0
0
0
0
0
0
0
0
0
0
0.00197948
0.00313802
0.00406395
0.00505662
0.0135221
0.128802
0
0
0
0
0.0398153
0
0
0
0
0
0
0
0
0
0
0.0131563
0.00680796
0.0182158
0
0
0
0
0.104259
0
0
0
0
0.00783273
0.00873125
0
0
0
0
0
0
0.000100837
0.000211188
0.000291844
0.000536583
0.000491709
0.000430463
0.000449274
0.000306382
0.000298139
0.000419909
0.000236305
0.000149841
0.000137558
0.000321562
0.000284827
0.00029476
0.000233561
0.000276349
0.0002501
0.000215393
0.000302702
0.000260298
0.000266984
0.000340953
0.000312155
0.000266538
0.000388617
0.000607097
0.000633618
0.000357547
0.000499116
0.00036651
0.000512632
0.000572341
0.000431189
0.000452677
0.000447509
0.000498717
0.000496755
0.000212591
0.000232468
0.000355705
0.000268966
0.000182952
0.000130737
9.75196e-05
0.000130412
4.95986e-05
6.38987e-05
0.000187778
0.000364829
0.000209109
0.000154778
0.000243866
0.000249347
0.000267106
0.000129508
0.00127518
0.000649489
0.000493228
0.000510697
0.000512308
0.000580573
0.000225003
0.000361503
0.001972
0.00211693
0.00231712
0.00513874
0.0357949
0.00601757
0.00485613
0.000177155
0.00024332
0.000238628
0.000159878
0.000133751
0.000167239
0.000217415
0.000140083
0.000139305
0.000133708
0.000168739
0.00012711
0.000104067
0.000144218
9.7514e-05
0.000124001
0.000103546
0.000148483
0.000107341
0.000139784
0.000138591
0.000139162
0.000145005
0.000120902
0.000145504
0.000131219
0
0
0
0
0
0.0071391
0.0147344
0
0
0
0
0.00573817
0.00635076
0
0
0
0
0
0.112585
0
0
0.014421
0.010673
0.00420483
0.00537754
0.000866829
0.00171293
0.00605541
0.00163314
0.0023168
0.00212732
0.00187228
0.000254997
0.00172548
0.000664153
0.000552
0.000842802
0.000612199
0.00037275
0.000478827
0.000536608
0.000442071
0.000347696
0.000391657
0.000408863
0.000491131
0.000413064
0.000343913
0.00053697
0.000224803
0.000347606
0.000318845
0.000275945
0.000337181
0.000282947
0.000184598
0.000271245
0.000225085
0.000265069
0.000191829
0.000193776
0.000155162
0.000193375
0.000155276
0.000160305
0.000137777
0.000187734
0.00014302
0.000164539
0.000158911
0.000195294
0.000129212
0.000195647
0.000101228
0.000147522
0.000164182
0.000183128
0.000186465
0
0
0.0166682
0
0
0
0
0.0363558
0
0.0205301
0
0
0
0.0262347
0.0208584
0.0118031
0.00713894
0.00489668
0.00243518
0
0
0
0
0
0
0
0
0
0
0
0
0
0
0
0
0.0223199
0
0
0
0.152318
0
0
0
0
0
0
0
0
0
0
0
0
0
0
0
0
0
0
0.220205
0
0
0
0
0
0.00378324
0.00118456
0.00480255
0
0
0
0
0
0
0
0
0
0
0
0
0
0
0
0
0
0
0
0
0
0
0
0
0
0
0
0
0
0
0
0
0
0
0
0
0
0
0
0.00580073
0
0
0
0.00122868
0
0
0.00721692
0.0189842
0
0.000187068
0.00016033
0.000178549
0.00020221
0.000192706
0.000189927
0.000197067
0.000101073
0.000136376
0.000130451
0.000138263
0.000165571
0.000188678
0.000199994
0.000119976
0.000177847
0.000224298
0.000183502
0.000183103
0.000170915
0.000305716
0.000200076
0.000178125
0.0002779
0.000208664
3.22991e-05
0.000475163
7.00369e-05
0.000164762
0.00183667
0.00128795
0.000481827
0.00104382
0
0
0.00224917
0.000917296
0.00715548
0
0
0.0245681
0.00153278
0
0
0
0
0
0
0
0
0.0189284
0
0
0
0
0
0
0.000178484
0.00013515
0.000184928
0.00037231
0.000193186
0.00077976
0.000277845
0.000223114
0.000184378
0.000237945
0.000102239
0.000119538
0.000192275
0
0
0
0
0
0
0.0142887
0.00755575
0
0
0.00629423
0
0
0
0
0
0
0.301287
0
0
0
0
0
0
0
0
0
0
0.0268356
0
0
0
0
0
0
0
0
0
0
0
0
0
0
0
0
0
0
0
0
0
0
0.0134124
0
0
0
0
0
0
0
0
0
0
0
0.000941453
0.00312245
0.00795519
0.0430328
0.0320665
0.645049
0.172818
0
0.0373983
0
0
0
0
0
0
0
0
0
0
0
0
0
0
0
0.0184107
0
0
0
0.0954633
0.00731654
0.0340437
0
0
0
0.00472783
0
0
0
0
0
0
0
0
0.000484358
0.000537758
0.000693912
0.000446461
0.00077608
0.000308767
0.000279382
0.000226825
0.000234816
0.000174037
0.00018183
0.00011712
0.000168202
0.000106406
0.000295131
0.000308755
0.000241755
0.000255391
0.000280812
0.000219544
0.000366175
0.000213118
0.00024933
0.000315132
0.000285258
0.000167496
0.000251179
0.000309037
0.000526385
0.000507063
0.000387468
0.00050137
0.000294264
0.000397234
0.000427022
0.000530173
0.000432274
0.0004521
0.000546615
0.00048864
0.000171156
0.000129333
0.000188978
0.000419099
0.000157343
0.000107703
8.48015e-05
0.000218402
0.000103662
0.000222068
0.000545802
0.000538477
0.000426674
0.000567066
0.000168557
0.00019564
0.000215667
0.000152223
7.05237e-05
0.00106602
0.000398412
0.000529037
0.000472099
0.000458226
0.000316506
0.00044137
0.00118539
0.00229864
0.00156878
0.00108995
0.00130385
0.00188229
0.000205238
0.000173669
0.000130834
0.000143952
0.000145121
0.000125829
0.000130718
0.000105946
0.000127645
0.00012915
7.55526e-05
0.000111597
0.000101194
0.000117611
0.000102058
0.000103729
0.000136869
0.000102964
0.000142965
0.000141218
0.000130927
0.000127673
0.000118207
0.000164401
0.000129714
0
0
0
0
0
0
0
0
0
0.00655635
0
0
0
0
0
0
0.015056
0
0
0
0
0.0226708
0.00531572
0.00431023
0.0238526
0.0039334
0.00198934
0.000573528
0.00174803
0.00223141
0.000922713
0.00146122
0.000333672
0.000845704
0.00063859
0.000583307
0.000638735
0.000593949
0.000222322
0.000396044
0.000266849
0.00031698
0.000357948
0.000365019
0.000201382
0.000481776
0.000335154
0.000344645
0.000343301
0.00011529
0.00019852
0.000239312
0.000303851
0.00017408
0.000194184
0.000156577
0.000173118
0.000216042
0.000140695
0.000168397
0.000117429
0.00015028
0.00013069
0.000136522
8.56751e-05
0.000164877
9.0103e-05
0.000184763
0.000135954
0.000108485
9.17435e-05
0.000152619
0.000166361
9.34994e-05
0.000137287
0.000138458
0.000133343
0.000166984
0
0
0
0
0
0
0
0
0
0
0
0
0
0
0
0
0
0.0100523
0
0
0.00563411
0
0
0
0.00944497
0
0
0
0
0
0.000694341
0
0
0
0
0
0
0
0
0
0
0
0
0
0
0
0.0115272
0.0157824
0.0145675
0
0
0
0
0.00490245
0
0
0.00624837
0
0
0
0
0.0171928
0
0.0117573
0
0
0
0
0
0
0
0
0
0
0
0
0
0
0
0
0
0
0
0
0
0
0
0
0
0
0
0
0
0
0
0
0
0
0
0
0
0
0
0
0
0
0
0
0
0
0
0
0
0
0
0
0
0.00355959
0
0
0
0.00931758
0
0
0.000160499
0.000186505
0.000160562
0.0002231
0.000216589
0.000227831
0.000201108
0.000208204
0.000216212
0.000199846
0.000140458
0.00014708
0.000165521
0.000167564
0.000233626
0.000191506
0.000175965
0.000155241
0.000125504
0.000106336
0.000186625
0.000196407
0.000192498
0.000167009
0.000300725
0.000441741
0.000373699
0.000204739
0.000131878
0.000550668
0.000526232
0.000374022
6.18064e-05
0.000525041
0.000730686
0.000892028
0.00226884
0.0030751
0.00199489
0.00156385
0.000619702
0
0
0.0356249
0.0253007
0
0.0190511
0
7.64597
0
0
9.03096
0
0
0
0
0.127889
0
0.0745025
0
0.157174
0.000184386
0.000431038
0.000247636
0.00046583
0.000908423
0.000137589
9.08003e-05