/*--------------------------------*- C++ -*----------------------------------*\
  =========                 |
  \\      /  F ield         | OpenFOAM: The Open Source CFD Toolbox
   \\    /   O peration     | Website:  https://openfoam.org
    \\  /    A nd           | Version:  8
     \\/     M anipulation  |
\*---------------------------------------------------------------------------*/
FoamFile
{
    version     2.0;
    format      ascii;
    class       volScalarField;
    location    "3000";
    object      H;
}
// * * * * * * * * * * * * * * * * * * * * * * * * * * * * * * * * * * * * * //

dimensions      [0 1 0 0 0 0 0];

internalField   nonuniform List<scalar> 
526318
(
0.873349
0.836536
0.909376
0.810851
0.90679
0.848201
0.869908
0.776313
0.841901
0.720703
0.692464
0.835661
0.775215
0.807886
0.761424
0.788157
0.777126
0.976469
0.881427
0.925101
0.9262
0.869584
0.633823
0.872134
0.754976
0.625708
0.898549
0.895947
0.891898
0.899147
0.934639
0.982282
0.961887
0.845325
0.832653
0.802377
0.808707
0.895821
0.842842
0.803535
0.861556
0.821003
0.482745
0.536501
0.439173
0.48985
0.465231
0.584767
0.767913
0.67529
0.763741
0.739018
0.703528
0.670185
0.160497
0.412362
0.404113
0.205278
0.918443
0.928184
0.9606
0.915631
0.856137
0.983961
0.968555
0.926263
0.924338
0.929496
0.837252
0.816419
0.936181
0.703347
0.76343
0.659941
0.613372
0.601562
0.693765
0.702803
0.609296
0.648593
0.732444
0.735681
0.687358
0.644398
0.679239
0.736366
0.735298
0.719538
0.668246
0.736647
0.643813
0.590305
0.588816
0.518819
0.517275
0.518272
0.519104
0.515803
0.511538
0.51157
0.000609557
2.17028e-06
0.000763227
0.0174147
0.0726122
0.000873637
0.421116
0.235452
0.550999
0.510886
0.550112
0.664646
0.894734
0.786928
0.887998
0.904828
0.973366
0.954384
0.984459
0.510795
0.509663
0.513481
0.517136
0.4692
0.510382
0.422385
0.462772
0.373013
0.423039
0.373078
0.371558
0.361683
0.338343
0.329216
0.356917
0.299608
0.352871
0.302654
0.322011
0.268279
0.273231
0.293865
0.323501
0.308014
0.26558
0.265746
0.282861
0.271056
0.267246
0.272684
0.285812
0.274021
0.279013
0.275708
0.277352
0.243804
0.275949
0.27553
0.243592
0.201185
0.276379
0.226751
0.280337
0.777196
0.863191
0.81639
0.797741
0.60805
0.670199
0.606027
0.60841
0.603659
0.606278
0.621284
0.601573
0.540116
0.508185
0.476211
0.418874
0.477992
0.518605
0.519394
0.519003
0.405203
0.45713
0.344691
0.353349
0.362569
0.353389
0.355431
0.360088
0.347249
0.350158
0.344489
0.3337
0.316991
0.338511
0.332486
0.305009
0.28143
0.310517
0.292597
0.285209
0.309078
0.294214
0.299093
0.262945
0.281072
0.31061
0.31199
0.768236
0.78569
0.794916
0.757915
0.760231
0.76261
0.761999
0.636675
0.663463
0.42306
0.403244
0.402457
0.525395
0.661085
0.533954
0.576707
0.567784
0.520056
0.498374
0.00426569
0.000239846
0.147661
0.344124
0.00027704
9.76159e-09
0.000995694
0.000255125
0.000396609
0.000963311
0.962644
0.957815
1.00662
1.00843
0.963606
0.960426
0.861727
0.953792
0.800171
0.742187
0.744578
0.735135
0.737746
0.750381
0.729543
0.725041
0.640761
0.707208
0.528708
0.578564
0.508703
0.523438
0.000984647
4.56871e-11
0.000147263
0.00101255
0.00186883
0.000983169
0.00032592
0.141118
0.523281
0.330714
0.573822
0.567849
0.681624
0.792816
0.899453
0.900403
0.941639
0.930442
0.994143
1.01381
0.488974
0.489678
0.450642
0.420482
0.31937
0.356366
0.283939
0.291915
0.283065
0.278337
0.266976
0.271361
0.199177
0.218796
0.257803
0.29671
0.344589
0.315039
0.278334
0.275195
0.209626
0.196552
0.249424
0.306179
0.228156
0.263909
0.265767
0.235086
0.229774
0.199827
0.194471
0.157892
0.155933
0.164236
0.15075
0.27948
0.307367
0.278118
0.315716
0.682791
0.641703
0.526495
0.620484
0.543417
0.587162
0.601448
0.591532
0.606434
0.604389
0.518162
0.428211
0.356906
0.342639
0.417064
0.359764
0.344634
0.457254
0.34674
0.39617
0.335209
0.334939
0.343558
0.33777
0.350633
0.34598
0.344836
0.344982
0.345032
0.344555
0.35454
0.348455
0.360393
0.35991
0.361833
0.339624
0.350775
0.338338
0.314584
0.312173
0.338156
0.366954
0.357407
0.337458
0.319961
0.344415
0.384255
0.38345
0.394184
0.354267
0.388311
0.406551
0.446022
0.395598
0.404394
0.428466
0.456955
0.577868
0.660871
0.577006
0.617969
0.710461
0.743241
0.676126
0.532403
0.631202
0.538647
0.560036
0.292176
0.242502
0.273455
0.25816
0.375385
0.494953
0.427001
0.493336
0.493265
0.512762
0.492368
0.000588985
0.000262663
0.0623978
0.000106762
0.150261
0.037062
0.000599399
0.00105735
0.00016709
0.00100962
0.000664765
0.00100889
0.000730728
0.000955715
0.000582482
0.000952703
1.00415
0.990872
1.02794
1.02232
0.998641
0.958558
0.883411
0.798462
0.735774
0.759665
0.721928
0.72731
0.708122
0.710446
0.684835
0.690666
0.638715
0.679398
0.60098
0.548221
0.491606
0.448839
0.000956665
0.00113892
0.000997779
0.000663073
0.000366789
0.000731205
0.000565433
0.000457404
0.00113812
0.00113828
0.000698617
0.00100984
0.000762556
0.00100942
0.00132383
0.00017911
0.000296421
0.000496969
0.000981725
0.000982077
9.5098e-05
0.00101326
0.053455
0.0313887
0.226707
0.0700821
0.429187
0.598001
0.602049
0.700812
0.919254
0.811592
0.938043
0.930452
0.941842
0.979594
0.999205
1.02085
0.409813
0.406918
0.36147
0.390421
0.327155
0.293516
0.283883
0.282108
0.277806
0.282701
0.235177
0.230288
0.179531
0.189461
0.243569
0.210885
0.187809
0.240386
0.233577
0.251689
0.159939
0.150025
0.17126
0.185034
0.188162
0.143285
0.148106
0.142087
0.147392
0.130709
0.12968
0.427293
0.404886
0.405986
0.400122
0.424948
0.533898
0.48571
0.467233
0.353571
0.391624
0.38545
0.380716
0.285439
0.221007
0.398459
0.518923
0.39512
0.407043
0.384781
0.469495
0.445777
0.523598
0.554845
0.475592
0.458864
0.491561
0.371292
0.341119
0.342805
0.340224
0.2568
0.312628
0.23655
0.18928
0.169751
0.28622
0.29023
0.337906
0.335331
0.338177
0.337773
0.337191
0.341024
0.337374
0.349128
0.341603
0.360223
0.353747
0.363317
0.362821
0.38587
0.371981
0.398432
0.398796
0.352271
0.333947
0.396538
0.382594
0.369231
0.382127
0.36636
0.361484
0.406577
0.385986
0.485842
0.496234
0.447782
0.490182
0.495959
0.464352
0.559463
0.528216
0.598455
0.616756
0.638726
0.555881
0.558477
0.56021
0.519948
0.489181
0.461461
0.557116
0.405743
0.390079
0.437771
0.458758
0.141409
0.185504
0.27632
0.387625
0.421465
0.458464
0.362228
0.320965
0.295652
0.231017
0.000965631
0.000592166
0.000641637
6.82683e-07
0.0712468
0.136485
0.000993891
0.000234006
0.00100979
0.000545241
0.00024476
0.000470015
0.000926911
0.000208943
0.000707447
0.000986846
0.000766556
0.000551352
0.000138864
0.000388285
0.00097475
0.00101
0.000134696
0.00100002
0.000977036
0.000381808
0.00118985
0.00096101
0.000980117
0.00118963
0.00118962
0.00118964
0.000852404
0.000999494
0.0009727
0.000201819
9.59135e-05
0.000989075
0.000892979
0.0009482
0.00100959
0.000881287
0.00102107
0.00101939
2.6935e-05
0.00094452
0.983439
1.01623
1.02729
1.01185
0.987945
0.926322
0.739547
0.819952
0.717012
0.700419
0.696708
0.68053
0.686717
0.675937
0.674917
0.673939
0.617487
0.590564
0.492509
0.53148
0.38756
0.428921
0.000851104
0.000624444
0.000948563
0.000967574
0.000969466
0.000982262
0.000986514
0.000879074
0.000998153
0.000716505
0.000677989
0.000965569
0.000971308
0.000759356
0.000380116
0.000991326
0.000690401
0.00100737
0.000803925
0.000839513
0.000369052
0.000975289
0.000889611
0.000439439
0.000917861
0.000891018
0.00112196
0.000278336
1.04498e-05
0.000323777
0.0958271
0.000184187
0.112617
0.112613
0.409678
0.240937
0.615882
0.575748
0.647073
0.739466
0.85566
0.928594
0.950224
0.933519
0.9625
1.00512
0.986756
0.991059
0.00101
0.000734461
0.000886173
0.00026961
0.00093231
0.000922867
0.00081396
0.000929148
0.000890554
0.000725685
0.000975785
0.00092383
0.000794854
5.91556e-07
0.000716784
0.00101
0.000170373
0.390149
0.387757
0.389201
0.354651
0.275867
0.309418
0.234836
0.224816
0.191952
0.183976
0.142867
0.139879
0.173125
0.168545
0.127699
0.160022
0.156082
0.202914
0.192063
0.187087
0.108082
0.0807417
0.0791356
0.123133
0.13327
0.133281
0.108288
0.114327
0.0734337
0.0598047
0.0251906
0.0318342
0.625977
0.599719
0.631019
0.643407
0.598205
0.553904
0.720168
0.740436
0.801696
0.812942
0.361981
0.399402
0.453273
0.537042
0.363996
0.308184
0.342178
0.341005
0.179849
0.240582
0.282942
0.169015
0.385138
0.385214
0.385645
0.383497
0.405951
0.383807
0.397051
0.415581
0.291298
0.288035
0.187193
0.27135
0.263179
0.223599
0.174905
0.198341
0.13669
0.155038
0.134165
0.221904
0.285373
0.218446
0.28402
0.335365
0.335297
0.337012
0.336436
0.34044
0.358629
0.354
0.373912
0.36674
0.385114
0.382774
0.402996
0.40279
0.40063
0.404859
0.414337
0.407102
0.448717
0.416017
0.382484
0.383611
0.447073
0.417829
0.426872
0.466092
0.505413
0.508741
0.503667
0.510027
0.540903
0.59278
0.653928
0.674856
0.680673
0.656796
0.800725
0.743495
0.869141
0.908619
0.9011
0.936238
0.990976
0.85998
0.94429
0.965982
1.04441
1.09402
1.11561
1.14111
1.17018
1.11124
1.16962
1.12505
1.20925
1.20772
1.25709
1.22382
1.2849
1.31519
1.30474
1.25401
1.31713
1.33934
1.30626
1.30463
1.36694
1.34561
1.37795
1.31761
1.31782
1.38018
1.34863
1.30264
1.3041
1.33559
1.36442
0.359405
0.327439
0.492722
0.489084
0.462596
0.455783
0.458177
0.220467
0.354643
0.0576885
0.0839925
0.180256
0.172511
0.0526762
0.12576
0.11916
0.289815
0.193519
0.191129
0.102088
0.100271
0.106473
0.12816
0.000349184
0.00106101
0.00100707
9.79447e-05
0.000848049
3.24071e-05
0.00101
0.000966006
0.000995857
0.000692522
2.22752e-05
0.00129373
0.000842141
0.000928041
0.000844807
0.000821634
0.00020552
0.00069126
0.000943677
0.000831092
0.00112438
0.000769818
0.00012748
0.000146108
0.000949
0.000255762
1.37004e-05
1.61879e-05
0.000990101
0.000818938
0.00100231
0.000805417
0.000911134
0.000410555
0.000489319
0.000840012
0.000762255
0.000945839
0.000968887
0.00101266
0.000993239
0.000992705
0.00131559
0.000920443
0.00118656
0.000935296
0.00118558
0.00118526
0.00118173
0.00097569
0.0011861
0.00118574
0.000311983
0.000850188
0.00103058
0.000888062
0.000917798
0.000377029
0.000991017
0.000960908
0.00100744
0.000997061
0.000136942
0.000997892
0.000950381
0.000921886
0.000915695
0.000919934
0.000886554
0.00130773
0.000862864
0.000968314
0.977625
0.97237
0.949294
0.931767
0.872667
0.932444
0.760998
0.673615
0.685133
0.682113
0.681115
0.677061
0.6151
0.625542
0.469257
0.430188
0.387263
0.564957
0.559621
0.510505
0.510259
0.510413
0.000656526
0.000461298
0.00126657
0.00123249
0.000962471
0.000414864
0.000621317
0.000410365
0.00113099
0.000993255
0.000161511
0.00100893
0.000972717
0.000941946
0.000297472
0.000985833
0.000726155
0.00091818
0.00021426
0.00071546
0.000653732
0.000951565
0.00114849
0.00114885
0.000263284
7.98713e-06
0.000387817
0.111464
0.240277
0.114412
0.405915
0.574713
0.604398
0.637371
0.719099
0.827824
0.887453
0.873966
0.91585
0.85881
0.912067
0.941322
0.907209
0.903342
0.00125056
0.000854259
0.00101564
0.000849207
0.000993345
0.00120546
0.000764016
0.000796832
0.00120542
0.000920789
0.00100237
0.000969529
0.000778625
1.14836e-05
0.00081137
0.000727728
0.000776991
0.000656439
0.00098774
0.000236686
0.000248866
0.000440041
0.00096459
0.000795867
0.00127031
0.000453903
0.363625
0.361508
0.283635
0.298915
0.177688
0.200243
0.136276
0.138181
0.13505
0.138117
0.109098
0.112168
0.0841088
0.0835353
0.0604103
0.10009
0.177959
0.143242
0.174511
0.180919
0.00133608
0.0220506
0.059989
0.0425828
0.0509769
0.0536687
0.00180125
0.000433244
0.000998259
0.000299453
0.00215428
0.0015413
0.84899
0.846969
0.673087
0.596508
0.583842
0.566617
0.844692
0.761918
1.00599
1.08278
0.97477
0.903657
1.09849
1.07517
1.14115
1.19584
1.2226
1.22331
1.24895
1.22385
1.27942
1.30346
1.30033
1.30084
1.31699
1.30281
1.30182
1.34705
1.29533
1.29039
0.411291
0.335166
0.481786
0.555104
0.341903
0.290939
0.341031
0.335743
0.165885
0.220123
0.054735
0.220991
0.109573
0.383622
0.325324
0.384284
0.37794
0.38447
0.279685
0.182873
0.100615
0.0888617
0.101308
0.140727
0.0675667
0.052986
0.000713929
0.0646839
0.14889
0.141246
0.0631024
0.163487
0.23047
0.176578
0.28326
0.229356
0.27176
0.32668
0.365847
0.340491
0.37519
0.375441
0.382385
0.375876
0.410852
0.418145
0.418679
0.433617
0.436047
0.438695
0.46887
0.486042
0.474131
0.464953
0.472728
0.470397
0.482049
0.499106
0.54487
0.540308
0.509787
0.542439
0.537328
0.570421
0.596271
0.663514
0.693555
0.691435
0.705831
0.773519
0.85558
0.931643
0.941631
1.06617
0.943428
0.994051
1.14536
1.16795
1.16898
1.20618
1.2553
1.30299
1.31464
1.31494
1.34405
1.36848
1.39777
1.39683
1.39658
1.39717
1.39724
1.38028
1.3149
1.37843
1.34818
1.30402
1.30219
1.33412
1.36407
1.37471
1.30428
1.3644
1.32346
0.145801
0.143938
0.208088
0.283403
0.178122
0.245062
0.378973
0.316758
0.344815
0.182842
0.0817883
0.0491388
0.0484718
0.147611
0.140281
8.74874e-09
0.000625921
0.10061
0.000962847
0.0994924
0.0968775
0.10789
0.0984003
0.114303
0.13346
0.000871197
0.000837817
0.000904459
0.00079615
0.0012778
0.00127758
0.00086849
0.000172666
0.000849002
0.00129324
0.000981197
0.000915237
0.000478021
0.000315336
0.000586118
0.00101
0.000657088
0.00112393
0.000934557
0.000984534
0.000975222
0.000660221
0.000998234
0.000701989
0.00100779
0.000868975
0.00105327
0.000956434
0.0008534
0.000744326
0.00116906
0.000104213
0.00099613
0.000976554
0.000283039
0.000822538
0.000544652
0.000936558
0.000765323
0.000967384
0.000960691
0.000928765
0.000978339
0.000943996
0.000974885
0.00092222
0.000268639
0.00147196
0.000946299
0.00106207
0.000893109
0.00100962
0.000641972
0.000367709
0.000916152
0.000960434
0.000955347
0.000892128
0.000751582
0.000479733
0.89132
0.893109
0.877613
0.872019
0.801393
0.88357
0.687141
0.739449
0.631189
0.638887
0.587105
0.571213
0.507981
0.510389
0.4249
0.321159
0.299702
0.467855
0.51129
0.511799
0.510495
0.510868
0.00128668
0.000993107
0.00129275
0.000299633
0.000973634
0.000960432
0.000989324
0.000986754
0.000972432
0.000813892
0.000135327
0.000443538
0.00093376
0.000975757
0.00060297
0.00100999
0.00098232
3.53596e-05
0.000985985
0.000873381
0.000276721
0.000765538
0.000583829
0.00102791
0.000321117
3.03797e-06
0.0752734
0.10998
0.306114
0.135013
0.447581
0.575072
0.557494
0.654288
0.832736
0.733243
0.815201
0.79518
0.808648
0.832043
0.885297
0.886455
0.885961
0.861627
0.000769413
0.000922585
0.000573493
0.000958878
0.000712787
0.000933944
0.000627141
0.000311966
0.000811709
0.000879841
0.000957505
0.000915064
0.00102761
0.000855998
0.000972387
0.000847235
0.00096514
0.000987798
0.000907153
0.00107252
0.000726849
0.00107232
0.000904093
0.000901385
0.00101
0.000860782
0.000668131
0.000529485
0.000136748
0.000756032
0.000938482
0.237957
0.236017
0.201213
0.179074
0.136057
0.158017
0.126629
0.12347
0.280427
0.223927
0.201491
0.0532513
0.0638423
0.000268382
0.000713913
0.0633381
0.0620461
0.0544947
0.0929399
0.157645
0.103453
0.135952
0.130999
0.0213548
0.00169832
0.0154191
0.035881
0.000589834
0.000948641
1.30661e-05
0.00052455
0.000818517
0.000689738
0.000594218
0.000903951
1.42416
1.42862
1.46019
1.4346
1.47516
1.46873
1.49104
1.47946
1.54012
1.52453
1.48639
1.54441
1.51209
1.56245
1.39281
1.34229
1.36358
1.41226
1.39539
1.36333
1.36529
1.41922
1.42338
1.39888
1.38137
1.43269
1.4181
1.41981
1.45123
1.30405
1.30295
1.30253
1.30073
1.32041
1.34254
0.89526
0.837859
0.73597
0.64085
0.552924
0.631869
0.828918
0.816663
1.05303
1.07788
0.960659
1.04329
1.08171
1.13493
1.17906
1.22356
1.22005
1.21928
1.21953
1.24782
1.2599
1.28866
1.27512
1.27901
1.2801
1.28951
1.26749
1.2699
0.463126
0.384772
0.334815
0.32318
0.3757
0.552959
0.534481
0.271413
0.31713
0.192534
0.119883
1.40816
1.42701
1.44652
1.45584
1.45671
1.46759
1.47338
1.49861
1.48162
1.503
1.49676
1.55257
1.57083
1.60045
1.5977
1.60121
1.61789
1.63909
0.101429
0.0469593
0.0484915
0.309668
0.196478
0.367004
0.273382
0.18633
0.090044
0.0878049
0.0888058
0.0878392
8.35708e-05
0.0144425
0.00032212
0.000760165
3.47959e-13
6.10001e-120
0.156566
0.0867493
1.96052e-19
0.178334
0.178005
0.177668
0.233403
0.192353
0.317144
0.262227
0.351848
0.318746
0.348361
0.378237
0.397909
0.422855
0.441595
0.447433
0.451763
0.445847
0.504646
0.491321
0.479638
0.486151
0.534397
0.512889
0.58347
0.542064
0.525506
0.569736
0.609942
0.59774
0.619194
0.660633
0.661807
0.60567
0.710212
0.743532
0.716978
0.705517
0.787484
0.873203
0.942097
1.0091
0.959941
0.972554
1.1025
1.1622
1.20545
1.18548
1.25193
1.27995
1.32013
1.33955
1.3327
1.34951
1.40528
1.39016
1.39761
1.411
1.40188
1.39637
1.39677
1.40003
1.39755
1.39813
1.39633
0.132815
0.127099
0.150788
0.071159
0.0873122
0.109438
0.0438053
0.189561
0.0891391
0.0233447
0.0432614
0.0249571
0.000666774
0.024884
0.0490482
0.000268376
3.35859e-06
1.73479e-09
0.000442337
0.0966641
0.000793717
0.00034546
0.000492275
0.000607735
0.000900462
0.000164142
0.000934225
0.000949665
0.00114027
0.00114013
0.00127732
0.00069232
0.00109797
0.000980354
0.000776109
0.00096702
0.000896738
0.000998449
0.00026155
0.000888291
0.00100984
0.000894905
0.00113989
0.000651859
0.000398457
0.000668916
0.000974692
0.000270015
0.000740386
2.218e-07
3.50997e-05
0.00239015
0.000308883
0.00101
0.000694792
0.000545923
0.000997667
0.00042761
0.00100993
0.000972649
0.000977525
0.000963111
0.000999516
0.00066545
0.00111118
0.000966718
0.000739658
0.00112018
0.000810563
0.000983136
0.00089779
0.000955844
0.000631827
0.000258775
0.000798511
0.000964465
0.000941166
0.000838222
0.0010287
0.000342247
0.000854122
0.000692506
0.000978177
0.000925692
0.000935309
0.000929054
0.00091709
0.000695524
0.000567275
0.00176081
0.000252831
0.000674617
0.000835469
0.000990199
0.00172576
1.59342
1.55938
1.53886
1.63442
1.66992
1.66348
0.859092
0.878202
0.86613
0.856926
0.789018
0.830409
0.68922
0.596702
0.526613
0.538178
0.51018
0.512107
0.510939
0.509967
0.386898
0.305679
0.398155
0.474345
0.475826
0.00093523
0.000811279
0.000875173
0.000890082
0.00102388
0.000979589
0.000962404
0.000493094
0.000935542
0.000565365
0.00100943
0.000990819
0.000948915
0.0739228
0.108139
0.135433
0.00100998
0.000498781
0.000128694
0.000927014
4.59314e-06
0.000270522
0.000921556
0.000810137
0.000580163
0.000783296
0.000220353
0.279161
0.419121
0.531712
0.533057
0.844041
0.762653
0.784382
0.571651
0.651896
0.751702
0.805262
0.802114
0.795744
0.802733
0.850289
0.832289
0.000760179
0.00110298
0.000626177
0.000982796
0.000843947
0.000871893
0.00100904
0.000845157
0.00074453
0.000835941
0.000817811
0.000932446
0.000763197
0.000998295
0.00101496
0.000963932
0.000929381
0.00106245
0.000962673
0.00106255
0.000910187
0.000958841
0.000803256
0.00109273
0.000999098
0.000887308
0.000426665
0.000801713
0.000962731
0.000991105
0.00108136
0.000984843
0.000791152
0.00100956
0.000818042
0.00101
0.001009
0.236309
0.270787
0.260873
0.201532
0.200825
0.17278
0.193552
0.0612338
0.0939592
0.00212873
0.00215042
0.208476
0.195458
0.000407844
0.000910998
0.000638023
0.00104622
0.0131874
0.00100169
0.0320682
0.000982716
0.0965394
0.051355
0.103837
0.113822
2.09198e-05
0.000680105
0.000702988
0.000431438
0.000682806
0.000551523
0.000693939
9.93495e-05
0.000358069
0.000994303
8.71897e-06
0.000979051
1.42595
1.43858
1.45788
1.48359
1.48322
1.4863
1.52218
1.51019
1.35598
1.35474
1.33953
1.35941
1.38978
1.35459
1.39848
1.37588
1.2892
1.27638
1.27349
1.30782
1.3374
1.31002
0.899629
0.82432
0.715049
0.80759
0.657701
0.565643
0.821937
0.8176
1.05912
1.06111
1.07845
0.972536
1.05218
1.16345
1.11034
1.0538
1.09392
1.19753
1.20822
1.19917
1.20547
1.2139
1.23928
1.2681
1.25315
1.26799
1.26206
1.26617
1.26223
1.26488
1.26476
0.313082
0.30696
0.447909
0.532081
0.314326
0.385846
0.545106
0.566631
0.301873
0.242891
0.149997
0.221278
1.44081
1.3992
1.41691
1.46579
1.45915
1.46202
1.47679
1.49299
1.51778
1.5265
1.52795
1.53387
1.55452
1.59798
1.57959
1.59834
1.61625
1.66137
1.63976
1.46997
1.47852
1.49641
1.66771
1.66514
1.66205
0.0466955
0.0487128
0.0490263
0.0201949
0.11779
0.129391
0.000270986
0.000317567
0.00865103
0.000883852
0.000863501
0.000571094
0.000695841
0.00135376
0.000580553
0.00135373
0.000969713
4.95667e-06
0.0306706
3.08391e-10
0.00175441
0.107609
0.182577
0.0964286
0.253118
0.280422
0.213763
0.252572
0.314737
0.282325
0.40721
0.348694
0.422441
0.432682
0.441522
0.429865
0.482523
0.523285
0.56305
0.561658
0.566105
0.552058
0.576317
0.558389
0.605714
0.609458
0.638235
0.634026
0.617153
0.613789
0.735358
0.776065
0.682444
0.740944
0.791199
0.754223
0.850699
0.901383
0.996106
1.03475
1.0125
1.10214
1.15983
1.25813
1.24435
1.30291
1.27797
1.37177
1.37846
1.37127
1.39854
1.42619
1.42772
1.48205
1.44608
1.47384
1.43576
1.43546
1.47277
1.40289
1.44142
1.40321
0.000361873
0.000409788
0.000899768
9.30731e-05
0.0649517
0.0474901
0.0414426
0.0256606
0.0453424
0.000284406
0.000911086
0.00054765
0.000133722
0.000744302
0.000527964
0.000379218
0.000897082
6.54581e-05
0.000302915
2.9051e-05
0.000629195
0.000260498
5.50518e-07
0.000291174
0.000978557
0.000524155
0.000999883
0.00018825
0.00114011
0.00114008
0.000976452
0.000995782
0.000992745
3.82214e-05
0.00101
0.000912008
0.0010004
0.000112849
0.00044385
0.000919656
0.000654987
0.000297927
0.00150929
0.000109875
0.000984734
7.34454e-05
0.0009581
0.000364482
0.000994172
2.55198e-05
0.000992778
0.00218798
0.000975289
0.000134455
0.00095674
0.00130853
0.00111429
0.000471034
0.00100983
0.000979813
0.000465046
0.000983408
0.000969573
0.000835887
0.00111114
0.00111112
0.00093398
0.000964306
0.00111084
0.00111099
0.000955402
0.000829624
0.000711032
0.000919589
0.0012499
0.000120339
0.00124957
0.000951542
0.00098702
0.000966821
0.000953898
0.00100415
0.00104937
0.00104918
0.00088325
0.000805878
0.000827454
1.24245e-05
9.12481e-06
0
0.000993211
0.000799517
0.000430028
0.000896912
0.00111418
0.000923733
0.00100958
0.00100998
0.000981969
0.000998553
0.000946811
0.000914726
0.00101
1.53454
1.57009
1.57288
1.56192
1.60099
1.70408
1.68421
1.68656
1.70725
1.65044
0.771664
0.775766
0.710204
0.706222
0.65899
0.697932
0.604993
0.560794
0.547087
0.508949
0.483973
0.48916
0.394854
0.408626
0.276056
0.316204
0.318831
0.000529692
0.000965684
0.000913493
0.00101
0.00096689
0.000929497
0.000746302
0.107615
0.248096
0.111529
0.000919443
0.000194133
0.000963105
0.000947925
0.000306461
0.000512551
0.00101
0.000959527
0.000958399
0.00102281
0.000849804
0.000989274
0.000944045
0.000847483
0.00025022
0.64172
0.636948
0.705436
0.39055
0.531327
0.529887
0.567015
0.69408
0.755378
0.721534
0.629449
0.711423
0.72938
0.74884
0.673688
0.70157
0.000957717
0.00099492
0.00110302
0.0010663
0.000447856
0.000938123
0.00106763
0.00123811
0.000951426
0.000999963
0.000160682
0.00179753
0.00098614
0.000936631
0.000510229
0.00280147
0.00280421
0.00280138
0.000349077
0.00094281
0.000827964
0.00106233
0.000891472
0.000984563
0.000893479
0.00103357
0
0
0
0.000945975
0.000905119
0.000967225
0.00100048
0.000836671
0.000428168
0.00085326
0.000930546
0.000997229
0.0010054
0.000330773
0.000914357
0.000958008
0.000969942
0.000686934
0.000956193
0.255627
0.266196
0.274392
0.140919
0.160866
0.12568
0.12257
0.0482277
0.0396814
0.000803544
0.000513517
0.00117723
0.00217752
0.0546743
0.050946
0.000406739
0.000519153
0.000242686
0.000584634
0.000393797
0.000716811
0.000852916
0.0173001
0.0919487
0.0582514
0.129081
0.0807989
0.000105983
0.000890848
0.000713329
0.00124876
0.000312228
0.000747328
0.000718664
0.000346646
0.00101
0.000942721
0.000712478
0.00136305
1.42642
1.38201
1.45967
1.42413
1.4257
1.48781
1.45551
1.49683
1.53183
1.54928
1.53049
1.46352
1.54442
1.48097
1.32198
1.32335
1.31303
1.32448
1.3392
1.34771
1.35094
1.35494
1.26327
1.26279
1.28886
1.27158
1.30276
1.30985
0.903442
0.826159
0.739939
0.820686
0.617888
0.709128
0.819536
0.826797
1.04945
1.05166
1.05485
0.979624
1.14125
1.18439
1.09619
1.05081
1.19197
1.1938
1.21015
1.19428
1.22717
1.25591
1.26158
1.25991
1.26384
1.26016
1.26126
1.26529
1.26835
1.25806
0.304209
0.298242
0.468122
0.541344
0.437409
0.36527
0.604176
0.540759
0.281232
0.298432
0.274452
0.1791
1.44032
1.47553
1.45866
1.48285
1.50188
1.49021
1.52396
1.53942
1.5132
1.52844
1.51679
1.52745
1.53389
1.55874
1.58057
1.59705
1.59861
1.64947
1.62448
1.67305
1.68233
1.55098
1.566
1.68005
1.68813
0.000421286
0.000694021
0.000698454
0.000776187
0.00052603
9.99349e-05
0.000219821
0.000225352
0.00102948
1.02871e-05
0.000927799
0.000258474
0.000580749
0.000657476
5.07035e-06
0.000780461
0.00175632
0.000581818
0.000905046
8.60854e-14
0.000570923
0.034462
0.177892
0.0846195
0.274342
0.270923
0.23763
0.18692
0.30632
0.355069
0.407998
0.392471
0.415836
0.407039
0.530735
0.475995
0.582771
0.567417
0.596303
0.594609
0.578738
0.630586
0.672767
0.64279
0.632953
0.663294
0.709671
0.696488
0.677071
0.720784
0.806001
0.807542
0.796852
0.822261
0.94727
0.862563
1.03292
1.05828
1.05944
1.12675
1.20397
1.27993
1.28719
1.30166
1.34595
1.39689
1.42767
1.43412
1.4708
1.43803
1.49225
1.5111
1.50716
1.51054
1.50722
1.50972
1.47787
1.5063
1.47646
0.00084656
9.77008e-05
0.00548108
0.00102596
0.0007713
0.000900042
0.00071986
0.000849522
0.000806702
0.000472575
0.00081887
0.00124662
0.000313892
0.00124675
0.00124635
0.00124621
0.00124713
0.000996318
0.00124703
0.00527445
0.000990121
0.000638589
0.000184916
0.00223408
0.000293326
0.00223425
0.00223459
0.000472732
0.000489002
0.00100217
0.000993637
0.000687571
0.000912868
0.000520157
0.00109571
0.00104481
0.000786132
0.000959982
0.00100986
0.000887496
0.000962023
0.000959601
0.00151282
0.000995167
0.000146754
1.36216e-05
0.000607696
0.00096357
0.000988249
0.000479144
0.000826696
0.000975135
0.00100941
0.00031059
0.000106872
0.000987756
0.00100992
0.000817418
0.000560979
0.000891856
0.00101
0.000799183
0.000974568
0.000279366
0.000904827
0.00095865
0.000967102
0.00101
0.000954704
0.000876282
0.000886752
0.00100949
0.00097168
0.000773375
0.000984106
0.000952799
0.000907031
0.00098992
0.000934564
0.000964099
0.000974876
0.000974485
0.00130442
0.000980219
0.000905098
0.000650921
0
0
0
0
0
0
0
0
0
0
0
0
0
0
0
0
0
0
0
0.00099334
0.000901468
0.000937661
0.000812305
0.000975535
0.000436148
0.000949268
0.00110673
0.000325168
0.000811332
0.000317982
0.000878445
1.73078
1.72476
1.73656
1.73379
1.74228
1.74108
1.58595
1.59002
1.65547
1.61645
1.70861
1.7334
1.70532
1.58793
1.51596
0.648872
0.641421
0.645495
0.635943
0.640684
0.572877
0.62404
0.405569
0.464189
0.328679
0.328537
0.274286
0.275444
0.275524
4.53839e-05
0.000925784
0.000502238
0.00130331
0.0830519
0.276974
0.105811
0.000986747
0.000860155
0.0606724
1.48416e-05
0.000976146
0.000959038
0.00096956
0.000979349
0.000717645
0.000362926
0.000979992
0.00101513
0.000200234
0.0010182
0.000932938
0.0004632
0.000727287
0.648758
0.648778
0.645775
0.650121
0.643318
0.35617
0.47618
0.416468
0.536274
0.599818
0.61534
0.552976
0.639642
0.585771
0.587472
0.568388
0.000954778
0.00115068
0.00063832
0.000970576
0.000973219
0.000935143
0.000935937
0.00101893
9.93551e-05
0.00073766
0.00101804
0.000536212
6.92933e-05
0.000527482
0.000831078
0.000616055
0.000763669
0.000919235
0.000865903
0.00101596
0.000696151
0.000929209
0.000740767
0.000726241
0.000621516
0.00100951
0.000739043
0.000913758
0.000354107
2.15212e-05
0
0
0
0
0
0.000969416
0.000981815
0.000907267
0.00118239
0.00106879
0.000598095
0.000835369
0.000524804
0.000950777
0.00100911
0.000964926
0.000965413
0.000722883
0.000993559
0.000787048
0.000894806
0
0
0
0
0
0
0.252562
0.181304
0.168993
0.0977044
0.0928489
0.00920542
0.000404676
0.000843185
0.000223308
0.00049693
0.00218159
0.000837768
0.000375808
0.000550644
0.00033854
0.000766466
0.000794763
0.000795758
0.000905726
0.000971356
0.000996294
0.0554951
0.124012
0.0387099
0.000489047
0.000714703
0.000999567
0.000519856
0.00778162
0.00027789
0.000679369
1.31742e-05
0.000467482
0.00182915
0.00182567
0.000734449
0.000959699
0.000281529
0.000798649
0.00100972
0.000818552
1.40218
1.38122
1.38912
1.39336
1.40544
1.40993
1.4179
1.47165
1.45241
1.47413
1.56988
1.51301
1.45685
1.31155
1.31057
1.33719
1.32494
1.34841
1.35191
1.37395
1.36134
1.25953
1.27132
1.29079
1.27553
1.29002
1.29967
0.941544
0.862338
0.78502
0.820998
0.770618
0.677522
0.857479
0.820831
1.055
1.05544
1.01597
1.06005
1.14883
1.19456
1.05854
1.10322
1.19604
1.19627
1.22025
1.19772
1.23956
1.25982
1.25485
1.25837
1.26119
1.25559
1.26245
1.26043
1.25646
1.26071
0.299263
0.357942
0.542254
0.525607
0.43921
0.526747
0.539787
0.622485
0.292321
0.293031
0.280703
0.197564
0.0353246
0.0884407
0.155666
1.50812
1.51252
1.53657
1.52945
1.55652
1.56482
1.56493
1.56867
1.60335
1.58736
1.59645
1.56341
1.59518
1.60342
1.63004
1.64508
1.65849
1.65874
1.70718
1.71043
1.7334
1.71008
1.6262
1.63053
1.74108
1.74319
0.00016622
0.000334169
0.00101
8.81929e-06
0.000729054
0.00125097
0.00125084
0.000825652
0.000305007
0.000153725
0.000188994
0.00185448
0.00131937
0.000365625
0.000822227
0.000835447
0.00100232
0.000626775
0.0221471
0.000862055
9.05119e-05
0.0728062
0.116325
0.131028
0.11557
0.220488
0.294229
0.167269
0.394061
0.325885
0.397776
0.402333
0.492279
0.431138
0.562804
0.588035
0.583143
0.591868
0.714506
0.676802
0.644182
0.698631
0.723084
0.71627
0.713517
0.703277
0.715719
0.718252
0.793507
0.845015
0.882343
0.833793
0.87982
0.902309
1.04423
0.982605
1.07468
1.0585
1.14314
1.21485
1.30322
1.29949
1.33289
1.37556
1.44953
1.43383
1.46059
1.46181
1.48945
1.50257
1.51847
1.51399
1.52188
1.52186
1.51126
1.52058
1.50895
1.50718
0.000965166
0.000938351
0.0010505
0.000738977
0.000960304
0.000657298
0.000566723
0.00118822
0.000773101
0.00124453
0.000318475
0.000860825
0.000295436
0.00124554
0.0012479
0.00124629
0.00124669
0.00124716
0.00124586
0.000330688
0.000371652
0.00100886
0.000717288
0.000938422
0.000788581
0.00100179
0.000897689
0.000997704
0.000180038
0.000954666
0.000624923
0.00101
0.000209386
0.000751231
0.00100863
0.00104419
0.000702363
0.000881619
0.000912088
0.00374912
7.587e-05
0.000210438
0.00024578
0.00100978
0.000913563
6.55138e-09
0.000991232
0.00100983
0.000283839
0.000848872
0.00100647
0.000131712
0.00100976
0.000959372
0.00018987
0.000986414
0.000975827
0.000960527
0.00341967
0.000980885
0.000759889
0.00098777
0.00084527
0.000782055
0.00111991
0.00111979
0.00111968
0.000896489
0.000943214
0.000888864
0.000973731
0.000935172
0.000927075
0.000961192
0.000874935
0.000897996
0.000947049
0.000951887
0.000925848
1.67713e-05
0.000881191
0.00092376
0.0003855
0.000414352
0.00098456
0
0
0
0
0
0
0
0
0
0
0
0
0
0
0
0
0
0
0
0.000977221
0.000945356
0.00101128
0.000933183
0.000959194
0.000827236