/*--------------------------------*- C++ -*----------------------------------*\
  =========                 |
  \\      /  F ield         | OpenFOAM: The Open Source CFD Toolbox
   \\    /   O peration     | Website:  https://openfoam.org
    \\  /    A nd           | Version:  8
     \\/     M anipulation  |
\*---------------------------------------------------------------------------*/
FoamFile
{
    version     2.0;
    format      ascii;
    class       volScalarField;
    location    "3000";
    object      nut;
}
// * * * * * * * * * * * * * * * * * * * * * * * * * * * * * * * * * * * * * //

dimensions      [0 2 -1 0 0 0 0];

internalField   nonuniform List<scalar> 
526318
(
0.000123719
0.000170286
0.000179105
0.000264636
0.000260488
5.96815e-05
0.000102562
8.24974e-05
0.000189852
8.23523e-05
0.000117757
0.000206659
9.7699e-05
0.00015952
0.000138179
0.00011825
0.000139434
0.000100575
6.29206e-05
2.74497e-05
0.000198161
0.000270019
7.50388e-05
0.000194428
0.000212818
0.000155229
0.000150623
8.47863e-05
0.000223263
0.000131975
9.91049e-05
0.000161298
9.55213e-05
3.58363e-05
0.000237914
0.00038487
0.000285136
0.000160287
0.000234533
0.000253268
0.000254862
0.000126377
0.000101483
0.000173711
0.000218588
0.000143962
0.000165248
6.66635e-05
8.26176e-05
0.000194277
0.000195344
0.000163118
0.000149825
0.000127063
0.000161931
0.000160058
0.000197323
0.000270418
0.000188012
0.000195159
0.000116307
0.000142269
0.000209917
5.62513e-05
0.000294512
5.40571e-05
0.000308815
5.01369e-05
0.000249358
0.000192671
0.000264285
0.000339425
6.53289e-05
0.000116203
8.64686e-05
0.000164182
0.000163005
0.000201512
6.45846e-05
8.86293e-05
4.843e-05
0.000125794
7.17091e-05
0.000164719
7.35596e-05
0.000142086
0.000254546
0.000119558
0.000159509
4.63214e-05
0.000147116
2.23554e-05
0.000255228
0.000158155
0.000187107
0.000108706
7.65616e-05
8.01693e-05
9.40475e-05
3.79074e-05
0
0
0
1.2572e-05
4.23727e-05
0
0.000192625
0.000108843
0.000103923
9.00497e-05
2.39858e-05
0.000151212
2.48941e-05
0.00018372
0.000135061
0.00017224
0.000138954
2.90143e-05
0.000222418
0.000172375
9.1429e-05
8.12647e-05
0.000162723
0.000126542
9.12427e-05
7.84973e-05
0.0001297
0.000115857
9.80315e-05
0.00010473
0.00012042
0.000110579
0.000117375
0.000102873
0.000134676
8.92235e-05
0.000109584
0.000117882
0.000125232
8.30981e-05
0.000102155
0.000121522
8.58157e-05
0.000112837
0.000109897
9.55026e-05
0.000129305
9.67226e-05
0.000118388
0.000117512
0.000116656
0.000118525
8.87145e-05
9.80907e-05
0.000111802
6.83137e-05
0.000110542
9.2091e-05
8.83183e-05
5.41617e-05
0.000111883
8.74431e-05
0.000138603
0.000160316
0.000258828
0.000281163
0.000115544
8.62739e-05
6.28886e-05
0.00012825
8.49616e-05
9.19124e-05
0.000117376
3.24765e-05
0.000107651
7.5443e-05
7.43611e-05
6.46301e-05
7.3114e-05
0.000127187
4.99135e-05
0.000163268
9.52631e-05
8.90419e-05
0.000160007
0.000142256
0.000104798
0.00013002
0.000117507
0.000140206
0.000100358
0.000145075
9.75192e-05
0.000117815
0.000178357
0.000152049
0.000149679
0.00014621
0.000127455
0.000146458
0.000137675
9.95299e-05
0.00010303
7.77923e-05
0.000141481
0.00011087
8.49891e-05
7.39844e-05
5.49051e-05
8.79864e-05
0.000235171
0.000221258
0.000469872
7.83783e-05
0.000732984
6.67713e-05
0.000136431
7.35979e-05
0.000109217
8.85157e-05
5.27895e-05
0.000152875
6.53288e-05
0.000173195
0.00016114
5.57688e-05
0.000124252
7.95658e-05
3.65278e-05
1.81846e-06
0
0.000142406
0.000384855
0
0
0
0
0
0
0.000186546
0.000167783
0.000178328
0.000100703
0.000107755
0.00025471
0.000166941
4.39965e-05
7.21873e-05
4.40631e-05
0.000256857
0.00018583
0.000115373
0.000113056
0.000219176
1.94895e-05
5.96963e-05
8.74355e-05
0.000111008
3.95043e-05
0.0001093
7.77686e-05
0
0
0
5.29822e-09
1.26497e-07
0
0
7.68375e-05
0.000106056
0.000138007
7.71122e-05
0.000125416
0.000123838
8.06476e-05
4.07618e-05
0.000188034
5.11927e-05
0.000120923
0.000103821
8.75841e-05
0.000142734
7.61653e-05
7.95898e-05
0.000118716
9.61816e-05
9.05661e-05
9.33238e-05
0.000118133
0.000103113
8.04775e-05
7.99426e-05
9.45883e-05
8.73211e-05
6.54706e-05
3.55546e-05
3.8853e-05
4.37801e-05
2.38242e-05
2.9437e-05
2.72297e-05
8.85461e-05
4.41428e-05
4.19867e-05
9.41994e-05
4.11663e-05
0.000103013
8.86129e-05
8.57146e-05
9.7591e-05
6.27386e-05
9.30998e-05
4.47632e-05
9.00045e-05
4.24257e-05
4.48029e-05
9.31778e-06
3.65526e-05
4.63714e-05
4.37145e-05
0.000252072
0.000275251
0.000299022
4.10046e-05
0.000143883
7.29583e-05
9.58342e-05
0.000147989
2.84726e-05
0.000111728
9.35131e-05
3.55143e-05
5.29304e-05
7.69595e-05
6.05165e-05
0.000101608
2.89245e-05
0.000149265
9.89393e-05
0.000104696
0.00017241
0.000119889
0.000122313
0.00011874
0.000139067
0.000103791
0.000102591
0.000166075
0.000192705
0.000125317
0.000176194
0.000159086
0.000152895
0.000170096
0.000163521
0.000158096
0.000141764
0.000148484
7.67403e-05
5.41685e-05
7.04938e-05
9.82263e-05
5.38196e-05
6.96277e-05
3.9448e-05
7.32686e-05
0.000103302
3.65172e-05
5.56438e-05
2.50133e-05
4.90839e-05
9.24031e-05
5.34461e-05
7.67482e-05
7.01617e-05
2.97092e-05
0.000103885
0.000118968
0.00029795
0.000169531
0.000128447
0.00078474
7.30525e-05
5.13362e-05
0.000215134
8.45893e-05
7.89226e-05
8.02039e-05
0.000105928
0.000295889
0.000196995
0.00017651
0.00012689
0.000196612
8.81467e-05
0.000152942
3.75762e-05
9.8258e-05
9.10026e-05
0
0
8.37698e-05
0
3.96466e-05
6.31031e-05
0
4.70683e-09
0
0
0
0
0
0
0
0
0.000109447
0.000275787
0.000187689
0.000283072
0.000169965
2.40325e-05
6.39523e-05
0.000185612
0.000181879
0.000228931
0.000100476
7.90123e-05
0.000126661
0.000165431
2.98797e-05
1.61027e-05
4.16966e-05
7.26216e-05
7.74771e-05
0.000106628
7.32723e-05
9.64221e-05
0
8.17619e-11
0
0
0
0
0
0
7.115e-10
5.91085e-10
0
0
0
0
2.64934e-09
0
0
0
0
0
0
8.4347e-09
2.20222e-05
1.07645e-05
6.53156e-05
1.73853e-05
6.00192e-05
0.000126719
6.75936e-05
0.000137998
0.000180246
0.000149297
6.97379e-05
0.000135223
8.51509e-05
9.98744e-05
0.000132899
5.10123e-05
6.49816e-05
0.000117504
9.46045e-05
6.44985e-05
0.000102283
8.7628e-05
9.57511e-05
0.000105018
7.56968e-05
8.9664e-05
8.51436e-05
6.07307e-05
5.39617e-05
3.79023e-05
4.81781e-05
0.000109994
4.27273e-05
8.70316e-05
5.63469e-05
3.63605e-05
3.92968e-05
2.50205e-05
2.816e-05
5.8135e-05
6.52866e-05
3.10085e-05
3.70987e-05
4.24156e-05
4.82977e-05
6.28627e-05
3.73515e-05
0.000103763
6.31392e-05
6.64328e-05
6.70161e-05
4.00499e-05
9.91458e-05
0.000117677
0.000120812
3.76816e-05
7.6575e-05
2.51132e-05
0.000123671
7.00635e-05
2.96971e-05
9.21766e-05
5.14081e-05
5.58674e-05
9.83069e-05
7.79087e-05
9.36048e-05
9.0841e-05
7.4529e-05
4.79318e-05
0.000134372
2.12803e-06
0.000130748
9.80876e-05
3.53991e-05
0.000107784
3.69366e-05
9.62288e-05
0.000109452
0.000120239
0.000114577
7.76935e-05
0.000138341
0.000154821
0.000121499
0.000157914
9.14211e-05
0.000171007
0.000110676
0.000194611
0.000148815
0.000199571
0.000163285
0.000161551
0.000184802
0.000156125
0.000117788
0.000144067
0.000138259
0.000119397
0.000132598
8.74535e-05
5.90369e-05
0.00013186
8.154e-05
8.92117e-05
4.41098e-05
7.83445e-05
5.75002e-05
7.85253e-05
0.000100802
0.000112989
1.78434e-05
6.99267e-05
2.52318e-05
0.000120332
1.09926e-05
4.54564e-05
0.000111398
0.000147768
1.61215e-05
0.000152666
9.82004e-05
7.1161e-05
5.37859e-05
7.26706e-05
0.000235618
4.02264e-05
0.000198751
8.91171e-06
0.000149852
5.91208e-05
6.63937e-05
0.000182066
8.14658e-05
6.21589e-05
0.00014705
6.57498e-05
0.000198732
9.69671e-05
3.53494e-05
8.07118e-05
4.75368e-05
0
0
0
0
8.67542e-05
0.000161217
0
0
0
0
0
0
0
0
0
0
0
0
0
0
0
0
0
0
0
0
2.23333e-09
0
0
1.73992e-10
8.70275e-10
2.4392e-09
0
0
0
0
0
0
0
0
0
0
2.00769e-06
1.70528e-06
0
0
0.000215212
3.97101e-05
4.86805e-05
0.000183412
6.98926e-05
0.000177656
0.000297873
0.000183174
4.5438e-05
5.12358e-05
0.000213616
9.38939e-05
6.8958e-05
1.76371e-05
0.000146147
9.43182e-05
9.703e-05
2.32134e-05
9.90725e-05
0.00010128
8.50242e-05
7.20554e-05
0
0
0
0
0
0
0
0
0
0
0
0
0
0
0
0
0
0
0
0
0
0
0
0
0
0
8.10399e-09
0
0
0
2.89831e-05
0
1.66256e-05
2.67934e-05
7.11414e-05
3.57044e-05
8.1099e-05
8.57314e-05
0.000138436
9.69758e-05
8.59596e-05
0.000109757
4.0735e-05
3.8141e-05
0.000192339
0.000161184
0.000277588
0.000133207
0
0
0
0
0
0
0
0
0
0
0
0
0
0
0
0
0
6.16832e-05
9.88699e-05
6.74262e-05
8.99651e-05
8.58313e-05
9.53525e-05
8.11744e-05
7.39685e-05
5.54984e-05
6.98354e-05
6.37944e-05
4.93618e-05
4.6398e-05
2.7573e-05
4.01027e-05
6.51267e-05
3.92886e-05
8.3194e-05
5.51403e-05
3.83947e-05
4.10044e-05
4.12629e-05
3.17919e-05
5.3352e-05
2.60318e-05
4.11617e-05
1.74741e-05
3.49008e-05
3.01058e-05
5.03658e-05
1.23704e-05
2.92508e-05
0.000166995
7.90339e-05
0.000183068
0.000112199
0.000129106
0.000104607
0.000129893
0.00015634
0.000202629
0.000235346
0.000130685
0.000129704
0.000120865
0.000132916
7.82125e-06
2.60868e-05
1.72329e-05
7.28808e-05
3.30989e-05
3.14737e-05
3.07942e-05
3.77283e-05
6.49267e-05
5.24909e-05
7.51194e-05
6.68443e-05
5.05961e-05
8.12055e-05
9.8809e-05
3.26735e-05
0.00010631
2.98685e-05
8.20641e-05
3.24443e-05
5.2756e-05
0.000100379
8.69588e-05
0.000134796
0.000291555
0.000132652
0.000116609
0.000120664
0.000187011
7.11935e-05
0.000165719
0.000225844
0.000180933
0.00014467
0.000182309
0.000173036
0.000168002
0.000177453
0.000164844
0.000111819
0.000138506
0.000157289
0.000164535
0.000122085
0.000136251
0.000128915
9.91103e-05
0.000104132
0.00010192
9.18669e-05
0.000133402
8.80459e-05
0.000155499
9.13988e-05
7.04184e-05
5.00321e-05
9.58993e-05
6.96186e-05
0.00011084
0.000111835
8.82622e-05
9.6703e-05
8.77441e-05
0.000114883
6.61025e-05
0.000145541
0.000233128
0.000118398
0.000237953
0.000208544
0.000167741
0.000268354
0.000264447
0.000249276
0.000219913
0.000236397
0.000198532
0.000222884
0.000248104
0.000266102
0.00023225
0.000260624
0.000179693
0.000182516
0.000222928
0.000215261
0.00011796
0.000102787
0.000236197
0.000189735
0.000190289
0.000161023
0.000217348
0.000271822
0.000227166
0.000197671
0.000248668
0.000267897
0.000296673
0.000247839
0.000228736
0.000248456
0.000263877
0.000247772
0.000279212
0.000301053
0.000284854
8.15466e-05
2.93855e-05
2.51005e-05
0.000113982
2.87007e-05
2.08388e-05
6.27177e-05
4.18711e-05
1.5272e-05
2.05353e-05
3.54756e-06
4.45337e-05
1.93885e-05
8.19275e-05
8.68624e-05
3.09127e-05
8.75237e-05
8.80664e-05
0.000109368
4.60749e-05
2.30551e-05
4.66313e-05
4.72233e-05
0
3.60004e-09
1.3182e-06
0
0
0
0
0
0
0
0
4.83044e-09
0
0
0
0
0
0
0
0
4.08871e-09
0
0
0
0
0
0
0
0
0
0
0
0
0
0
0
0
0
0
4.0949e-09
0
0
7.71922e-09
0
2.81383e-09
0
2.22096e-09
1.98967e-09
5.33953e-09
0
6.52934e-09
2.14706e-09
0
0
2.90881e-09
0
0
0
0
0
0
0
0
0
0
0
0
0
0
8.5786e-08
0
0
2.81168e-05
0.000115297
0.000205092
0.000181173
0.00028756
0.000243431
0.000101942
5.81586e-05
0.000210666
0.000248167
0.000107239
4.54696e-05
2.82167e-05
0.000103098
8.52388e-05
6.97629e-05
7.95228e-05
0.00014148
8.60244e-05
6.48493e-05
9.24577e-05
8.99532e-05
0
0
5.12315e-08
8.20541e-08
0
0
0
0
6.57259e-08
0
0
0
0
0
0
0
0
0
0
0
0
0
5.48167e-09
3.7748e-09
0
0
0
3.37243e-05
2.2083e-05
3.07742e-05
7.82744e-05
3.37793e-05
8.60688e-05
5.96274e-05
0.000186876
7.81704e-05
7.78789e-05
8.23636e-05
0.000208423
0.000131065
4.82575e-05
8.51435e-05
4.25295e-05
0.000177457
1.55182e-09
0
4.63249e-09
0
0
1.19539e-10
0
0
9.09141e-11
0
0
0
0
0
0
0
0
0
0
0
0
0
0
0
4.98518e-09
0
8.4977e-05
7.51404e-05
7.94807e-05
4.91659e-05
5.20859e-05
4.89538e-05
2.62034e-05
4.8023e-05
2.72804e-05
3.56661e-05
3.69378e-05
3.75556e-05
4.41713e-05
2.75268e-05
1.79911e-05
2.60688e-05
4.10862e-05
1.4387e-05
1.48015e-05
6.46942e-05
3.21181e-07
1.02435e-05
8.60489e-06
1.38165e-05
2.35648e-05
1.84925e-05
1.10391e-06
0
0
0
7.35116e-07
3.64364e-07
0.000264106
0.000228152
0.000188246
0.00014926
7.87449e-05
0.00013119
0.00023502
0.00016696
0.000285425
0.000266133
0.000303472
0.000325605
0.00021023
0.000268881
0.000214155
0.000208199
0.000228331
7.20585e-05
0.000261368
8.22014e-05
0.000188606
0.000203216
0.000232395
0.000191679
0.00030463
0.000309486
0.000238482
0.000289752
0.000137042
0.000255583
5.56517e-05
0.000104204
0.000110243
9.25492e-05
2.20815e-05
4.47603e-05
2.93175e-05
5.15578e-05
6.00831e-05
3.92358e-05
1.87977e-05
3.51605e-05
3.48055e-05
6.48707e-05
4.2175e-05
4.73206e-05
1.11882e-05
5.83487e-05
4.51287e-05
1.45681e-05
3.35504e-05
3.40192e-05
5.46476e-05
2.29468e-05
1.41129e-05
4.63497e-05
0
0.000260208
0.000113964
0.000211599
0.000122834
0.000199591
0.000155321
0.000180408
0.000142619
0.000178742
0.00010466
0.000166745
0.000116893
0.000117711
9.0429e-05
9.29443e-05
0.000163618
0.000109147
0.000150719
0.000126739
0.000162679
0.000136991
0.000158976
0.000113927
0.000136746
0.000152407
0.000180191
0.000169467
0.000100559
0.000110386
0.000150581
0.000115913
0.000145865
9.48757e-05
6.95359e-05
0.000134238
9.26301e-05
6.53616e-05
0.000200497
0.000169647
0.000210463
0.000147371
0.000171509
0.000211498
0.000209507
0.000145904
0.000222149
0.000257026
0.000216142
0.000202293
0.000216158
0.00015957
0.000199309
0.000129657
0.000192175
0.000198973
0.000186766
0.00025915
0.000212468
0.000304535
0.000270951
0.000350659
0.000332584
0.000235347
0.000282279
0.000328242
0.000316759
0.000283265
0.000288269
0.000299348
0.000271062
0.000265914
0.000352911
0.000335815
0.000265942
0.000253694
0.000244467
2.73515e-05
1.55539e-05
4.38806e-05
6.83392e-05
2.84163e-05
8.73142e-05
8.59189e-05
4.3365e-05
1.13817e-05
1.46641e-05
9.7718e-06
8.43674e-06
1.13726e-05
2.49899e-05
2.24407e-05
0
0
0.000134235
0
4.76444e-05
6.67451e-05
5.02192e-05
5.29147e-05
4.85697e-06
4.19562e-05
0
0
0
0
3.59277e-09
2.75647e-09
0
0
0
6.92955e-09
0
0
0
0
0
0
0
4.19876e-09
0
0
0
0
0
0
0
0
1.82433e-10
0
0
0
1.79321e-09
0
0
0
0
0
0
0
0
0
0
0
0
0
0
0
0
5.48108e-09
0
1.68849e-09
0
0
0
0
0
0
0
0
0
0
8.73025e-05
0.000111894
0.000162745
0.000217535
0.000118099
0.000215692
0.000291204
1.19967e-05
1.44372e-05
0.000149113
9.82274e-05
0.00019363
3.11566e-05
6.35406e-05
8.74976e-05
6.08525e-05
5.98199e-05
6.74063e-05
9.94461e-05
0.000101144
8.50689e-05
8.85697e-05
3.53425e-08
0
1.60408e-08
0
0
0
0
0
0
0
0
0
0
0
0
0
0
0
0
0
0
0
0
5.65572e-09
0
0
3.0538e-05
1.21577e-05
3.01919e-05
4.56373e-05
4.95611e-05
0.00013638
4.50561e-05
2.85251e-05
0.000106634
2.86499e-05
0.000111801
8.65107e-06
3.40504e-05
5.26348e-05
5.9284e-05
0.000292388
0.000122699
0.000136656
0
0
0
0
0
0
0
0
0
0
0
0
1.69729e-09
0
0
0
0
0
0
2.15785e-10
0
2.07204e-10
0
0
0
0
0
0
0
0
0
5.0668e-05
6.3102e-05
2.8838e-05
5.21678e-05
5.52786e-05
1.45878e-05
1.63704e-05
4.73519e-05
7.74464e-05
5.01699e-05
4.76371e-05
3.05592e-05
5.39328e-05
0
0
1.48269e-05
1.46018e-05
1.19096e-05
4.06976e-05
4.42418e-05
7.67871e-06
2.12257e-05
2.44179e-05
1.37366e-05
5.06826e-07
1.14724e-05
1.15582e-05
0
0
0
0
0
0
0
0
0.000207612
0.000257933
0.000226598
0.000272957
0.000277189
0.000259517
0.000307876
0.000264104
0.000240168
0.000256998
0.000211634
0.000251644
0.000134264
0.000290512
0.000277909
0.000302006
0.00029021
0.000299787
0.000282073
0.00028548
0.000325614
0.000284427
0.000283341
0.000349407
0.000263434
0.000325742
0.000230714
0.000279696
0.000275303
0.000293674
0.000199668
0.000248685
0.000291746
0.000286521
0.00028636
0.000293632
0.000230852
0.000168996
0.000185679
0.000108276
9.38783e-05
0.000208079
0.000229785
0.000351114
0.000221014
0.000325869
0.000280492
0.000306279
0.000170867
0.000227526
0.000169132
0.000101797
0.000137935
4.52827e-05
9.80647e-05
0.000147755
0.000108014
0.000191937
9.91216e-05
0.000250836
0.000168435
0.000141305
9.53959e-05
2.05664e-05
8.90614e-05
4.1216e-05
4.2707e-05
4.30168e-05
0.000125581
0.000120685
8.21119e-05
2.23282e-05
2.44298e-05
7.88527e-05
0.000264181
0.000345137
0.000252006
0.000256448
0.000331213
0.000293769
0.000271516
0.000311144
0.000301049
0.000262507
0.000287854
0.000287614
0.000251106
0.000246338
0.000266631
0.000249577
0.000176707
0.00025763
2.79674e-05
8.34462e-06
7.19668e-06
6.16583e-05
4.44314e-05
3.29941e-05
5.77353e-05
7.59312e-06
3.17714e-05
2.50598e-05
1.23659e-05
2.87479e-05
0
3.35499e-06
0
0
0
0
9.80514e-05
0.000207568
0
9.59535e-05
0.00020726
4.35915e-05
0.000117725
8.11318e-05
6.65598e-05
0.000135865
0.000100267
7.16996e-05
8.47093e-05
0.000172573
0.000107369
0.000128651
0.000137549
0.000113431
0.000156104
0.00015697
0.000157691
0.000143803
0.0001065
0.000120736
0.000119804
0.000104329
6.22632e-05
8.84427e-05
3.74689e-05
8.50622e-05
8.30271e-05
0.000103604
0.000191008
8.27867e-05
4.32455e-05
0.000132139
0.000197762
0.000182589
0.000234035
0.000218257
0.000255143
0.000177842
0.000254598
0.000259148
0.000204657
0.000146319
0.000180645
0.000163019
0.000180352
0.000135485
0.000207373
0.000186102
0.000237326
0.0002096
0.000233835
0.000284676
0.000316015
0.000230907
0.00038367
0.000254759
0.000218169
0.000391686
0.000353559
0.000254897
0.000278235
0.00027888
0.000340418
1.31605e-05
4.34373e-05
5.42196e-05
7.12064e-06
2.11555e-05
4.10227e-05
2.17789e-05
7.60609e-05
4.65889e-05
8.40469e-06
8.48964e-06
7.31929e-06
0
4.94854e-06
5.71057e-06
0
0
0
0
7.79452e-05
0
0
0
0
0
0
0
0
2.39279e-09
2.55794e-09
3.85485e-09
0
2.01435e-11
0
0
0
0
0
0
0
0
0
8.76106e-09
0
0
0
0
0
0
0
0
2.7808e-07
0
0
0
0
0
0
0
0
0
0
0
0
1.35113e-09
0
0
1.51502e-09
0
0
0
0
0
0
0
0
0
0
5.11855e-09
0
0
0
0
0
0
0
0
0
0
6.86596e-08
0
0
0
0
6.00824e-08
0.000237241
0.000377438
0.00022443
0.000225595
0.000248367
0.000228417
0.000335279
0.000117323
0.000142749
0.000282565
0.000204859
0.000105201
0.000150774
9.2523e-05
9.15343e-05
7.3623e-05
0.000101102
5.17559e-05
3.05084e-05
6.33579e-05
8.66521e-05
3.42217e-05
6.51693e-05
7.50907e-05
6.72595e-05
0
0
0
0
2.7738e-09
0
0
0
0
0
0
0
0
2.86346e-05
1.15055e-05
4.2908e-05
0
0
0
0
0
0
0
0
0
0
0
7.2595e-06
7.02985e-05
7.68074e-05
4.34288e-05
0.000202869
0.000170278
0.000335299
3.37558e-05
0.000175882
6.57618e-05
6.15599e-05
0.00015768
4.67674e-05
6.56797e-05
0.000126599
0.000117758
0
9.23429e-10
0
0
0
0
0
0
0
0
0
0
0
0
3.32721e-09
0
0
5.77145e-10
0
5.2359e-09
0
0
0
4.67608e-09
0
0
0
0
0
0
1.54973e-09
0
0
0
0
0
0
7.82515e-05
5.05285e-05
2.00713e-05
6.12896e-05
5.85299e-05
4.79987e-05
3.79089e-05
5.2958e-05
4.37544e-05
7.0009e-07
1.42744e-07
5.45321e-05
1.65146e-05
0
0
0
4.15538e-09
2.70159e-06
0
1.7215e-05
0
3.91835e-05
2.42688e-05
1.70038e-05
2.52928e-05
0
0
0
0
0
0
0
0
0
0
0
0
0.000297863
0.000216699
0.000250857
0.000195343
0.000429935
0.000244376
0.000469657
0.000396445
0.000303123
0.000297545
0.000303512
0.000343687
0.000318053
0.000240526
0.00024396
0.000270764
0.000194934
0.000263402
0.000252485
0.00027406
0.000317939
0.000303313
0.000258406
0.000235333
0.000183485
0.000167224
0.00014598
0.000104316
0.000212992
0.000204193
0.000320113
0.000268969
0.000201237
0.000287247
0.000294716
0.000111231
0.000271237
0.000263808
0.000182141
0.000183783
8.87507e-05
5.91256e-05
5.01322e-05
6.44092e-05
6.07627e-05
4.69441e-05
6.94126e-05
0.000156849
0.000135096
0.000157119
0.000135975
7.34605e-05
0.000152929
3.47629e-05
7.51715e-05
4.00374e-05
8.01253e-05
3.13032e-05
0.000105122
7.36588e-05
0.000128694
1.17166e-05
8.60674e-05
6.65635e-05
4.16192e-05
0.000266836
0.000316925
0.000314849
0.000258071
0.000301247
0.000336601
0.00026284
0.000328725
0.000268951
0.000273195
0.000299981
0.000269669
0.00027356
0.000250338
0.000246826
0.000194217
0.000268309
0.00028634
0.000219272
0.000266407
0.000330306
0.000281874
0.000226794
0.000287072
0.000237363
1.82495e-05
2.29968e-05
4.60236e-06
8.543e-06
3.82475e-05
3.60654e-05
0
0
1.344e-06
0
0
0
0
3.59521e-09
0
1.64288e-09
0
0
0.000178468
0
2.67149e-09
0.000199365
0.00015788
8.36589e-05
1.61235e-05
6.84266e-05
9.51418e-05
0.000118925
0.000107176
6.07372e-05
8.34393e-05
8.9363e-05
0.000115186
0.000143211
0.000207957
0.000122989
0.000134951
0.000123623
0.000156244
0.000127142
9.37796e-05
8.39287e-05
7.28738e-05
6.02487e-05
8.59128e-05
0.000151435
0.000130783
0.000124739
0.000130581
9.98987e-05
9.28023e-05
0.000180876
8.78206e-05
0.000239674
0.000164951
0.000149149
0.000166382
0.000152946
0.000160436
0.000196186
0.000257994
0.000158307
0.000175005
0.00016116
0.000135269
0.00018504
0.000207407
0.000239268
0.000238519
0.000234097
0.000241624
0.000282967
0.000268826
0.000247022
0.000293285
0.000253493
0.000358827
0.000390084
0.000215205
0.000352021
0.000251678
0.000284549
0
0
0
0
1.99257e-05
1.96165e-05
0.000112676
1.84188e-05
2.27622e-05
0
0
0
0
0
0
0
0
0
0
0
0
0
0
0
0
0
0
0
3.64014e-09
1.41131e-09
0
0
0
0
0
0
0
0
0
0
0
0
5.05919e-09
0
0
0
0
0
0
0
0
1.45047e-07
0
0
0
1.15659e-08
1.38705e-09
0
0
0
0
0
0
0
2.95859e-09
3.26297e-09
0
0
4.30255e-09
3.7506e-09
0
0
0
0
3.45347e-09
0
5.68438e-09
0
0
0
0
0
2.1626e-09
1.38579e-09
0
0
0
0
0
0
0
0
0
0
1.68721e-09
0
0
0
0
0
0
0
0
0.000271894
9.57639e-05
0.000261949
0.000174464
0.000196643
0.000293719
0.000255921
0.000290529
0.000299879
0.00026221
0.0001603
0.000224189
0.000249416
0.000268023
0.000214981
5.17076e-05
0.000140079
0.000147874
5.609e-05
6.05588e-05
6.74096e-05
4.21027e-05
5.14727e-05
3.32067e-05
4.08075e-05
4.63711e-05
6.57757e-05
0
0
0
0
0
0
0
5.77025e-05
6.23211e-05
4.2337e-05
0
0
0
0
0
0
0
0
0
1.95455e-10
0
0
0
0
0
0.000201715
8.72677e-05
0.000119294
5.30042e-05
9.43474e-05
4.65132e-05
7.20568e-05
0.000227193
0.000122394
9.56351e-05
2.50742e-05
8.86818e-05
0.00014026
0.000123292
3.21095e-05
4.95598e-05
0
0
6.56255e-10
2.9845e-09
0
0
3.02459e-09
6.64257e-10
0
0
0
1.62604e-08
0
0
0
1.22883e-08
2.027e-08
1.76617e-08
0
0
0
7.7242e-10
0
0
0
2.17383e-08
0
0
0
0
0
0
0
0
0
0
0
0
0
0
0
0
0
0
0
3.82327e-05
2.88989e-05
2.65698e-05
3.49256e-05
8.03665e-06
1.62628e-05
4.592e-05
1.74072e-05
4.13577e-06
0
0
4.82751e-09
1.52201e-08
1.47904e-05
1.65991e-05
0
0
0
0
0
0
0
8.96812e-06
3.13514e-05
4.49407e-05
3.15509e-05
8.92874e-06
0
0
0
3.01716e-09
0
0
0
0
0
0
0
2.63577e-09
0.000192367
0.000303508
0.000206504
0.000382199
0.000315351
0.000317723
0.000569644
0.000540225
0.000486552
0.000399145
0.000343563
0.000117522
0.000379268
0.000429618
0.000285983
0.000362202
0.000265668
0.000346404
0.000272187
0.000343023
0.000318052
0.000333576
0.000258201
0.000236963
0.000357197
0.00029771
0.000268437
0.000341619
0.000289007
0.000271413
0.000157949
0.000212438
0.000177159
0.000160548
0.000239612
0.000285436
0.000317363
0.000275696
0.000344844
0.000332163
0.000186454
0.000152784
0.000214324
0.000255037
0.000166225
0.000118144
0.000129725
8.98551e-05
6.36228e-05
6.39939e-05
6.52598e-05
0.000130534
7.66372e-05
0.000225736
0.000225989
0.000169849
0.00027895
0.000378053
7.81676e-05
2.11541e-05
3.8206e-05
5.61779e-05
0.000147578
7.29048e-05
0.000125977
5.10672e-05
8.39702e-05
5.36178e-05
6.30087e-05
0.00010072
0.000335226
0.000281846
0.000328569
0.000296693
0.000257578
0.000267927
0.000311141
0.000255267
0.000287977
0.000260807
0.00032268
0.000294825
0.000208395
0.000225667
0.000204215
0.000202823
0.000263911
0.000274433
0.000197578
0.000295045
0.000208196
0.000249001
0.000297211
0.000314408
0.000309774
0
0
0
0
0
0
0
0
2.1115e-09
0
0
0
0
0
0
0
5.22646e-10
0
0
0
0
3.05478e-05
5.04618e-05
0.000100105
9.34157e-05
5.69578e-05
4.22264e-05
9.11074e-05
7.37447e-06
5.12834e-05
0.000113588
6.95063e-05
0.000189669
6.67432e-05
9.38629e-05
0.000161124
0.000149694
5.93387e-05
0.000124874
0.000133414
0.000114309
0.000163666
0.00013469
0.000113659
8.5766e-05
7.31591e-05
0.000144204
8.39529e-05
0.000129244
0.00020326
0.000156839
0.000164025
0.000158084
0.000120342
0.000224705
0.000153879
0.00013966
0.000196831
0.000188818
0.000160737
0.000190354
0.000161042
0.000210191
0.000185009
0.000227943
0.00022528
0.000242576
0.000253725
0.000238953
0.000266802
0.000300417
0.00024902
0.000276106
0.000237897
0.000241314
0.000281016
0.000382096
0.000228042
0.000274771
0
0
1.22806e-06
1.28566e-10
0
0
0
0
0
0
0
1.59702e-09
0
7.97285e-10
4.65759e-09
2.18627e-09
5.55989e-10
0
3.66346e-09
2.38673e-07
0
0
0
3.97958e-09
0
3.45904e-09
4.74458e-09
0
0
0
0
0
0
0
6.21988e-09
1.9431e-09
0
0
0
0
0
0
4.62764e-09
0
0
0
0
0
0
0
0
0
0
0
0
0
0
0
0
0
0
0
0
0
0
0
0
0
0
0
0
0
0
0
0
0
0
0
0
0
0
0
6.45284e-09
0
0
0
0
0
0
0
0
0
0
0
0
0
0
0
0
0
0
0
0
0
0
0
0
0
0
0
0
0
1.18495e-09
0
0
0
0
0.000372706
0.000321355
0.000334793
0.000294468
0.000352472
0.00033663
0.00031388
0.000167436
0.000154559
0.000274724
0.000251222
0.000299575
0.000289116
0.000159952
0.000434477
0.000134875
0.000124794
0.000122987
0.000114447
0.000163939
5.08106e-05
5.02306e-05
7.30589e-05
3.01238e-05
7.55211e-05
1.86911e-05
1.46581e-05
4.29273e-05
6.85797e-05
0
0
0
2.72138e-09
1.99585e-05
3.85342e-05
2.93197e-05
0
0
1.98933e-05
0
0
0
0
0
0
0
0
2.79544e-09
0
4.83039e-09
0
0
0
0.000146821
5.71423e-05
8.6327e-05
0.000114938
0.000108856
6.16168e-05
9.35557e-05
1.65257e-05
5.03054e-05
8.77853e-05
5.54102e-05
2.41914e-05
2.34897e-05
1.17546e-05
9.56573e-05
5.74197e-05
0
1.04432e-09
0
0
0
0
0
7.45949e-11
0
0
3.84987e-10
0
0
0
0
0
0
0
0
6.09982e-11
0
0
0
0
0
0
0
0
0
0
0
0
0
0
0
0
0
0
1.09754e-09
5.55535e-09
0
0
0
0
0
0
0
0
0
0
0
0
0
0
0
0
0
6.28279e-05
4.85416e-05
5.39919e-05
2.05439e-05
4.90982e-05
3.12769e-06
0
0
0
0
4.27059e-08
0
0
0
0
0
0
0
0
0
0
1.56711e-05
4.64249e-05
9.93821e-06
0
0
0
0
1.75991e-06
0
0
0
0
5.73513e-09
6.36668e-09
0
0
0
0
0
0
0.000131613
0.000265865
0.000373025
0.000690199
0.000642414
0.000569152
0.000596665
0.000441023
0.000418751
0.00061069
0.000392438
0.000230212
0.000194305
0.000362027
0.000320292
0.000346208
0.000268923
0.000330585
0.000300788
0.000268206
0.000369463
0.000268627
0.000281106
0.000370885
0.000331143
0.00028966
0.000429169
0.000333474
0.000287777
0.000132466
0.000203811
0.000130422
0.000138009
0.000256685
0.000175958
0.000318123
0.000314774
0.000323008
0.00035282
0.000179691
0.000213759
0.000251826
0.000208227
0.000168746
0.000120637
9.39095e-05
0.000120636
4.94528e-05
6.59545e-05
0.000192321
0.00037628
0.000215812
0.000158816
0.00025288
0.000257626
0.000273761
0.000133894
5.85376e-05
4.39416e-05
8.19989e-05
7.92441e-05
5.39318e-05
9.05056e-05
3.70163e-05
8.09748e-05
8.59721e-05
9.27108e-05
9.23311e-05
9.57589e-05
1.60031e-05
1.96922e-05
5.39723e-05
0.000270097
0.000373172
0.000378644
0.000251291
0.000218293
0.000276125
0.000359009
0.000232508
0.000242478
0.000227681
0.000290915
0.000209433
0.000179106
0.000250985
0.000175861
0.000228144
0.000193946
0.000278156
0.00021401
0.000279872
0.000285624
0.000278425
0.00026019
0.000218227
0.000302785
0.000273767
0
0
0
0
0
2.29492e-09
4.73542e-09
0
0
0
0
4.32854e-09
2.29111e-09
0
0
0
0
0
1.83424e-05
0
0
3.09181e-05
6.31467e-05
3.2203e-05
3.13813e-05
2.04685e-05
7.57972e-05
7.87506e-05
0.000135992
0.000127771
0.000180601
0.000163016
3.43526e-05
0.000174252
0.000119584
0.000109322
0.000163893
0.000123048
0.00011254
0.000128631
0.000129475
0.000127247
0.000107776
0.000118926
0.000123226
0.000143334
0.000125237
0.000105087
0.000203514
9.77099e-05
0.000165792
0.000134595
0.000130848
0.000168815
0.000194496
0.000111228
0.000198379
0.000159346
0.000221673
0.000183054
0.000215228
0.000171309
0.000225521
0.000193887
0.000224255
0.000188218
0.000266985
0.000203751
0.000244072
0.000240306
0.000302051
0.000198587
0.000304064
0.00015732
0.000225849
0.000254787
0.000279437
0.000283921
0
0
3.66998e-09
0
0
0
0
1.04538e-08
0
6.52613e-09
0
0
0
8.35423e-09
6.66953e-09
3.76348e-09
2.27789e-09
1.56371e-09
7.75891e-10
0
0
0
0
0
0
0
0
0
0
0
0
0
0
0
0
4.85066e-09
0
0
0
5.28041e-07
0
0
0
0
0
0
0
0
0
0
0
0
0
0
0
0
0
0
6.25473e-07
0
0
0
0
0
9.56854e-10
2.99532e-10
1.21413e-09
0
0
0
0
0
0
0
0
0
0
0
0
0
0
0
0
0
0
0
0
0
0
0
0
0
0
0
0
0
0
0
0
0
0
0
0
0
0
0
1.17615e-09
0
0
0
3.57304e-10
0
0
1.71719e-09
4.45182e-09
0
0.000395438
0.000347254
0.000393522
0.000420137
0.000402419
0.000390207
0.000411512
0.000182377
0.000253351
0.000247779
0.0002665
0.000318955
0.000379493
0.000418901
0.00020836
0.000320294
0.000357375
0.000304414
0.000301322
4.06222e-05
7.21227e-05
3.32561e-05
2.5311e-05
5.80508e-05
3.33687e-05
5.37167e-06
4.31633e-05
7.34182e-06
7.64204e-06
7.10535e-05
4.90281e-05
1.82159e-05
3.23498e-05
0
0
3.90904e-05
4.43618e-05
2.06367e-05
0
0
1.12201e-05
5.43621e-07
0
0
0
0
0
0
0
0
5.3721e-09
0
0
0
0
0
0
3.73126e-05
3.29872e-05
4.15048e-05
7.65492e-05
1.37057e-05
5.42993e-05
2.21643e-05
2.5615e-05
3.52047e-05
4.4609e-05
1.59819e-05
2.23731e-05
3.62715e-05
0
0
0
0
0
0
5.06411e-09
2.68223e-09
0
0
1.33945e-09
0
0
0
0
0
0
2.01151e-07
0
0
0
0
0
0
0
0
0
0
1.0868e-08
0
0
0
0
0
0
0
0
0
0
0
0
0
0
0
0
0
0
0
0
0
0
7.60364e-09
0
0
0
0
0
0
0
0
0
0
0
1.27397e-05
9.14869e-06
2.47111e-05
1.03473e-05
8.34228e-06
1.16924e-06
1.50332e-05
0
9.12581e-06
0
0
0
0
0
0
0
0
0
0
0
0
0
0
0
3.4996e-06
0
0
0
1.66851e-05
2.42864e-05
1.91939e-05
0
0
0
2.10339e-09
0
0
0
0
0
0
0
0
0.000612709
0.000675953
0.000951582
0.00058047
0.00104158
0.00041769
0.000392332
0.000306908
0.000326398
0.000264097
0.000256724
0.000186509
0.000252873
0.000177816
0.000321954
0.000349662
0.000272432
0.000298414
0.00031843
0.000257825
0.000458202
0.000249026
0.000256798
0.000332213
0.000302381
0.000179567
0.000267559
0.000332087
0.000324403
0.000262346
0.000152263
0.000205664
9.20612e-05
0.000161814
0.000177799
0.000254453
0.000308566
0.000322325
0.000388077
0.000334334
0.000146198
0.000119718
0.00015078
0.000306066
0.000146717
0.000100228
7.95933e-05
0.000213126
0.000105353
0.000225309
0.000557113
0.00056022
0.000436477
0.000588914
0.000173971
0.000198552
0.000223325
0.000158325
5.31216e-06
4.52507e-05
6.85178e-05
9.27629e-05
5.62337e-05
7.96337e-05
5.42026e-05
0.000111287
4.91448e-05
8.99833e-05
5.1748e-05
3.05341e-05
1.86116e-05
7.56245e-05
0.000318434
0.000277038
0.00021473
0.000248111
0.000248687
0.000221703
0.000235375
0.000192689
0.000235132
0.000232877
0.000138253
0.000208409
0.000195348
0.000230314
0.000198209
0.000204197
0.000278208
0.000213803
0.000301988
0.000297841
0.000279887
0.000233839
0.000214341
0.000361023
0.00029038
0
0
0
0
0
0
0
0
0
4.94475e-09
0
0
0
0
0
0
4.66993e-09
0
0
0
0
4.24147e-05
6.14715e-05
4.22402e-05
3.38126e-05
9.16049e-05
4.47256e-05
2.84964e-05
0.000126729
0.00013516
8.59977e-05
9.95124e-05
5.80944e-05
0.000109309
0.000126341
0.000116598
0.000130746
0.000153943
8.40129e-05
0.00015139
8.65887e-05
0.000111166
0.000137147
0.000119317
8.91183e-05
0.000173316
0.000113684
0.000130346
0.000181049
6.23947e-05
0.000125011
0.000167616
0.000166576
0.000115367
0.000172034
0.000126057
0.000158651
0.000187118
0.000170252
0.000192478
0.000149418
0.00019523
0.000189071
0.000201139
0.000137886
0.000251668
0.000147994
0.000294091
0.000222803