/*--------------------------------*- C++ -*----------------------------------*\
  =========                 |
  \\      /  F ield         | OpenFOAM: The Open Source CFD Toolbox
   \\    /   O peration     | Website:  https://openfoam.org
    \\  /    A nd           | Version:  8
     \\/     M anipulation  |
\*---------------------------------------------------------------------------*/
FoamFile
{
    version     2.0;
    format      ascii;
    class       surfaceScalarField;
    location    "10500";
    object      phi;
}
// * * * * * * * * * * * * * * * * * * * * * * * * * * * * * * * * * * * * * //

dimensions      [0 3 -1 0 0 0 0];

internalField   nonuniform List<scalar> 
788991
(
-0.0236942
0.00623683
-0.0248011
0.00570303
-0.0126391
-0.0161996
0.0330465
-0.00673189
-0.0322594
0.0330391
-0.0640437
0.00121557
-0.0109691
-0.0426055
-0.0248641
-0.0151794
0.0209613
-0.0133511
-0.00537402
0.0192778
0.0129439
0.0150931
-0.0357446
0.0216932
-0.020344
0.0475055
0.00415461
0.0680436
-0.00972159
0.0577373
0.00457881
0.0276054
0.0379904
-0.00802986
0.057042
-0.00182159
-0.0297056
-0.02871
-0.0345957
-0.0167928
-0.0327193
0.00825038
0.0137873
-0.00719606
0.0226983
0.0038643
-0.029211
0.00888286
0.0191639
-0.054282
0.0210664
2.19075e-05
0.0189432
0.0320171
-0.0331951
0.0212528
0.0303043
0.0546295
0.0665715
0.113867
0.00220783
0.0123011
-0.00525433
-0.0367389
0.0212122
-0.0596221
-0.0116789
-0.0212799
-0.0427108
-0.00723761
0.0224075
-0.0233708
0.203623
-0.0697204
-0.0357112
0
-0.117843
-0.0165374
-0.021457
0.0641313
0.0170125
-0.0149971
0.0214991
-0.0312212
-0.00599524
-0.0346823
0.0425003
-0.0249954
-0.0367129
0.0057139
0.0136468
0.0177607
-0.0234458
-0.0433409
0.0156214
-0.0269303
0.00307637
0.033382
-0.0488427
-0.056876
-0.0566568
-0.0296026
-0.0284348
-0.046354
-0.0780806
-0.0713816
-0.0849683
-0.0160322
-0.0247197
0.0954973
-0.0141244
-0.0975273
0.013348
-0.0122426
-0.0278609
-0.00606934
-0.0128974
-0.00736172
-0.00273513
-0.00492227
-0.0281631
0.00688662
0.0039988
0.0303021
-0.0117447
0.00633815
-0.0117715
0.00880285
-0.00320827
-0.0126105
0
0
0
0
0
0
0.0555066
0
0.101954
-0.134462
-0.0433525
-0.0210471
-0.00395744
0.0501502
0.00492095
-0.0380799
0.0399881
0.00663522
0.0521712
0.0362712
0.00791325
-0.0431484
-0.00133377
-0.0208775
0.0464484
-0.0141406
-0.0283291
0.0138369
0.00292286
0.00306853
-0.00824285
-0.0032574
0.00848256
0.0146995
0.00279244
-0.00346757
-0.0246502
0.0163084
-0.00515002
-0.0150171
0.00599149
0.00598197
0.00561038
0.000210716
0.0261578
0.0130288
0.0370063
0.0230727
-0.0158329
-0.0259308
-0.0132732
0.0304353
0.00122188
0.0215692
0.0173923
0.0170176
0.00742457
0.0208304
-0.0150125
-0.0160774
-0.0152405
-0.0346444
-0.022083
-0.0157631
0.0124303
-0.0497609
-0.00381924
-0.0238792
-0.00503712
0.0130234
0.0217572
-0.0471063
-0.00346249
-0.0129536
-0.0242644
-0.0105528
0.0202907
0.0349943
-0.0482598
0.0108063
-0.0335191
-0.0399248
0.0176055
0.0247904
0.0164636
0.025568
-0.00589373
0.0505767
0.0715479
0.0303345
-0.00876219
0.015849
0.0373678
0.0191633
-0.076129
0.00367017
0.020284
-0.110238
-0.0862507
-0.0542609
-0.010648
-0.0754917
-0.00707614
0.0018093
0.00714152
0.00555365
0.000749261
0.025217
0.00973894
-0.0116423
0.0180861
-0.012257
0.00416176
0.00719375
0.0191131
0.00697929
0.00349911
-0.00813929
0.0195587
0.0248205
-0.0133719
0.0108415
0.00919565
0.0112122
-0.0159934
-0.0029969
0.0197596
-0.0295445
-0.0194511
-0.0239523
0.0291519
0.0420031
-0.00211836
0.0423862
0.0198778
-0.0214716
-0.00778476
-0.0571158
0.0230407
0.00344991
0.0351963
-0.0301762
-0.0357366
-0.0694216
-0.00626536
-0.00454578
0.00379763
-0.00767486
-0.0361149
0.00612363
-0.0675943
-0.00453888
0.0124041
0.00555566
-0.0125957
-0.0184132
0.000127422
-0.00935881
0.0332698
0.0173721
0.0195467
-0.0120627
-0.0348294
0.00816832
-0.00702106
0.0665192
-0.0370556
-0.0554342
0.0767105
0.0996467
-0.0105694
0.00945518
-0.0383137
-0.0115043
0.00983653
-0.00822011
0.00322126
-0.000308844
-0.00585693
0
0
0
0.0381122
0
0.0387433
0
0
0
0
0
0
0
0
-0.0342288
-0.0279865
-0.0106686
-0.0415393
-0.0234691
-0.0140264
-0.0361115
-0.0428041
-0.00585523
-0.0226381
-0.0428402
0.041895
0.0359116
-0.0489141
-0.0577231
0.0336137
-0.044159
-0.0732649
0.0331282
-0.0164772
-0.0102565
-0.00642222
-0.00952069
0.01788
-0.0212613
-0.00648123
-0.0341405
-0.0216794
-0.0162289
-0.0241752
-0.0238893
-0.0159405
-0.0121964
0
0
0
0
0
0
0
0
-0.0143997
0
0
-0.022262
0.149349
-0.0607452
0.0694175
0.0643399
0.0476969
0.0406893
0.0219141
-0.0320613
0.0472809
0.0208717
-0.0269625
0.0138361
0.0101661
0.0203353
-0.027141
0.00871218
0.00181367
-0.0228255
-0.0175203
-0.0183921
-0.00557946
0.0158368
0.0293856
0.00347912
-0.0139853
-0.0275645
0.0123444
-0.00147802
-0.0307148
0.00280237
-0.0168181
0.00789632
-0.0109916
-0.018304
-0.0072174
-0.0172035
-0.0588337
0.0222547
0.0573131
0.019326
0.00791745
-0.0337033
-0.0692758
-0.0167716
0.0133147
0.00427098
-0.0207256
0
-0.0441025
0.0348727
-0.0445225
0.0136903
-0.046518
-0.00641686
0.0118647
0.0394779
-0.122697
0.106648
-0.0244961
-0.184156
0
0
0
0
0
0
0
0.0457996
-0.00937865
-0.0235339
0.036079
0.0305768
0.0379847
0.0383841
-0.0160682
0.025174
0.0179348
0.00311936
0.0104392
0.0498694
0.0424347
-0.0262838
0.0589919
-0.0527563
-0.110072
0.031492
-0.0492834
-0.125211
-0.0834565
0.0595285
0.0278091
-0.013491
0.0252293
0.0184149
0.00847492
-0.0182263
0.0102856
0.0149311
-0.0109233
7.69665e-05
-0.0048384
-0.0116633
0.00764872
-0.00721524
0.00226346
0.022991
0.0601894
-0.0161023
0.00760943
0.00934073
0.00121809
-0.00500763
-0.00688748
0.00772751
0.0615399
-0.0190188
-0.0113128
0.0132294
0.000313647
-0.00661189
-0.0788194
-0.0607661
0.00667911
-0.0679894
-0.0347218
-0.028883
-0.00711488
0.0289192
-0.0332965
-0.0364858
-0.0717136
-0.0622877
0.0400951
0.0918981
0.0347026
-0.0378542
0.0311586
0.0556378
-0.0252922
0.0389957
-0.0286619
0.00872689
-0.0279541
-0.0645539
0.000459449
0.0288936
0.0569594
-0.0285913
-0.0630274
-0.00287183
-0.0178767
-0.0473096
0.00254424
-0.039129
-0.0377148
0.0121756
0.0236755
0.00841691
0.0119424
0.0266624
0.0100276
0.00759251
0.0266923
-0.0100096
-0.00424822
-0.0284168
-0.0256502
-0.028046
0.00751589
-0.00800224
0.0269394
-0.0069108
-0.0154581
-0.00215906
-0.00474426
-0.0617344
-0.0150046
-0.0372828
0.0317256
0.0124771
0.0071878
0.00628384
-0.0107925
0.0150915
0.0253806
-0.0212322
-0.0286616
-0.00164908
0
0
0
-0.0238778
0
0
-0.0352321
0
0
0
0
0
0
0
0
0
0
0
0
0
0
0
0
-0.0369594
-0.0329099
-0.000372243
-0.0179084
-0.0357202
0.0176184
-0.0400323
-0.0335441
-0.0106076
-0.00767343
-0.0358713
-0.0291553
0.00800366
-0.0266802
0.0420178
0.0063189
-0.0190704
-0.00274384
-0.0217174
-0.00287795
-0.00748595
-0.0232406
-0.0141756
0.0196453
-0.0280802
-0.00744841
-0.00560878
-0.0217055
-0.0028728
0.0181405
-0.0190061
-0.0150611
0.0080841
0.000112243
0
5.67493e-05
0
0
1.83989e-05
-1.91857e-06
-0.000138958
-7.8703e-06
0.00010593
0
0
0
0
0
0
0
0
0
0
0
0
0
0
0
0
0
0
0
0
0.0367909
0
-0.124161
0.0936919
0.234225
-0.0619035
0.0602116
0.0380224
-0.0238263
0.0243748
0.0186415
0.0112411
0.0262273
0.0143546
0.00486239
-0.0127669
0.00214941
0.0100932
-0.0315129
-0.0079924
0.021311
0.00739736
0.0331416
0.0282752
-0.00400656
-0.0175586
-0.0224448
-0.0250212
-0.0196286
0.0124433
-0.0343095
0.00943139
-0.00960032
-0.00869127
0.0212574
-0.00358229
-0.0260315
-0.0016448
0.00265387
0
0
0
-0.0270944
-0.0436725
-0.0256206
0
-0.016874
0.00419369
-0.0124297
-0.0255634
0.019946
0
0
0
0
-0.0661288
-0.00789996
0
0
0
0
0
0
0
0
0
0
0.0808046
-0.00495537
-0.0794595
-0.0305137
-0.0585592
-0.0461902
-0.0443468
0.034029
0.036867
-0.0571927
-0.0326653
-0.0103954
0.0846049
0.0115185
0.023344
0.0290041
-0.0251609
0.0453125
-0.0129127
0.00318255
0.0314657
-0.0362242
0.0141365
0.0248863
-0.0251642
0.0415174
0.0524412
0.0310097
0.0235711
0.0743028
0.0806077
-0.011373
0.0740431
-0.130079
-0.180557
0.100455
-0.0850664
-0.0101443
-0.0487697
0.0140348
0.03164
-0.0134284
0.0380967
-0.035007
-0.0200942
0.0360003
-0.00601149
-0.0708945
0
-0.0398654
0.00892211
0.0688372
0.0223207
0.0504868
-0.0131734
0.0240248
0.00201663
-0.00652064
-0.00572517
-0.00239312
0.0146476
0.0295378
0.0523031
-0.00107216
0.0120671
0.0451574
0.00799096
0.00951989
-0.0321204
0.033073
0.0700381
0.00446051
0.0104718
0.0653306
-0.0115651
0.0113381
0.028481
-0.054258
0.0419242
-0.00235581
0.10651
-0.0444785
-0.0665124
-0.00287333
-0.066592
0.0113775
0.00662877
-0.057358
-0.0440898
0.0130326
0.0506724
0.0109495
-0.0238825
0.0233818
-0.0449782
-0.0378766
-0.0118388
-0.0592051
-0.0186528
-0.0346637
-0.0590254
-0.0613081
-0.031719
-0.0268633
-0.0452409
0.00786693
-0.0300026
-0.0194852
-0.000514914
-0.0340496
0.00736678
-0.0112176
0.0267729
0.00247167
0.00481621
-0.00573786
-0.00182074
-0.129856
0.0181512
0.0113637
0.0219607
-0.0999657
-0.107422
-0.00854947
0.00575537
0.0013531
-0.0677228
0
0
0.0592316
0.0583096
0.127627
0.0593934
0.0143718
-0.0175576
-0.129808
0.0334344
-0.0773429
-0.0149074
-0.0592706
0.0138451
0
0
0
0
0
0
0
0
0
0
0
0
0
0
0
0
0
0
0
0
0
0
0
0
0
0
0
0
0
0
0
0
0
-5.1202e-05
0
3.30622e-07
0
-2.53515e-05
-5.94986e-10
-1.419e-05
2.27836e-06
1.32492e-05
-5.64911e-05
0
0
1.80643e-05
0
0
0
0
0
0
0
0
0
0
0
0
0
0
0
0
0
-0.0194623
-0.0308096
-0.0100165
-0.00561291
-0.0313927
0.0328926
-0.0147617
-0.0180186
0.00584501
0.0389418
-0.0119033
0.0114029
0.00546327
0.00665895
-0.00218443
-0.0192911
0.00754176
0.0242955
-0.0183998
-0.00242052
-0.0198617
-0.0241838
-0.00275902
-0.0173187
-0.0220432
-0.00228175
0.0265748
-0.0138583
0.00150005
-0.0112132
-0.0121955
-0.0149943
0.0237646
0
2.30275e-06
0
0
0
0
0
0
0
0
0
0
0
0
0
0
0
0
0
0
0
0
0
0
0
0
0
0
0
0
0
0
0
0
0
0
0
0
0
0
0
0
0
0
0
0
0
0
0
0
0.0889325
0.00228714
-0.0986615
0.0467102
0.117535
-0.0101523
0.0281514
0.041034
0.00173097
0.00622192
0.0255912
0.0138954
0.00924603
0.0162108
-0.0358387
-0.0232096
0.00868891
0.0384978
-0.0340458
0.0104962
-0.0416368
2.18918e-05
0
0
-6.24438e-05
-2.23162e-06
0
0
2.58533e-05
0
0
0
0
0
0
0
0
0
0
0
0
0
0
-0.0277945
0.00405947
-0.00781474
-0.013789
0.00400889
0.0181396
-0.0244765
0.00928984
0.00519635
0.00167602
0.00394284
-0.0336433
-0.0133483
9.14076e-05
0
0
0
0
0
0
0
-0.0191173
0
0
-0.013279
0
0
-0.01253
0
0
0
0
0
0
0
0
0
0
0
0
0
0
0
0
0
0
0
0
0.0605794
-0.0628934
0.00134068
0.0349857
-0.0120473
0.0599321
0.0741809
0.0211395
-0.00800108
0.0458412
-0.0697671
0.0778958
-0.0136457
0.0643493
0.0268326
0.0332679
0.0798959
0.0563654
-0.0391896
-0.00654642
0.0447216
0.0251725
0.00736471
0.0245492
-0.0214215
0
-0.0106545
0.0139338
0.0168256
-0.143029
-0.133147
0.0110054
0.0366831
0.0246667
-0.0232639
-0.0193121
0.0685029
-0.0154674
0.0856377
-0.132349
-0.0109421
0.120227
0.153668
-0.203686
0.083714
0.224876
-0.0157531
-0.136367
0.0539607
0.0153094
0.0385289
-0.0128423
0
-0.057887
0
0
0
0
0
-0.0286191
-0.00934965
0.0205237
-0.0399352
-0.0639912
0.0159645
0.0440633
0.0291464
-9.81006e-05
-0.00430802
0.00998054
-0.0214599
-0.0259505
-0.000218051
-0.025114
0.0183396
0.0162019
-0.0143083
0.0353062
-0.0151217
-0.0242706
0.00309723
0.0105853
-0.0159012
-0.0305428
-0.0199369
-0.0118455
-0.0611036
-0.0477301
-0.0303374
0.00393451
-0.0342274
-0.0185884
0.00972119
0.0280315
-0.0186256
0.0494211
-0.0820121
-0.0241175
0.0189864
-0.0822055
0.0137631
-0.0460135
-0.0532129
-0.0437983
-0.0589223
-0.0257103
-0.0300993
-0.0133405
-0.0359865
-0.0258225
-0.0347302
-0.00668296
-0.00617351
0.00256232
-0.00484286
-0.0310578
-0.00760162
0.0145841
-0.0650225
-0.00780829
-0.0136229
-0.0786925
0.00185169
-0.0145617
0.0416991
-0.051884
0.0561805
-0.0737054
0.0241285
-0.0387597
-0.0593514
-0.018156
-0.0758158
-0.0302656
0.0444003
-0.0440478
0.0475081
-0.00189891
-0.0149463
0.045816
-0.0407494
0.0535819
0.0176801
0.00742854
0.0586545
-0.0503535
0.0609569
0.0205458
0.0159383
-0.0628708
0.0374666
0.0651379
0.0421746
0.012041
0.0678994
-0.0153076
0.0688554
0.0579428
0.024704
0.0671014
-0.00315987
0.0684228
-0.0704813
0.057756
0.0632685
0.0655578
-0.00665071
-0.0586534
0.0451649
-0.0596029
0.0184914
-0.0113042
-0.0174172
0.0374451
0.00626863
-0.0175495
-0.0138809
-0.0363157
0.0181129
0.0262984
-0.0485256
-0.0144148
0.014091
0
-0.0142999
0
-0.0652373
-0.0382743
0
-0.0808026
0
0
-0.0681981
0
0.128237
-0.0732456
-0.0426566
0
-0.00676913
0
0
0
0
0
0
0
0
0
0
0
0
0
0
0
0
0
0
0
0
0
2.89628e-05
8.21519e-05
0
0
0
0
0
0
0
0
0
0
0
0
0
-2.50898e-05
-9.73377e-05
0
0
0
0
0
0
0
0
0
0
0
0
-7.58639e-05
0
0
0
0
0
4.20327e-08
2.16908e-05
0
-2.26587e-06
-2.6466e-06
-1.38666e-05
0
0
0
-5.7741e-06
0
0
0
-7.24424e-05
-0.000390557
-1.30155e-05
3.70611e-05
7.43743e-05
0
-0.000372363
-0.000841611
0
0
0
0
0
0
0
0
0
0
0
0
0
0
0
0
0
0
0
0
0
0
0
0
-9.05579e-05
0
4.21568e-05
0
-4.85319e-05
0
-0.00239636
-0.00910774
0.0202235
0.011215
-0.0206743
-0.0357086
0.015323
0.00779734
-0.0249014
-0.017969
0.0259852
0.0155288
-0.015451
0.00914457
0.0358935
-0.0132308
0.0185047
-0.0267298
-0.0177057
0.00721611
-0.0105757
-0.0168456
-0.00627511
0.00377393
0.00976884
-0.0182513
0.00339346
-0.0277889
-0.0201049
0.00923293
-0.0122095
-0.0204194
0.0144919
0
0
0
-2.80227e-05
2.75478e-05
5.63444e-05
0
0
0
0
0
0
3.99556e-05
0
-1.52307e-05
0
0
0
0
0
0
0
0
0
0
0
0
0
0
0
0
0
0
5.15034e-05
5.06489e-05
2.19644e-05
0
-4.8744e-05
0
0
0
0
0.0138801
0
-0.0574792
0.0279511
0.117907
0.0311561
0.0308322
0.057034
0.0347855
0.0106627
0.0578488
0.0433549
-0.00818309
0.0472572
-0.0486862
-0.00597576
0.0476516
-0.0619311
-0.0295083
0.0392374
0.0537646
-0.0212087
0.0412422
0.0298765
3.11076e-05
0
0
3.06251e-06
0
2.78683e-05
0
-9.48669e-07
0
5.35462e-07
0
-1.00789e-06
-1.0478e-07
0
0
0
0
0
0
-0.000131478
0
0
-5.20925e-07
0
0
0.000198067
0
-8.20402e-05
0
0
0
0
0.000117726
0
0
0.00300079
0.0331327
-0.0106114
-0.034021
-0.00884524
0.00453704
0.0149129
0.0150216
-0.0281545
-0.0116977
0.0059324
0
0
0
0
0
-5.81558e-05
3.57919e-05
0
0
0
0
0
0
0
0
0
0
0
0
-0.000338162
-0.000156961
-0.000264776
0
0
0
0
0
0
0
0
0
0
0
0
0
0
0
-1.16564e-05
0
-1.20502e-05
0.0607571
0.0751832
-0.0115096
0.071012
0.060614
-0.00189382
0.0462943
0.0752143
-0.00609342
0.0472449
0.0818932
0.0227608
0.0551548
0.0463168
-0.00637788
0.0580896
0.06133
0.00394636
0.0373754
0.0458411
-0.0119529
0.0414572
0.0605658
0.0217878
0.0248019
0.065925
-0.0510228
0.003248
0.0732546
-0.0808205
-0.00648128
0.0731572
0.0861018
-0.00193686
0.0702505
0.081474
0.0636039
0.06514
-0.0600629
0.0104195
0.0498363
0.0693665
0.0147741
-0.0636332
0.0835168
0.0505886
-0.0256653
0.0541571
0.00727798
-0.0199004
0.0775112
-0.0206479
-0.0160092
0.0173972
0.0100061
0.0572287
-0.000342754
-0.0314186
-0.0174309
0.060233
0
0
-0.0476234
0.0682739
0.113779
0.0871917
-0.0377145
0.0826211
-0.0802197
0.0220137
-0.0918922
-0.25563
0.0828708
0.00133848
0
-0.0311165
0
-0.0211408
0
0
0
0
0
0
0
0
0
0
0
0
-0.0136227
0
-0.0116593
0
0.00876162
-0.00964623
-0.02278
-0.00595638
0.00249211
0.0101269
-0.0197222
0.0210151
-0.0347479
-0.0573266
0.0266781
-0.0328729
-0.0136152
-0.0219405
-0.0333751
0.0472159
-0.0135146
-0.010915
-0.0358406
0.0105341
-0.00534432
0.0501324
0.0423669
0.0187334
-0.0563739
-0.0137968
0.0385167
-0.0582163
-0.0294191
0.0653597
0.0608663
-0.0300783
0.0415586
0.073153
-0.0228676
0.0492124
-0.0841321
0.0198966
-0.020193
-0.0758636
-0.0212743
-0.00183874
-0.0223299
-0.0150251
0.00372392
0.0528598
-0.0181526
-0.011194
-0.00200668
-0.0355968
-0.0683244
0.00946056
-0.0560288
-0.0354819
0.0111647
-0.0781407
-0.0348979
0.0292644
-0.0417421
-0.0606793
-0.0696467
-0.0876581
-0.0508553
-0.0429984
-0.0606552
-0.0296075
0.0425092
-0.0500286
-0.0149341
0.0532548
-0.0508458
0.00378781
0.0601604
-0.0634967
0.00797115
0.0657646
-0.0378454
0.00140181
0.0677521
-0.00867805
0.0348636
0.0567501
0.000433948
0.0275203
-0.0498173
0.00614186
0.0846021
0.052259
-0.00352425
0.0480815
0.0357768
0.0440443
0.00104982
0.0551247
0.0464017
0.0466163
-0.0323806
0.00233341
0.0482525
0.0367319
0.0227871
0.0279361
-0.0419558
0
0
-0.00103348
-0.0263109
0.00161777
-0.0557312
-0.0504126
0.027201
0.11423
-0.0401293
-0.0678763
0.0644636
0
-0.109022
0
0
0
0
0
0.00525807
-0.00738966
0
0
0
0
0
0
-7.60923e-05
0.00014862
0.000134709
0
6.75717e-05
0
-0.00048007
0
0.000304888
0
0
0
0
0
0
-0.000198817
0.000739311
-0.000652106
0
0
0
-1.72023e-05
0
9.43534e-05
0
-3.39246e-05
0
0
0
0
0
0
0
0
4.71604e-06
-4.64253e-05
0
0
0
0
-0.000114238
0
0
0
0
0
0
0
0
-2.47664e-07
-1.10142e-06
0
0
0
0
0
0
0
0
0
0
0
0
0
0
0
-3.57112e-05
0
0
0
-2.49474e-06
-1.71354e-06
0
0
0
0
0
0
0
0
0
0
0
0
0
0
0
0
0
0
0
0
0
0
8.54403e-07
0
0
0
0
0.0123233
-0.00100454
0.0205094
0.0187154
-0.0176102
-0.0305715
-0.0215332
0.0242212
-0.0201809
-0.000331157
0.0219096
-0.0260529
-0.00805667
0.0182003
-0.0274641
-0.00931434
0.0110584
0.0114526
-0.0108423
0.0100222
0.00610511
0.00475278
0.0169251
0.0192449
-0.033304
-0.00920437
-0.0165318
-0.00973351
-0.0106485
0.0114425
-0.0304709
-0.024066
0.00808854
-3.33456e-05
0
-1.07223e-05
6.53981e-05
-1.11664e-05
-9.87082e-07
0
0
0
0
0
0
0
0
0
0
0
0
0
0
0
0
0
0
0
0
0
0
0
0
-7.15036e-05
0
0
0
0
0
0
0
0
0
0
0
-0.0317539
0
-0.0583954
0.0247393
-0.0417527
-0.00836089
0.0129136
0.0356354
0.0393462
0.00404101
0.0428764
-0.0638688
-0.0212051
0.0501464
0.0557867
-0.0282269
0.0559675
0.0611392
-0.0262262
-0.00760427
0.0337412
-0.0246639
0.0382915
-0.0465348
0
0
0
0
0
0
0
0
0
0
4.92653e-07
0
0
0
0
0
0
0
0
-0.00445878
0
0
0
0
0
0
0
0
0
0
0.00753446
0
0.00176283
0
0
0
0
0
0
0
0
0
0
-0.00391558
0
-0.0496371
-0.0235511
0.000500935
0
-0.088406
0
0
0
0
-2.23895e-05
0
0
-0.0467066
-0.00719733
-0.0505097
0.00366443
0
0
0
0
0
0
-1.49271e-05
-2.29264e-05
2.83784e-06
0
-8.11829e-06
0
9.96845e-05
0
0
0
0
0
0
3.70081e-07
0
-1.32755e-05
0
0
0
0
0
0
0
0
0
0
0
0
0
0
-0.00222388
-0.000228047
-0.00724363
-0.0113897
-0.00179987
-0.0113611
-0.0102004
0.00819021
0.0108881
0.0119223
-0.0256779
0.0131603
-0.0108211
-0.00674471
0.0175448
0.00121211
0.00759333
0.0407197
0.0144519
-0.00959597
0.0220939
0.0117104
-0.00589034
0.00576698
0.0228529
0.0101681
0.0170334
-0.0135479
0.00643016
0.0113864
0.0010424
-0.0123603
0.000798962
0.0146242
0.0117566
-0.00672148
0.00364923
0.0606367
0.0519299
0.00308331
0.0582387
-0.0427197
0.0103883
0.0539455
0.0330219
0.0524948
0.0427726
-0.0278303
0.0786087
0.0360315
-0.00692603
0.0502371
0.041747
0.0280076
0.0255776
0.0419722
0.0100666
0.0456135
0.0397539
0.00406221
0.0587366
0.0490587
0.0296933
0.0404086
0.0570704
0.0127345
0.0167005
0.0643003
0.0542682
-0.011745
0.070951
0.08989
-0.0240775
0.0776518
0.107792
-0.0162391
0.0807405
0.101697
0.00541192
0.0823979
0.0849635
0.0686426
0.0150779
0.0594079
0.0819618
0.0119559
0.0797263
0.0169529
0.0437789
-0.0603393
0.0135971
0.000974752
-0.00988436
-0.0364375
0.0365415
0.00135449
0.00735312
-0.0700997
-0.0367809
0.0235926
0
-0.0636725
0
-0.000103687
0.00270708
0.00348555
-0.00435854
-0.00560392
-0.010049
0.0110025
-0.00723291
-0.0155231
-0.010394
-0.00368846
-0.0142703
-0.00465495
-0.00348252
-0.0069264
-0.00484591
0.00941712
0.0108134
0.00517923
-0.00193316
3.5078e-05
0.0061163
0.003007
-0.0237292
-0.0139958
-0.000690078
0
1.7972e-05
2.79175e-05
0
0.0104771
0
0.016655
-0.116417
-0.0629663
-0.155375
-0.0188534
0.0716702
1.43653e-05
-0.060858
-1.10605e-05
2.53434e-05
-1.67684e-05
-9.33438e-06
0
-4.55373e-05
0
0
0
0
0
0
0
0
0
0
0
0
0
-0.0112549
8.24821e-05
0.000119188
-0.0231319
0
-0.0402099
0.00535114
0.0431201
-0.0166324
0.0309772
0.0320753
-0.0203407
0.0244513
0.0109794
-0.0211648
0.0344321
-0.0398908
-0.017406
0.0479919
0.00550322
0.0261734
0.0587066
0.0251204
0.0386539
0.060407
-0.0102677
0.0596404
0.00233197
0.0577285
-0.0848738
-0.022438
0.0663475
-0.0601583
-0.0217545
0.0449899
0.0810757
-0.0339255
0.0671071
-0.0940272
0.0222197
-0.0259924
-0.0706961
-0.0295327
-0.0358566
-0.00738803
-0.0311082
-0.00316231
0.0553795
-0.072765
-0.0685561
0.00834762
-0.0751534
-0.0947059
-0.00265814
-0.0925778
-0.0716442
0.0270397
-0.0360148
-0.0774132
-0.0892847
-0.100078
-0.0605339
-0.0401114
-0.0788922
-0.0492955
0.0453271
-0.0700476
-0.0318669
0.0499152
-0.0582063
-0.0159336
0.056832
-0.0600952
-0.00584686
-0.061768
-0.0573489
0.00452989
0.0658308
-0.0230814
0.0126511
-0.0566609
0.00805397
0.023147
-0.0368292
0.0162156
0.0735115
0.0229368
0.0085315
-0.0121781
-0.0189951
0.0100289
0.0741486
-0.0194602
-0.00272426
0.00542755
0
0.0104155
0.00796342
0
0
0
0
-0.0776708
0
0
-0.0631917
0
0
0
0
0
0
0
0
1.5932e-05
0
9.55078e-05
-0.000174473
0.00574071
0
0
0.000195202
0
-0.000125563
0
-0.000210542
0
-7.23184e-05
0
0
0
0
0
0
0
0
4.32759e-05
6.07775e-05
-2.05517e-05
0.000320146
0
0.000324092
7.36534e-06
-0.000490263
2.56189e-05
0
0
0
0
0
0
0
0
0
0
0
0
-4.80366e-05
0
-0.000128127
0
0
0
0
0
0
0
0
0
0
0.0031234
0.00185473
0
0
0
0
0
0
0
0
0
0
0
0
0
0
0
0
0
0
0
-4.87437e-06
8.60713e-06
-4.32493e-06
0
0
0
-5.26205e-06
8.04942e-07
0
0
0
0
0
0
0
0
0
0
0
0
0
0
0
0
0
0
0
0
0
0
0
0
0
0
0
9.98122e-06
0
-4.26132e-05
0
0
0
-1.05688e-05
0
1.7542e-05
0.00833058
-0.00475715
-0.0217076
-0.0109617
-0.0256919
0.00709083
-0.0232637
-0.0388581
0.014899
-0.00860309
-0.01843
0.019277
-0.0128218
0.0243707
0.00760066
0.0170429
-0.0240428
-0.00108675
0.0116994
0.00749412
-0.00102096
0.0147377
-0.00758534
0.00133558
0.0181639
-0.00350586
-0.0068782
0.00913174
0.00736141
-0.0266886
-0.00631705
-0.0603725
-0.0145095
-0.0197443
-0.00346974
-0.00620711
-0.0325839
9.76819e-07
0
0
0
0
0
0
0
0
0
0
0
0
0
0
0
0
0
0
0
0
0
0
0
0
0
0
0
0
0
0
0
0
0
0
0
0
0
0
0
0
-0.0371452
8.55285e-05
0.00455756
0.0185403
-0.0275985
0.0269388
-0.0108974
0.00362247
0.00287701
0.00182514
-0.00330595
0.011934
0.0522847
-0.000379985
0.0342592
0.0384802
-0.0202265
0.0120006
-0.0499372
-0.021628
0.0240345
0.0322304
-0.0147657
0.00851045
0
0
9.45772e-06
6.92208e-07
0
0
0
0
0
0
0
0
0
0
0
0
0
0
0
0
0
0
0
0
0
0
0
0
0
0
0
0
0
0
0
0
0
0
0
0
0
0
0
0
0
0
0
0
0
0
0
0
0
0
-0.0174271
-0.000739654
0.0289865
0.0188345
0
0
0
0
0
0
0
0
0
0
0
0
-0.0264584
0
0
0
0
0
0
0
0
0
0
0
0
0
0
0
0
0
0
0
0
0
0
0
0
0
0
0
0
0
0
0
0
0
0
0
0
0
0
0.0133913
0.00787125
-0.0138174
-0.00307139
0.00658068
0.00354308
0.000422053
0.0227341
-0.015713
0.0267931
0.0450624
-0.0338303
0.00809314
0.0449047
-0.0358331
0.012348
0.0364669
0.0316775
0.0219278
0.0333801
-0.0124423
0.0154187
0.0256431
0.0184159
0.0148512
0.0663132
-0.0444817
0.0180969
0.0634588
0.0290018
0.00903262
0.0597943
-0.0435637
0.0603634
0.0161805
-0.0464225
0.02202
0.0177708
0.0395249
0.0253717
0.00562402
-0.0103127
0.0205467
0.0423195
0.0238786
0.0616346
0.0523808
-0.00618151
0.057661
0.0716459
0.00973725
0.0564762
0.0632745
0.0169236
-0.0519554
0.0587234
0.0206755
0.0454536
-0.0126472
0.0737475
0.0894428
-0.0305163
0.0784829
0.114661
-0.0262759
0.0836905
0.119063
-0.00422512
0.09065
-0.100706
0.00275555
0.0969553
-0.0959685
0.0811709
0.0235483
-0.0598276
0.0957819
0.0176073
0.0797081
0.0196559
0.0365943
0.0027884
0.0567346
0.00798204
0.0342999
0.017867
-0.0332964
-0.0254498
0.0168642
0.000568959
4.03294e-05
0.0384483
0.0328318
0.00316339
0
-0.0248589
0.0202899
0.00402362
-0.000955438
0.0121998
0.014271
-0.00350959
-0.0177264
0.0197583
-0.0029954
-0.0166489
-0.0178314
-0.000872661
-0.0107026
-0.0108552
0.0034637
-0.00279776
0.00383069
-0.00200792
0.00176801
0.00396031
-0.00819615
0.00222883
0.00400624
-0.0171353
-0.0176497
-0.00253056
-0.0200921
-0.0357123
0.00785258
0.00117416
-0.0122788
0.00504109
-0.0171698
-0.0160816
-0.0268974
-0.038073
-0.0068183
-3.04264e-05
3.59629e-05
7.96951e-05
-7.76665e-05
0
4.12673e-05
0
-0.194786
0
0
0
0
-0.000122268
0
0
0
0
0
-8.79023e-05
0
3.39566e-05
0
-1.45381e-05
-1.98268e-05
0
0
0
0
3.91397e-05
3.26103e-05
0
-3.71088e-05
0
0
0
0
-0.0182567
-0.0208721
-0.0302503
0
0.0107309
0.00642368
-0.0204757
-0.0461831
-0.0164478
0.0287308
0.0398622
0.0122873
0.0422798
0.0226185
-0.0149981
0.0457395
0.0101287
0.0313783
0.0353447
-0.0224506
-0.0459857
0.0174542
-0.0261783
-0.0679768
-0.0352799
0.0461656
0.101878
-0.0692474
0.0518491
0.0878507
-0.037293
0.027954
-0.0756902
-0.0514468
0.0509428
0.0877716
0.0173406
-0.0302549
-0.0664296
-0.0563571
-0.0433925
-0.0326889
-0.0708165
-0.0141902
-0.0650956
-0.0874934
-0.0969463
-0.0255991
-0.0908956
-0.11713
0.0108487
-0.0394957
-0.0746046
-0.0929175
-0.100743
0.00979516
-0.0958084
-0.0724716
0.0390125
-0.0838767
-0.0511308
0.0498879
-0.072359
-0.0322545
-0.0574794
-0.0593771
-0.0242709
0.0589063
-0.0518804
0.00168991
-0.0605455
-0.0407712
0.0132583
0.0552618
0.0051897
0.0144851
0.0223014
0.0157527
0.0254139
-0.00718734
0.022942
-0.0314024
0.00184545
0.0250161
0.0904258
0.00443396
0.0182225
-0.0441685
0
0
0
0
0
0
0
0
0
0
0
0
0
0
0
0
0
0
0
0
0
0
-0.000163498
0
0
0
0
0
0
-1.82252e-05
0
0
0
0
0
0
0
-5.46613e-05
0
1.89205e-06
0
-5.48759e-05
3.36268e-05
-1.98933e-05
-2.16903e-05
0
5.89557e-06
0
0
0
0
0
0
0
0
0
0
0
0
0
0
0
0
0
0.00336551
-0.00290785
-7.62448e-05
0
0
0
0
0
5.3032e-05
0
9.57208e-05
-0.0199469
0
-0.00436682
0
-0.0293162
0
0
-7.77064e-06
-6.5744e-06
6.11331e-06
0
-3.15427e-05
0
0
0
0
0
0
0
0
0
-8.8052e-06
3.93561e-06
1.32904e-05
0
-2.07487e-05
0
-5.18845e-06
1.88199e-05
8.84795e-07
0
-6.94583e-06
0
0
0
0
1.06655e-05
0
-6.65411e-05
0
-1.74845e-05
-2.54165e-05
0
0
0
0
0
0
0
0
0
0
0
0
0
0
0
0
0
0
0
0
0
-6.20276e-06
0
7.90712e-06
0
0
0
-4.5708e-05
0
0
0
0
0
0
0
0
0.0114723
0.0372499
-0.0154381
-0.0356672
0.0150984
-0.00141546
-0.0272144
-0.0122173
-0.0508586
-0.00383281
-0.0332442
0.0231665
-0.0307101
0.0377693
0.0145777
0.00942448
0.0141807
0.00783876
0.00842939
0.00805252
0.00515997
0.0155637
0.00475382
0.0134639
0.0191604
0.0143538
-0.000568073
0.00717583
0.00733585
-0.0152209
0.0147134
-0.00262609
-0.0247496
-0.0155762
-0.0226306
-0.0533462
0.00338167
-0.0281026
-0.0221587
-0.000965788
0
0
0
0
0
0
0
0
0
0
0
9.2626e-05
-0.0281021
-0.0718521
0.000140749
0
0
0
0
0
0
0
-4.79506e-05
0
0
0
0
-4.90761e-07
0
9.61025e-07
0
4.69172e-07
0
0
0
0
0
0
0.0138784
0.0151044
0.0137561
-0.00344933
-0.0214226
0.0338841
0.0168511
-0.0235908
-0.00145067
0.0526064
0.00674265
-0.00229296
-0.0195549
-0.0152967
0.00781705
-0.0365946
-0.0112967
0.00146404
0.00372365
0.00975445
0.0266298
-0.00524679
0.0122619
0.00998138
3.93404e-08
0
0
7.6403e-07
0
-7.96445e-06
0
0
0
0
2.35088e-09
0
-1.73294e-06
0
1.73889e-06
0
0
0.000241553
6.95053e-05
0
0
0
0.00011277
0.00017252
-2.68349e-05
0
0.000139306
0
0
0
-6.68328e-05
-7.95641e-05
0
0
0
0
0
0
0
0
0
0
0
0
-2.38281e-05
8.42436e-05
0
0
0
0
0
0
0
0
0
0
0
0
0
0
0
0
0
0
0
0
0.00687839
0.0273096
-0.00621138
-0.013797
0
-0.00976958
0
0
0
0
0
0
0
1.41266e-05
0
-2.12484e-05
0
5.57161e-05
-1.0819e-05
0
0
0
0
0
0
0
0
0
0
2.48716e-05
-1.41926e-05
0
0
0
0
0
0
0
0
0
0
1.85512e-05
1.11882e-05
-4.15484e-06
0
4.28253e-05
0
0
0
0
0
0
0
0
0
-8.57339e-06
0
2.86826e-05
-0.00404322
0.0108213
0.0152528
0.039459
-0.030983
-0.0154533
-0.0203665
0.0131015
0.00909136
-0.0432073
-0.0301399
0.0486521
-0.00138836
0.0364506
0.00466851
0.026895
0.031231
0.0309348
0.0734012
0.0280142
0.00659821
0.0577213
0.0528883
0.018434
0.0571752
0.0405102
0.0387886
0.0491197
0.00266476
0.0311206
0.0337665
-0.0172676
0.0353017
0.0780496
-0.0289031
0.0213659
0.0747547
-0.0378854
0.0086005
0.0725569
0.0545973
0.0568659
-0.00706627
-0.064796
0.0428167
0.00493354
0.06076
0.0278694
0.0087583
0.0183364
-0.00232145
0.043729
0.054093
0.0567062
0.0156929
0.0540697
0.0469478
-0.00820005
-0.0655095
0.0706756
-0.0113643
0.0773306
0.0613652
-0.00758069
-0.0722256
-0.0325018
0.0688352
-0.106112
-0.0312649
0.0760719
-0.121622
-0.00990367
0.087764
0.109642
-0.00480946
0.0967835
0.108673
0.013049
0.102602
-0.0931499
0.0939628
0.0440594
0.045467
0.104614
0.0447583
-0.0604434
0.0226331
-0.00833306
-0.00720367
0.00969746
-0.000964164
0.0180415
0.0343053
-0.00963007
0.0408097
0.00909805
-0.00117254
-0.0074392
0.0328176
-0.0243368
0.0178123
0
-0.00108434
-0.0591386
0.017718
0.0133239
0.0448955
-0.0132737
-0.00115952
-0.03009
0.0217661
0.0222374
-0.00605075
0.00813973
0.0122424
-0.0147068
-0.029951
0.00624017
-0.000961541
0.00966788
0.00553712
0.0051033
-0.00809268
-0.00767315
-0.00748877
0.00110002
-0.0232632
-0.0209056
-0.00964823
-0.0264063
-0.031828
0.0135838
-0.0373962
-0.0511296
0.0120255
0.00262247
0.0157457
0.017816
-0.0307267
-0.0355512
-0.0177737
-5.96464e-05
0
0
0
0
0
0
0
0
0
0
0
0
0
0
0
0
0
1.98363e-05
0
0
0
0
0
-1.02208e-05
0
-4.78985e-05
0
-2.59712e-05
0
0
0
0
0
0
0
0.00693758
0.0373095
0.024598
0
-0.0161665
0.0083173
-0.00992282
-0.00894958
-0.0126152
0.0214384
0.0622155
0.00418487
0.0396408
0.0226055
0.0365281
0.0351309
-0.0102376
0.043983
0.034386
-0.00385705
-0.0838346
0.0148035
-0.00889946
0.0889487
0.130693
-0.0294644
0.0511402
-0.103496
-0.0901249
0.0847028
-0.0306238
0.0329436
0.0803789
-0.0498386
0.0365224
-0.0946772
-0.0135672
-0.0742889
-0.086128
-0.0869175
-0.0734289
-0.0531551
-0.0912546
-0.0437718
-0.0821733
-0.102784
-0.127679
0.0320161
-0.1003
-0.114373
-0.00432591
-0.106191
-0.0954155
0.0246339
-0.0996692
-0.0718787
0.0438244
-0.090668
-0.0553866
0.058552
-0.0764202
-0.0378809
0.0623673
-0.0525868
-0.0141065
0.0603841
-0.0379772
0.00496684
-0.0498244
-0.00745076
0.0115891
0.0183425
0.00426277
0.0041953
-0.0160879
0.0276125
-0.0151786
-0.0247049
0.0176238
0.0269885
0.0516301
0.0206911
-0.090823
0
-0.000780204
-0.000536518
0
0
-7.67354e-07
7.92977e-07
0
0
0
0
0
0
0
0
0
2.20055e-05
0
-6.15763e-05
4.43928e-05
0.000197837
0.000135593
8.19088e-05
2.54248e-06
-0.000178215
0
-7.31772e-05
4.64921e-05
0
-0.00494997
-0.00229785
0
0
0
6.70747e-05
0
-4.79102e-05
-7.65515e-05
0.000157787
0.000204116
0
1.85164e-05
0
0
0
0
0
0
0
0
0
0
0
-5.73965e-08
1.61189e-08
0
0
0
0
0
0
0.00494792
0
-0.00343372
0
-0.00479337
0
0
0
0
0
0
0
0
2.84168e-05
0
0
0
0
0
0
0
0
0
0
0
-3.59206e-05
0
0
0
0
0
0
0
0
0
0
0
0
2.17054e-05
0
0
0
0
0
0
0
0
0
0
0
0
0
-8.11579e-05
0
0
0
0
0
0
0
0
0
0
0
0
0
0
0
0
0
0
0
0
0
0
0
0
0
0
0
0
0
0
0
0
0
0
0
0
0
0
0
0
0
0
0
0
0
0
0
0
0
-1.44049e-06
3.95491e-11
0
0
0
0
0
0
-0.0241579
-0.0358422
0.00315372
-0.0308816
0.00468817
-0.0292756
-0.00511361
-0.0295046
0.0186406
-0.0171874
-0.0481083
0.00035088
-0.0257169
0.0444483
0.0168794
-0.0263494
-0.00525004
0.0119645
0.0336313
0.0409187
0.02546
0.0409954
0.012571
0.0227589
0.00292596
-0.00101914
0.0305908
0.00717345
0.008966
0.00378712
0.00818046
0.00521072
-0.0160509
-0.0150605
0.00829932
-0.000321045
0.000549927
0.0105613
-0.0193115
0.0074642
-0.00767702
-0.00590788
-0.0140787
0.00196789
0
0
0
0
0
0
0
0.00701665
-0.0491294
0
0
0
0
0
0
0
0
0
0
0
0
0
0
0
0
7.91053e-05
5.68617e-05
0.000146642