/*--------------------------------*- C++ -*----------------------------------*\
  =========                 |
  \\      /  F ield         | OpenFOAM: The Open Source CFD Toolbox
   \\    /   O peration     | Website:  https://openfoam.org
    \\  /    A nd           | Version:  8
     \\/     M anipulation  |
\*---------------------------------------------------------------------------*/
FoamFile
{
    version     2.0;
    format      ascii;
    class       volScalarField;
    location    "10380";
    object      alpha;
}
// * * * * * * * * * * * * * * * * * * * * * * * * * * * * * * * * * * * * * //

dimensions      [0 0 -1 0 0 0 0];

internalField   nonuniform List<scalar> 
526318
(
0.000275945
0.000519455
0.000318813
0.000430688
0.000315597
0.000313017
0.00104786
0.000620426
0.000244773
0.000338346
0.000255713
0.000777833
0.00090301
0.000520672
0.00066399
3.74498e-05
0.000124431
9.70184e-05
0.000228386
0.000406496
0.000387166
0.000375703
0.00251853
0.000806915
0.000339838
0.000952175
0.000284586
0.000766644
0.000752424
0.000263366
0.000374806
0.000472039
0.000309649
0.000438723
0.000375299
0.000784757
0.000230326
0.000565187
0.000118488
0.00026324
0.000422589
0.000297891
0.000821327
0.00180147
0.0102781
0.0058272
0.00174763
0.00114261
0.000699155
0.00115033
0.000350997
0.000601292
0.000994999
0.000311173
0
0.00369522
0.0185689
0
0.000235939
0.000310544
0.00029878
0.00049148
0.000737243
0.000338475
0.000248003
0.000615269
0.000514872
0.000706857
0.000925937
0.000287722
0.000513509
0.000636615
0.00105213
0.00172657
0.00114114
0.000744266
0.00173808
0.00169702
0.00197469
0.00205685
0.0013638
0.00157384
0.00208104
0.00217115
0.0021054
0.000439305
0.000630132
0.000298641
0.000490706
0.000185383
0.000636366
0.00111591
0.000695941
0.00142259
0.00153632
0.000900821
0.00105552
0.000287336
0.000605833
0.00119989
0
0
0
0
0
0
0.00533244
0.0431089
0.00409186
0.00384584
0.00171501
0.00186256
0.000800235
0.000383134
0.000405913
0.000489797
0.000397319
0.000129318
0.000590444
0.000886958
0.000830261
0.000560167
0.000920401
0.00183936
0.00147938
0.00164134
0.00112007
0.00448594
0.00219253
0.000982583
0.00324964
0.00306324
0.00293289
0.00575271
0.00204223
0.00535911
0.00464093
0.0047415
0.00637419
0.0232377
0.0100545
0.00747739
0.00307673
0.00686248
0.019695
0.0209203
0.00600933
0.0161123
0.0147752
0.0200219
0.0111301
0.0428211
0.0141578
0.0201015
0.00745004
0.0518777
0.00511996
0.0161993
0.0702187
0
0.0129978
0.0443914
0.0101628
0.000845497
0.000243023
0.000319407
7.2634e-05
0.000477398
0.000646699
0.00101032
0.00125266
0.00133188
0.00187378
0.00201907
0.00279933
0.00421759
0.00224778
0.00175619
0.00118763
0.000157175
0.000565547
0.000502528
0.00069073
0.00106057
0.00160338
0.00686258
0.0031036
0.00210942
0.00386227
0.00486095
0.00441169
0.00120561
0.00273873
0.00371886
0.00654433
0.00750313
0.00451161
0.00843831
0.00698919
0.00943952
0.00132783
0.0131016
0.00998075
0.0158625
0.00854104
0.00213299
0.0133697
0.0120943
0.0184848
0.00418154
0.00142657
9.52191e-05
0.000781413
0.000473552
0.00101405
0.00063647
0.000591162
0.000684735
0.00102378
0.00607886
0.00294299
0.0066028
0.00284178
0.000905714
0.00130392
0.00122477
0.000524148
0.00116598
0.000833063
0
0
0
0.0167428
0
0
0
0
0
0
0.000473293
0.000371314
0.000334023
0.000345003
0.000537057
0.000740354
0.000809323
0.000376933
0.00114153
0.001384
0.00104732
0.000981457
0.000555523
0.000495091
0.000170007
0.000525785
0.000804173
0.000543569
0.000645675
0.00081937
0.000866891
0.000751873
0
0
0
0
0
0
0
0
0.00534707
0.0178711
0.00330078
0.00162826
0.000197545
0.001073
0.000200248
0.000638913
0.000404597
0.000351164
0.000207702
0.000315636
0.00158946
0.000951417
0.000292138
0.00182731
0.00251852
0.0043587
0.00808841
0.00916176
0.00937394
0.00509036
0.0240757
0.0151057
0
0.146793
0.0126198
0.0260039
0.00139295
0.0188692
0.0301837
0.0183881
1.63566
0
0.0351832
0.024677
0.148705
0.0261994
0.0693937
0.485652
0.230778
0
0
0
0
0
0
0.00554731
0.00748562
0.00513299
0.0156204
0.000901909
0.000551231
0.00153337
0.0017161
0.00180637
0.00217377
0.0022071
0.00205409
0.00180765
0.00109953
0.00533735
0.00584962
0.00407996
0.00263974
0.00173465
0.00360032
0.00321206
0.00108552
0.012587
0.003027
0.00173201
0.00426724
0.00516703
0.00537864
0.00550231
0.00439524
0.0041231
0.00403121
0.00342409
0.00237277
0.00465509
0.00505565
0.00120128
0.00578798
0.00764196
0.00072749
0.00367727
0.00311913
0.0165085
0.0204152
0.00508413
0.00310073
0.00936056
0.00570585
0.017149
0.0106806
0.00927989
0.0074691
0.00653603
0.00528941
0.00360472
0.00139642
0.0027279
0.00261699
0.00480455
0.00525757
0.00119026
0.00109418
0.00072318
0.000420512
0.00123888
0.00106166
0.000515847
0.00113792
0.0013431
0.0019862
0.00117756
0.00111494
0.00600778
0.1006
0.0320061
0.0363763
0.00266578
0.00121019
0.00372881
0.000988444
0.00334566
0.000878251
0.000868455
0
0
0
0
0
0
0
0
0
0
0
0
0
0
0
0
0.000393213
0.000390616
0.000155797
0.000232251
0.000314918
0.000463536
0.000455978
0.000615209
0.00105411
0.000545751
0.000215009
0.000129651
8.25393e-05
0.000666522
0.000541193
0.000508339
0.000284081
0.000723991
0.00081073
0.000776383
0.000731256
0.00035642
0
0.00137981
0.00647417
0
0
0
0
0
0.00112498
0.00366755
0
0
0
0
0
0
0
0
0
0
0
0
0
0
0.377263
0
0.00877427
0.00333857
0.00135611
0.00160643
0.000547379
0.000515537
0.000429671
0.000540764
0.000389406
0.000203276
0.000283201
0.000261458
0.00122916
0.00260487
0.00129245
0.00108175
0.00117351
0.00662634
0.00657613
0.0077737
0.00841802
0.0187082
0.0072557
0.132338
0
0
0.0379652
0.300392
0
0.031248
0.058821
0.0180016
0
0
0
0
0
0
0
0
0
0
0
0.00135243
0.00215463
0.0057305
0.00482469
0.00428215
0.0014732
0.00137303
0.00180227
0.00381516
0.007034
0.00466138
0.000986008
0.00523799
0.155697
0.00194857
0.00318958
0.00323474
0.00258097
0.00578139
0.00372533
0.00468185
0.00419137
0.00426988
0.00552156
0.00495717
0.0046257
0.00965107
0.0115673
0.00955045
0.00560955
0.0945354
0.0145011
0.0384945
0
0
0.00465777
0.00803173
0.000975612
0.000509717
0.00582461
0.000704951
0.00244254
0.00357657
0.000503071
0.00409284
0.00226519
0.00192849
0.000764074
0.00197556
0.00335352
0.000599468
0.00218316
0.00296744
0.00287394
0.00463393
0.00823851
0.00122823
0.00388025
0.00706179
0.0043073
0.00213938
0.00753934
0.00334469
0.00218879
0.00264653
0.00124185
0.00185398
0.000662648
0.00187296
0.00121
0.00112739
0.00260396
0.000919798
0.000644613
0.00117928
0.00116786
0.000109379
0.00146297
0.000881414
0.0019534
0.00143471
0.00150661
0.0106979
0.0172676
0.00255674
0.000573053
0
0
0.0463422
0.00412966
0.00795156
0.0037435
0.0114228
0.0202095
0.0174323
0.123234
0
0
0
0
0
0
0
0
0
0
0
0
0
0
0
0
0
0
0
0
0
0
0
0
0
0
0.00877553
0
0.000278684
0
0.00388594
0.0095317
0
0
0
0
0
0
0
0
0
0
0
0
0
0
5.27353e-05
0.000288012
0.000191114
0.000292451
0.00028609
0.000334949
0.000895213
0.000332204
0.000313929
0.000893702
0.000382698
0.000465452
0.000400069
0.000506995
0.000132339
0.000633206
0.000800054
0.000468554
0.00129075
0.00107304
0.00171656
0.00151757
0
0
0
0
0
0
0
0
0
0
0
0
0
0
0
0
0
0
0
0
0
0
0
0
0
0
0
0
0
0
0
0
0
0
0.00531593
0.0824388
0.000936717
0.00380692
0.00180652
0.000504087
0.00084314
0.000262083
0.000250798
0.000363566
0.000499963
0.000196375
0.000455707
0.000442323
0.00302199
0
0
0
0
0
0
0
0
0
0
0
0
0
0
0
0
0.000778934
0.00234874
0.00170146
0.00252736
0.00263644
0.00443655
0.0563045
0.185481
0
0
0
0
0
0
0
0
0
0
0
0
0
0
0
0
0
0
0
0
0
0
0
0
0.00103659
0.00171891
0.000697519
0.00100063
0.00102277
0.00200076
0.00156918
0.000788726
0.000628588
0.00137856
0.00708924
0.00273253
0.00148791
0.00165279
0.0080378
0.00359989
0.00860187
0.011166
0
0.0281346
0.0372645
0
0.00204492
0.0120495
0.00375012
0.0106753
0.0116429
0.00977077
0.00968083
0.0061186
0.0486306
0.0291265
0
0.0111488
0.0143598
0.198445
0
0
0
0
0
0.117664
0.0213214
0.233278
0.00554284
0.00615461
0.00627963
0.00178159
0.00124735
0.0029549
0.00434511
0.00280314
0.00339568
0.00467833
0.0017729
0.00108186
0.00417104
0.00158934
0.00473743
0.00266036
0.00133803
0.00355754
0.00256183
0.0045878
0.00441118
0.00515406
0.00398741
0.00487803
0.00420689
0.00250266
0.00261633
0.000841228
0.00244331
0.000969846
0.00251729
0.000866615
0.00144995
0.00068678
0.00146862
0.000480294
0.000962755
0.000933959
0.000693401
0.000651017
0.000968675
0.000550188
0.000755005
0.00110354
0.000655834
0.000638218
0.000687846
0.000484616
0.000595072
0.000456278
0.00048125
0.000537192
0.000535571
0.00047216
0.000389605
0.000405628
0.000434963
0.00038589
0.000355493
0.000370879
0.000376458
0.000385331
0.000386704
0.000425546
0.000374066
0.000428173
0.000336865
0.00035466
0.000391305
0.000330109
0.000421095
0.000256096
0.00042147
0.000376617
0.000423114
0.000352746
0.000371939
0.00845432
0.00499639
0.00175916
0.00141405
0.000535851
0.0039236
0.0021563
0.352813
0.00948649
0
0
0
0
0
0
0
0.0350383
0
0
0
0
0
0
0
0
0
0
0
0
0
0
0
0
0
0.00753072
0
0
0
0
0
0
0
0
0.0093769
0
0
0
0
0
0
0
0
0
0
0
0
0
0
0.00267983
0.000297101
0
0
0.000754145
0
0
0
0
0
0.00043667
0.00513228
0
0.000862587
0
0
0
0
0
0
0
0
0
0
0
0
0
0
0
0
0
0
0
0
0.0122328
0
0
0.000267616
0.000203742
0.000386986
0.000216787
0.000209108
0.000289866
0.000516473
0.000694833
0.000397987
0.00027646
0.000466322
0.00057796
0.000343847
0.000369876
0.0012082
0.00128362
0.00173009
0.000288455
0.000830818
0.000828302
0.00137548
0.00116754
0
0
0.00476542
0.00345461
0
0
0
0
0.00812681
0
0
0
0
0
0
0
0
0
0
0
0
0
0.0105916
0.00863828
0
0
0
0
0.00975521
0
0.00258712
0.00107234
0.00240232
0.000621488
0.00166354
0.000586209
0.000592967
0.000765137
0.000768357
0.000701652
0.000692906
0.00052878
0.000579077
0.000502296
0.00322078
0
0
0
0
0.000125519
0
0
6.33487e-05
0
0
0
0
0
0
0
0
0
0.0247114
0
0
0
0
0
0.475976
0
0.00226166
0.00108128
0.024002
0.00610405
0
0
0
0
0
0.00463175
0
0
0
0
0
0
0
0
0.0102475
0.0246284
0
0
0
0
0
0
0
0
0
0
0.00131955
0
0.000688724
0.000815889
0.000674178
0.00246948
0.0013937
0.00167259
0.000438672
0.00131475
0.000780389
0.000440698
0.000503077
0.000792108
0.000473055
0.000453535
0.000414114
0.000352096
0.00038497
0.000385181
0.00045179
0.000465018
0.000477716
0.000433828
0.000469638
0.000416285
0.000353443
0.000396279
0.000348767
0.00026015
0.000419294
0.000470331
0.00494511
0.00778181
0.00109087
0.00190702
0.00656909
0.0158433
0.0160312
0.00532891
0
0.0752807
0
0.48905
0
0.00594268
0.020759
0.0136915
0.00775752
0.00934982
0.0278024
0
0
0
0
0
0
0
0
0
0
0
0
0
0.0774082
0
0.00361856
0.051136
0.0145039
0.0024281
0.000615511
0.00519602
0.00517783
0.00217858
0.00283383
0.00252587
0.00236325
0.00216018
0.00219883
0.0027476
0.00246727
0.00252975
0.00316381
0.00247347
0.00218205
0.00281434
0.0033542
0.00294999
0.00242499
0.0029463
0.00147692
0.00170204
0.00388485
0.00110309
0.00135021
0.00384898
0.00124117
0.00117264
0.000790443
0.00147194
0.00138964
0.000805075
0.000942817
0.000655712
0.000924099
0.000676941
0.000715924
0.000942864
0.000528412
0.00058651
0.00040963
0.00053485
0.000422199
0.000448646
0.000391328
0.000441487
0.000372151
0.000438334
0.000229729
0.000438628
0.000262434
0.000351929
0.000162087
0.000334563
0.00028446
0.000311213
0.000189732
0.000304001
0.000264966
5.53121e-05
0.000151496
7.58283e-05
0.000198411
8.90983e-05
0.000193574
0
0
0
0.0166162
0
0.0216274
0.00364269
0.0113978
0.0152756
0
0
0
0
0.368248
0
0
0
0
0
0.016458
0.0126334
0
0
0
0.055305
0
0
0
0
0.00642883
0.0172648
0
0
0
0.00919267
0
0
0
0
0
0
0
0.0103501
0
0
0
0
0
0
0
0
0.000135038
0
0
0
0
0
0
0
0
0
0
0
0
0
0
0.000544256
0
0
0
0
0
0
0
0
0
0
0
0
0
0
0
0
0
0
0.000297346
0.000370484
0.000289646
0.000346554
0.000438219
0.000456875
0.000387038
0.000260447
0.000663489
0.00028897
0.00038383
0.000549166
0.000527752
0.000239953
0.00118661
0.00398715
0.00683442
0.00158892
0.00121264
0.000438135
0.0015647
0.00180754
0.00271052
0
0.000139094
0
0
0
0
0
0
0
0
0
0
0
0
0
0
0
0
0
0
0
0
0
0
0
0
0
0.0174703
0
0.002206
0.000577691
0.000915687
0.000811932
0.000725827
0.0010612
0.000861805
0.000962813
0.000874545
0.000778224
0.000564557
0.000331108
0.000452699
0.000552491
0
0
0
0
0
0
0
0
0
0
0
0
0
0
0
0
0
0
0
0
0
0
0.435674
0
0
0
0
0
0
0
0
0.0278049
0.0860578
0
0
0
0
0
0
0.00696209
0.0928037
0
0
0
0
0
0.00128151
0.00205493
0
0
0
0
0
0
0
0
0
0
0
0
0
0
0
0
0
0
2.72917e-05
2.07476e-05
2.95104e-05
0.000127373
6.86318e-05
3.55696e-05
0.000102393
0.000157818
4.26674e-05
0.00014359
7.67305e-05
0.000107855
6.61293e-05
1.38276e-05
9.31378e-05
0.000156772
8.72045e-05
3.25052e-06
6.76776e-05
0.000129015
1.30076e-05
2.82066e-05
5.58773e-05
1.64288e-05
0.00013069
5.69841e-05
0.000159839
9.63806e-05
2.76104e-05
0.000390725
0.00033882
0.000318493
0.000377148
0.000292947
0.000224499
0.000655575
0.00053365
0.00055781
0.00136048
0.00130642
0.00075903
0.00070773
0.00109005
0.00062379
0.000409944
0.000629654
0.000480392
0.000487291
0.000429788
0.00042534
0.000381138
0.000437387
0.00043829
0.000511967
0.000479757
0.000517433
0.000477572
0.000548694
0.000488292
0.00044606
0.000454284
0.000571657
0.00055169
0.00276205
0.00691618
0.0152376
0.00392997
0.00681734
0.00117576
0.000822687
0.0588044
0.00327338
0
0
0.000117248
7.05139e-05
0.000114662
4.52629e-05
5.60042e-05
6.47375e-05
3.63168e-05
3.71272e-05
6.85846e-05
3.5629e-05
4.94319e-05
3.19312e-05
6.0625e-05
3.35346e-05
4.97002e-05
0.000180018
0.00011354
0.000111441
0
0
0.00292405
0.0226993
0
0.00721682
0.0428134
3.61883
0.00242725
0
0.00674369
0.0104948
0
0
0
0
0
0
0
0
0
0
0.0376275
0
0.0583068
0
0.00507729
0.0182524
0.00630154
0.000942469
0.0028164
0.00309736
0.00420997
0.00249909
0.00173369
0.0028445
0.00257617
0.00159276
0.00140182
0.00133706
0.00205225
0.00264394
0.00149945
0.000575243
0.00169504
0.0007867
0.00135054
0.00243221
0.00280548
0.00127919
0.00133857
0.00116684
0.00106888
0.00251378
0.00145668
0.00122734
0.00151301
0.00127677
0.00134641
0.000675442
0.0011304
0.000793436
0.000807477
0.000982808
0.000580014
0.000590956
0.000382809
0.000543169
0.000389343
0.000479992
0.000422378
0.000349526
0.000376137
0.000458429
0.000413503
0.000242277
0.000193261
0.000242208
0.000117513
0.000333412
5.12212e-05
0.000422536
4.73558e-05
0.000200681
0.000122333
0
0
7.60234
0
0
0
0
0
0
0
0
0
0
0
0.00876138
0
0
0
0
0.0265599
0
0
0
0
0
0
0
0
0.00377306
0.00421017
0.0253801
0
0.00247592
0
0
0
0
0
0
0
0
0
0.0137672
0
0
0
0
0
0
0
0
0.202595
0
0
0
0
0
0
0
0
0
0
0
0
0.00121563
0
0
0
0
0.00124026
0
0
0
0
0
0
0
0
0
0
0
0
0
0
0
0
0
0
0
0.00271258
0
0
0
0
0.00312836
9.61699e-05
0.000223038
0.000174496
0.000250027
0.00010164
6.19738e-05
0.000457485
0.000261166
0.000479185
0.000292977
0.000225271
4.37832e-05
0.000646327
0.000647878
0.000876261
0.000401003
0.000668703
0.000499119
0.00174352
0.000783875
0.00215475
0.00917134
0.00356253
0.00020214
0.00159728
0
0
0
0
0
0
0
0
0
0
0
0
0
0
0
0
0
0
0
0
0
0
0
0
0
0
0
0.0042078
0.0021483
0.00200275
0.00150199
0.000219364
0.000347199
0.0002805
0.00183716
0.000816506
0.000608168
0.000690058
0.000403507
0.000447872
0.00060586
0.000109391
0.000370781
0
0.00106859
0
0
0
0
0
0
0
0
0
0
0
0
0
0
0
0
0
0
0
0
0
0
0
0
0
0
0
0
0
0
0
0
0
0
0
0.0527467
0.0136626
0.00934741
0
0
0
0
0
0
0
0
0
0
0
0
0
0
0
0
0
0
0
0
0
0
0
0
0
0
0
0
0
0
0
0
0
0
1.26209e-05
4.68493e-05
7.73401e-05
4.64616e-05
0.000286884
0.000365494
0.000245919
0.000260238
0.000136312
0.000198783
0.000186987
9.97246e-05
0.00011274
0.000194962
7.84703e-05
0.000197255
0.000432116
0.000440262
0.000424835
0.000341187
0.000280924
0.000336748
0.000753323
0.000713999
0.000757285
0.000811147
0.00111418
0.000975896
0.000929477
0.000729643
0.000638736
0.00056526
0.000535827
0.000715949
0.000509095
0.00050605
0.000568923
0.000663394
0.000634253
0.000471861
0.000488204
0.000481647
0.000508852
0.000515442
0.000511
0.000487675
0.000537894
0.00055478
0.000616278
0.000594282
0.000524204
0.000649422
0.000656458
0.0135577
0.00777735
0.00250208
0.00114748
0.00423738
0.00824966
0.000459544
0.00157685
0.00497747
0.0561362
0
0.273095
0.000114138
0.000200254
0.000205583
6.18142e-05
7.67499e-05
7.74885e-05
5.03697e-05
5.09694e-05
5.38662e-05
3.36885e-05
1.85682e-05
7.04302e-06
2.35445e-05
6.17027e-05
5.67155e-05
8.9308e-05
4.92238e-05
0.000194848
0.000146512
2.19714e-05
0.000116571
5.02489e-05
0.000181405
8.47628e-05
0.000157643
0.00466998
0.0113723
0.00612123
0
0
8.0956
0
0
0
0
0
0
0
0.0104022
0
0.00486728
0
0
0
0
0.00410638
0
0
0
0.0215372
0.0116054
4.48559
0.0368196
0.00891086
0.00909805
0.00345006
0.00255033
0.00237078
0.00319814
0.00377299
0.00257244
0.00225586
0.00226026
0.00224294
0.0013196
0.0021471
0.00226874
0.00173365
0.00265226
0.00207484
0.00114557
0.00196229
0.00156692
0.00225927
0.00130274
0.00128572
0.00127148
0.00216657
0.00106544
0.000589642
0.00132149
0.000812955
0.000725725
0.00102871
0.000726938
0.000816007
0.000599621
0.000583274
0.000395514
0.00049557
0.000450212
0.000428039
0.000343854
0.000386673
0.0004007
0.000308307
0.000228001
0.000349723
6.24056e-05
0.000173795
0.000162065
0.000218412
0.000242289
0.000241595
0.000166369
0.000446468
0.000370568
0
0
0
0
0
0
0
0
0
0
0
0
0
0
0
0
0
0
0
0
0
0
0
0
0
0
0.0515331
0
0.00928157
0.00237669
0
0
0
0
0
0
0
0
0
0
0
0
0.271971
0
0
0
0
0
0.0103579
0
0
0.346331
0
0
0
0.00646529
0.00415344
0
0
0
0
0
0
0
0.00346536
0.000747235
0
0
0.000133471
0.00367111
0
0
0
0
0.00765235
0
0.0106422
0
0
0
0
0
0
0
0
0
0
0
0
0
0
0
0
0
0.0047177
0
0
0
0
0
0
0
0
0.000126702
0.00039664
4.68415e-05
0.000204917
0.000151813
0.000160725
0.000220341
0.00016606
4.33197e-05
0.000128521
0.000131376
9.93556e-05
0.000461606
0.000307704
0.000190525
0.000600748
0.000239675
0.0010285
0.000160619
0.000234772
0.000479023
0.00150704
0.000772748
0.00340408
0.00799872
0.00241871
0.00767847
0
0
0
0
0
0
0
0.00285224
0.0439876
0
0
0
0
0
0
0
0
0
0
0.000118959
0
0
0
0
0
0.000256874
0.000521682
0.000634916
0.00457158
0.00148301
0.00240582
0.000476026
0.000147853
0.000649492
0.000138432
0.0014055
0.000913451
0.000463821
0.000271757
0.00046656
0.000970465
0
0
0.00100565
0
0
0
0
0.000216104
0
0
0
0.0405344
0
0
0
0.0175893
0
0
0
0.0237278
0
0
0
0
0
0
0
0
0
0
0.0127753
0
0
0
0
0
0
0
0
0
0
0
0
0
0
0.048741
0.021364
0.0223114
0
0
0
0
0
0
0.00172825
0
0
0.000462772
0
0
0
0
0
0
0
0.00315084
0
0
0
0
0
0
0
0.00300887
0
0.00473186
0
0
0
0
0
0
0
0.00402415
0.000105339
0.000115071
0.000177039
0.000388325
7.53839e-05
0.000298907
0.000240242
0.000442986
0.00057262
0.000308603
0.000404671
0.000287345
0.000134777
0.000212948
0.000255729
0.000282736
0.000265667
0.000282552
0.000267813
0.000250958
0.000157303
0.000168462
0.000490602
0.000474311
0.000413071
0.00046839
0.000413642
0.000395376
0.000625837
0.000996331
0.000662312
0.000571686
0.00166109
0.000306504
0.000740967
0.000470981
0.000589043
0.000581932
0.000513571
0.000563009
0.000567536
0.000523659
0.00067645
0.000790628
0.000554785
0.000532512
0.000591873
0.000567777
0.000542832
0.00055311
0.0005672
0.000539643
0.000624487
0.000656888
0.000569078
0.000645749
0.000720297
0.000680065
0.0090825
0.00727185
0.00139051
0.00135852
0.00320409
0.00693579
0.000667873
0.00103509
0.0209936
0.013226
0.00787796
0
0.000308562
0.000324016
5.3137e-05
9.01288e-05
0.00015003
9.725e-05
0.000117114
0.000156206
8.94803e-05
5.34182e-05
6.38489e-05
3.10889e-05
2.70331e-05
6.3507e-05
4.15611e-05
8.93884e-05
0.000126616
0.0001627
0.000173547
0.00010839
0.00016503
7.56438e-05
0.000102497
0.000109683
0.0001669
0
0
0
0
0
0
0
0
0
0
0
0
0
0
0
0
0.00415416
0
0
0
0
0
0
0
0.0146078
0.0069415
0.0862686
0
0.0188197
0.00728123
0.00568962
0.00367967
0.00355979
0.00193234
0.00233673
0.00263807
0.0025272
0.00273101
0.00300406
0.00277752
0.00364321
0.00218537
0.00177731
0.0025795
0.00156241
0.00197594
0.00192787
0.00203328
0.00238196
0.000998865
0.000708306
0.0012743
0.00127425
0.00120592
0.000978752
0.000735361
0.000925526
0.000944964
0.000864565
0.000723834
0.000574978
0.000529603
0.000520149
0.00048479
0.000441232
0.000410163
0.000331399
0.000356279
0.000299157
0.000228934
1.10206e-05
0.000158476
0.000134352
2.01603e-05
0.000121902
0.000210754
0.000341199
0.000376429
0.000303936
0
0
0.136226
0.000212765
0
0
0
0
0
0
0
0.00977974
0
0.015334
0.0136704
0.0247629
0.00880616
0
0.0151322
0.1068
0
0
0
0.0402622
0
0.11795
0.116748
0
0
0
0
0
0
0
0
0.000204203
0
0
0
0
0
0
0.762678
0
0
0
0
0
0
0
0
0
0
0
0
0
0
0
0
0
0
0
0
0
0
0
0
0
0
0
0
0
0
0
0
0
0
0
0
0
0
0
0
0
0
0
0
0
0
0
0
0
0
0
0
0
0
0
0
0
0
0
0
0
0
0
0
0
0
0
0
0
0.000179515
0
0
0
0
7.1982e-05
8.26857e-05
0.000118054
4.8696e-05
0.000137763
0.000133374
0.00019955
0.000238178
0.000318722
0.000235855
0.000150751
0.000105463
9.30997e-05
0.000484392
0.000332311
0.000835936
0.000525504
0.000935397
0.000571412
0.000268347
0.000372854
0.000250506
0.0030635
0.000959613
0.00958619
0.0026158
0.000744708
0.00515376
0.0126606
0
0
0
0
0
0.0349007
0
0
0
0
0
0
0
0
0
0
0
0.00515316
0.0206776
0
0.0104097
0
0
0
0.000725644
0.000254006
0.000638831
0.000882337
0.00080535
0.00934422
0.00316021
0.00341374
0.000664969
0.00114547
0.00109618
0.00127854
0.00102478
0.000374152
0.00112562
0.00015745
0
0.00356523
0
0
0
0
0
0.000203732
0
0
0.000214087
0
0
0
0.0361653
0
0
0
0
0
0
0
0
0
0
0
0
0
0
0
0
0
0
0
0
0
0.00139913
0
0.00908828
0
0
0
0
0
0
0
0
0
0
0
0
0
0
0
0
0
0
0.0434606
0
0
0
0
0
0
0
0
0
0
0
0
0
0
0
0
0
0
0
0
0
0
0
0
0
0
0
0
0
0
0
0
0.0105084
0.0102735
0
0
0
0
0
0
0.000374172
0.000338459
0.000185512
0.000819921
0.000458808
0.000876238
0.000385493
0.000868826
0.000536468
0.000443189
0.000229579
0.000179371
0.000349426
0.000377443
0.000354053
0.000306005
0.00030296
0.000311865
0.000265472
0.000159001
0.000269507
0.000526849
0.000522453
0.000467067
0.000526883
0.000479085
0.000433273
0.000450704
0.000741142
0.000392437
0.000376425
0.000417285
0.00146257
0.000300486
0.000342212
0.000537542
0.000641023
0.000589233
0.000557651
0.000730478
0.000641394
0.00074378
0.000754248
0.000675414
0.000681198
0.000671736
0.000683734
0.000608071
0.000623922
0.000584114
0.000617959
0.000641243
0.000686728
0.000673571
0.000617717
0.000670189
0.000733425
0.00739375
0.00105595
0.000675172
0.00198995
0.000676847
0.00271113
0.00154821
0.000566481
0.00718398
0.00542931
0.00816
0
0
0
0
0.000276781
0.000318937
9.55181e-05
0.000158549
0.000124629
0.00010427
0.000198197
0.000163491
0.000115907
0.000148924
7.45975e-05
3.45716e-05
3.43952e-05
7.9468e-05
7.84535e-05
0.000113176
0.000186298
0.000142581
0.0001784
0.000144679
0.000108312
0.000131744
8.73019e-05
8.66718e-05
9.05783e-05
0.000102274
0
0
0
0
0
0.008873
0.00446848
0
0
0
0
0.00429693
0.00581993
0
0
0
0
0
0
0
0
0
0
0
0
0.364745
0.0222196
0
0.00465325
0.0137776
0.00243605
0.000509507
0.00279204
0.00395215
0.00390113
0.00236671
0.0029206
0.00374957
0.00216708
0.00302325
0.00328344
0.00255869
0.00216306
0.00227359
0.00158248
0.00209409
0.00219926
0.00234928
0.00148229
0.00114875
0.00123507
0.00107176
0.00126153
0.00131173
0.000997597
0.00108551
0.000952079
0.00101258
0.000839798
0.000681708
0.000600653
0.000577125
0.000551095
0.000498554
0.000394758
0.000403073
0.000319819
0.000297465
8.4363e-05
0.000144114
0.000129134
4.30843e-05
0.000209006
6.92768e-05
8.90735e-05
0.000153956
3.25728e-05
0.000253805
0
0
0
0
0
0
0
0
0
0.0226653
0
0
0
0.0201664
0.0207435
0.0102436
0.0163275
0.0247073
0.0353749
0
0
0
0
0
0
0
0
0
0
0
0
0
0
0
0
5.29629e-05
0
0
0
0.0381664
0
0
0
0
0
0
0
0
0
0
0
0
0
0
0
0
0
0
0.057406
0
0
0
0
0
0.00274555
0.00177877
0.00473019
0
0
0
0
0
0
0
0
0
0
0
0
0
0
0
0
0
0
0
0
0
0
0
0
0
0
0
0
0
0
0
0
0
0
0
0
0
0
0
0
0
0.00758383
0
0.00285116
0
0
0.0012958
0
0
0.000124932
0.000135394
0.00013952
8.96017e-05
6.16444e-05
0.000139273
0.000186944
0.000321129
0.000194076
6.98409e-05
0.000236241
0.000185304
0.00010737
0.000148625
0.000185367
0.00032654
0.000265331
0.000139435
0.000223269
0.000895974
0.00063409
0.000362281
0.00192767
0.000264458
0.000312761
0.000656854
0.00081851
0.00255731
0.0112798
0.00919273
0.00702882
0.0258737
0.0262068
0
0
0
0.0114678
0
0
0
0.0104613
0
0
0
0
0
0
0
0
0
0
0
0
0.0116283
0
0
0
0.00131749
0.00098217
0.00105928
0.00117482
0.00732095
0.00731584
0.00291123
0.00118795
0.000400058
0.00171563
0.000950453
0.00160485
0.000542003
0
0
0
0
0
0
0.0165097
0.00705061
0
0
0
0
0
0
0
0
0
0.430636
0
0
0
0
0
0
0
0.00423598
0
0
0.0281497
0
0
0
0
0
0
0
0
0
0
0
0
0
0
0
0
0
0
0
0
0
0
0.00309389
0
0
0
0
0
0
0
0
0
0
0
0
0
0
0
0.000183325
0
0
0
0.00723384
0
0
0
0
0
0
0
0
0
0
0
0
0
0
0
0
0
0
0
0
0
0
0
0
0
0.00419744
0
0
0
0
0
0
0
0
9.13846e-05
0.000827075
0.00135063
0.000581247
0.000685616
0.000127027
0.000620679
0.000294611
9.73706e-05
0.000208346
0.000129181
0.000180345
0.000152033
0.000167168
0.000419418
0.000400439
0.000337621
0.000343134
0.00030243
0.000255508
0.000271836
0.000326354
0.000624754
0.000575246
0.000600213
0.000511068
0.000538323
0.000478747
0.000418635
0.000473298
0.00026414
0.00017384
0.000926457
9.20984e-05
0.000351312
0.000322383
0.000814159
0.000721068
0.000700523
0.000761434
0.000688613
0.000633348
0.000752951
0.000696226
0.000673175
0.000588575
0.00068034
0.000598459
0.000623302
0.000548464
0.000659566
0.000518843
0.00061631
0.000676231
0.000664143
0.000667533
0.000651288
0.000657861
0.00752936
0.0164285
0.00137305
0.00100272
0.00289101
0.00113994
0.00204539
0.000987959
0.00919754
0.0171586
0.0180976
0.0417247
0
0.0240134
0.000222902
0.0001502
0.00011517
0.000133299
0.000180482
0.000130189
0.000140087
8.97784e-05
0.000109994
9.79417e-05
0.000100891
0.000176071
7.51707e-05
0.000131299
0.000176909
0.000185303
0.000143044
0.000139506
0.000163268
9.84695e-05
0.000103577
0.000158203
0.000103535
9.57594e-05
0.000141667
0
0
0
0
0
0
0
0
0
0.00475828
0
0
0
0
0
0.000205855
0.000194317
0
0
0
0
0
0
0
0
0.540754
0.241674
0.016559
0.00479967
0.00808655
0.00323729
0.00326439
0.00234528
0.00618126
0.0031881
0.00282391
0.00332464
0.00248004
0.00196617
0.00152726
0.00222181
0.00207033
0.00181789
0.00245607
0.00134368
0.00163145
0.00212288
0.00194803
0.00132424
0.0012815
0.00119227
0.000938702
0.00159706
0.00102012
0.000789007
0.00101176
0.000852154
0.000929222
0.000630318
0.000709854
0.00055277
0.000592937
0.000447917
0.000442051
0.000340364
0.000343695
0.000172979
0.000172503
5.83432e-05
0.000127983
0.000122532
0.000162227
0.000195847
0.000118422
0.00010779
0.000197029
0.000205601
0.000133838
0
0
0
0
0
0
0
0
0
0.00325336
0
0
0
0
0
0
0
0.0309942
0
0
0.0218627
0.101212
0
0
0.00603558
0
0
0
0
0
0.00205123
0
0
0
0
0
0
0
0
0
0
0
0
0
0
0
0.00622465
0.00818134
0.00933825
0
0
0
0
0.0037781
0
0
0.00452632
0
0
0
0
0.00734803
0
0.00237211
0
0
0
0
0
0
0
0
0
0
0
0
0
0
0
0
0
0
0
0
0
0
0
0
0
0
0
0
0
0
0
0
0
0
0
0
0
0
0
0
0
0
0
0
0
0
0
0
0
0
0
0
0
0.00310991
0
0
0
0.000719073
0
0
0.000116177
9.9606e-05
0.000162258
0.000160111
0.000122496
8.19739e-05
0.000164607
0.00014861
7.75385e-05
0.00026392
0.000156215
8.22653e-05
0.000353101
0.000151466
7.16905e-05
1.73733e-05
9.42929e-05
0.000344881
0.000131932
0.00013995
0.000153188
0.000148117
0.000127579
0.000147911
0.0068053
0.000965614
0.000777702
0.00329752
0.00309142
0.0117744
0.01324
0.00783243
0.00405654
0.00386952
0.00775149
0.0458736
0.216313
0
0
0.0132323
0.00488723
0
0
0.00500182
0
0
0
0
0.000371748
0
0
0
0.000152603
0
0
0
0.00163976
0
0
0
0
0.00286942
0.00276085
0.00344109
0.00279149
0.00466042
0.00292876
0.0012128
0.00199535
0.00125693
0.00203106
0.00138419
0.000224847
0
0
0.000122398
0
0
0.0020661
0.00223357
0
0
0
0
0
0
0
0
0.042525
0.120085
0
0
0.0136103
0
0.00285229
0
0
0
0
0.0153893
0
0.0070665
0.0324237
0
0
0
0
0
0
0
0
0
0
0
0
0
0
0
0
0
0
0.022713
0
0
0
0.0156145
0
0
0
0
0
0
0
0
0
0
0
0
0
0
0
0
0
0
0
0
0
0
0.00197333
0.00470795
0
0
0
0
0
0
0
0
0.00186465
0
0
0
0
0
0
0.00125876
0
0
0
0
0
0
0
0
0
0
0
0
0
0
0.00689033
0
0
0
0
0
0
0
0
0
0.000238701
0.000692486
9.06334e-05
0.000257835
0.000177238
8.36258e-05
7.88906e-05
0.000196414
7.25062e-06
8.4672e-05
7.75363e-05
0.000125964
0.000184525
0.000126717
9.97919e-05
0.000483149
0.000458525
0.000438991
0.00041168
0.000419452
0.000424932
0.000419469
5.80907e-05
0.00033489
0.000683483
0.000591015
0.000652925
0.000535673
0.000555726
0.000229218
0.000627299
7.63332e-05
0.000403462
0.000297569
0.000338304
0.000570607
0.000519901
0.000786531
0.000720814
0.000692061
0.000583708
0.000486209
0.00050085
0.000570091
0.000502071
0.000384471
0.000470725
0.000437052
0.000485161
0.000407565
0.000548456
0.000595736
0.000486549
0.000619894
0.000549709
0.000680799
0.000592155
0.000656336
0.00417061
0.029832
0.00137625
0.00119139
0.000881882
0.00244879
0.000655566
0.00311989
0.0179939
0.00867921
0.0462046
0.00383342
0.00619749
0.0131847
0.000160835
0.000101765
0.000112162
7.63755e-05
0.000120102
0.000149332
0.00014815
0.000138127
0.000164632
9.71321e-05
0.00019375
0.000157243
0.000185448
0.000140505
0.000140151
0.000150606
0.000104414
0.000135592
0.000196874
9.92734e-05
0.000177631
0.000106778
0.000158769
0.00015478
0.108426
0.0638146
0.0858582
0
0
0
0
0
0
0
0
0
0
0
0
0
0
0
0
0.00427169
0.00518642
0
0
0
0
0.0284328
0.0149942
0.00365901
0.0092033
0.00253114
0.0154805
0.00293512
0.00349486
0.00298273
0.00295611
0.00353795
0.00264032
0.00178174
0.00196471
0.00203303
0.00184924
0.00213411
0.00181309
0.00215107
0.00149974
0.00134177
0.00178386
0.00149462
0.00164302
0.00144807
0.000965504
0.000915558
0.00126341
0.000977404
0.000908821
0.00100952
0.000893434
0.000757384
0.000629245
0.000709092
0.000592164
0.00051913
0.000448023
0.000384266
0.000295981
0.000215986
0.000162854
6.55191e-05
0.000171795
0.000128943
0.000157986
0.000182391
0.000195468
0.00016867
0.000128849
0.000182806
0.000138984
0.000125675
0.0142925
0.015259
0
0
0
0
0
0
0
0
0
0.00366133
0
0.00765762
0
0.00513027
0.00314698
0
0
0
0
0
0
0
0
0
0
0
0
0.00253652
0
0
0
0
0
0
0
0
0
0.00865293
0
0
0.00849515
0
0
0
0.00541722
0
0
0
0
0
0
0
0.0103976
0
0
0
0
0
0
0
0
0
0
0.00157161
0
0
0
0
0
0
0
0
0
0.000125964
0
0
0
0
0.000667395
0
0
0
0
0
0
0
0
0
0
0
0
0
0
0
0
0
0
0
0
0
0
0
0
0
0
0
0
0
0
0
0
0
0
0
0
0
0
0
0
0
0
0
0
0
0.00018239
0.000138499
0.000161263
0.00013373
0.000132879
0.000214542
0.000160051
0.000176142
0.000174765
0.000203571
0.000222076
0.000176159
7.0985e-05
0.000150783
0.00010221
0.000116859
0.000156106
0.0001038
0.000166989
0.000158431
0.000265457
0.000158804
0.000140693
0.000148103
0.000111332
0.000196746
9.82772e-05
0.01613
0.00879171
0.0122652
0.0160061
0.0149286
0.00648258
0.0218401
0.0210241
0.0531203
0.0161859
0
0
0
0.00475914
0.0334808
0
0
0
0.000197526
0
0
0
0
0
9.39452e-05
0
0.00137341
0
0
0.00441251
0
0
0
0
0
0
0.0196785
0.00677487
0.0125517
0.00370994