/*--------------------------------*- C++ -*----------------------------------*\
  =========                 |
  \\      /  F ield         | OpenFOAM: The Open Source CFD Toolbox
   \\    /   O peration     | Website:  https://openfoam.org
    \\  /    A nd           | Version:  8
     \\/     M anipulation  |
\*---------------------------------------------------------------------------*/
FoamFile
{
    version     2.0;
    format      ascii;
    class       volScalarField;
    location    "3120";
    object      alpha;
}
// * * * * * * * * * * * * * * * * * * * * * * * * * * * * * * * * * * * * * //

dimensions      [0 0 -1 0 0 0 0];

internalField   nonuniform List<scalar> 
526318
(
0.000479341
0.000558547
0.000332935
0.00034464
0.000393276
0.000757951
0.000322268
0.000915899
0.000499304
0.000876555
0.000482934
0.00062298
0.000240666
0.000152728
0.000444077
0.000276289
0.000173326
9.40477e-05
0.000239782
0.000307451
0.000533927
0.000975999
0.000598596
0.000756722
0.00143804
0.000987799
0.000499314
9.86236e-05
0.000546143
0.000323259
3.97775e-05
0.000141586
0.000126624
0.00062706
0.000359635
0.00110095
0.000439192
0.000448637
0.00057193
0.000748921
0.00062429
0.000665484
0.00250525
0.00350319
0.00301064
0.00228572
0.000329107
0.00168121
0.000534043
0.000343311
0.0010158
0.000491604
0.000453267
0.000404748
0.0156017
0.00599946
0.00529762
0.0225081
0.000175017
0.000442492
0.000398141
0.00034279
0.000374254
0.000274709
0.000343549
0.000528267
0.000352293
0.000263829
0.000313079
0.000274068
0.000248247
0.000363431
0.000342238
0.000373153
0.000543732
0.000929231
0.000399892
0.000332882
0.000482025
0.000428441
0.00014065
0.000355919
0.000379941
0.000575619
0.000459446
0.000176026
0.000314375
0.000141069
0.000665849
0.000273682
0.000130978
0.000529907
0.000310902
0.000666499
0.000979831
0.000416709
0.000296609
0.000505727
0.00023406
0.000392486
0
0
0
0.478867
0.0388343
0
0.00417976
0.000724063
0.00158069
0.000892883
0.00174273
0.000796347
0.000406808
0.000639339
0.00032554
0.00028281
0.000275205
0.000249734
0.000118085
0.000353466
0.000354344
0.000412132
0.00021875
0.000528226
0.000271693
0.000483739
0.00025431
0.000450852
0.000277538
0.000344254
0.000510519
0.00062283
0.000479636
0.000212304
0.000297867
0.000492889
0.000588281
0.000673973
0.000251551
0.000875778
0.000232725
0.000456887
0.000306907
0.00070316
0.00100214
0.000681728
0.000901276
0.000299176
0.00094028
0.00087779
0.000800404
0.000475727
0.00185019
0.000759327
0.00168408
0.00225314
0.000398712
0.000542618
0.00126425
0.000844387
0.000762361
0.0023803
0.001155
0.000277081
0.000404487
9.95828e-05
0.000105918
0.000150865
0.000295457
0.000792966
0.000442865
0.000126565
0.000297602
0.000573175
0.000212805
0.000337266
0.000743679
0.000496037
0.000187337
0.000439484
0.000106326
0.000410311
0.00049291
0.000650483
0.000508378
0.000371932
0.000873897
0.000312875
0.000792496
0.000494042
0.000426339
0.000714432
0.000730687
0.000733687
0.00110557
0.00129357
0.000313926
0.000904639
0.000189915
0.000491069
0.00122047
0.000101793
0.00105852
0.000941052
0.00129627
0.00108454
0.000714283
0.00159787
0.00124538
0.000460682
0.000483804
0.00139834
0.000420399
0.00121778
0.00121414
0.000108263
6.54745e-05
0.00065725
0.000601738
0.00400536
0.00196977
0.00118827
0.00124294
0.000963887
0.000213683
0.00041068
0.000376526
0.000949877
0.00052769
0.75587
0
0.0599459
0.0218097
0
0
0
0
0
0
0.000314736
0.000483025
0.000222091
0.000557969
0.000110476
0.000295009
0.00034346
0.000281137
0.000325681
0.000583658
0.000457814
0.000414318
4.19515e-05
0.000462208
0.000530037
0.00032265
0.000652931
0.000236104
0.000303646
0.000511593
0.000232705
0.000224737
0
0
0
0
0.0753863
0
0
0.0158421
0.00160917
0.00201567
0.000508747
0.000657761
0.00018289
0.000545997
0.000310631
0.000228651
0.000283842
0.000238342
0.000355778
0.000151975
0.000448262
3.18993e-05
0.00018044
0.000350158
0.000139325
0.000204169
0.000628475
0.0012242
0.000614115
0.000885376
0.000651488
0.000783132
0.00154366
0.00157242
0.00142727
0.00106911
0.00139519
0.00111094
0.00231628
0.00191988
0.00191592
0.00196331
0.00128972
0.00124285
0.00205986
0.000671887
0.000896785
0.00131507
0.000542584
0.000727119
0.00084253
0.00420101
0.00480112
0.00204796
0.00204791
0.00254395
0.000655258
0.00134519
0.000343191
0.000385212
0.000366981
9.00372e-06
0.000508077
0.000862208
0.000284248
0.000210227
0.000737489
0.000285547
0.000442475
0.000440479
0.000816392
0.000927156
0.000617509
0.000476955
0.000376459
0.000441957
0.000746001
0.00110619
0.00039044
0.00129727
0.00120257
0.000586133
0.000506853
0.0011895
0.000700543
0.000867245
0.000879078
0.00078251
0.00162638
0.00107498
0.00115825
0.000659709
0.000529877
0.000935332
0.000721322
0.00115704
0.000646836
0.00150416
0.00115393
0.000115323
0.000917944
0.000964603
0.00020478
0.0010116
0.00076504
0.000464852
0.000301467
0.000750544
0.00104205
0.00105072
3.36934e-05
0.000857334
0.000494138
0.000926302
0.00105758
0.000859108
0.000516735
0.000349036
0.000450576
0.0018444
0.00113051
0.000433413
0.00080766
0.000491901
0.000853291
0.000316942
0.000310473
0.00812125
0.0105511
0.0117723
0.0032398
0.00138699
0.000787438
0.000260998
0.000864878
0.000676599
0.000942581
0.000530873
0
0
0.0525868
0
0.0103812
0.309274
0
0.01082
0
0
0
0
0
0
0
0
5.81694e-05
0.000370924
0.000107067
0.00017179
0.0001395
0.000327619
0.00038504
0.000474671
0.000823927
0.000153562
0.000154235
0.000402341
0.00033474
0.000310577
0.000493748
0.000472484
0.00036862
0.0001399
0.000175814
0.000491653
0.000371846
0.000589535
0
0.0535279
0.0361509
0
0
0
0
0
0.0106364
0.0514922
0
0
0
0
0.00727452
0
0
0
0
0
0
0
0.0327802
0.0632666
0.00126485
0.0245783
0.00132973
0.000584982
0.000508153
0.000371827
8.23058e-05
0.000133601
9.28344e-05
0.0003819
7.75711e-05
0.00020514
0.000110564
0.00020306
0.000341406
0.000499788
0.000504375
0.00034434
0.00109972
0.000308575
0.000757986
0.00125617
0.000530583
0.000238032
0.00132603
0.000657114
0.00105362
0.00239152
0.00187456
0.0031533
0.00430632
0.0022181
0.00184462
0.0023165
0.00763799
0.00636625
0.00602655
0.00144881
0.000364195
0.00343896
0.000560822
0.00562968
0.000813207
0.00457442
0.00145176
0.000821372
0.000650779
0.00131859
0.00057205
0.00152706
0.000996286
0.00064618
0.00101409
0.000845463
0.000925073
0.00118544
0.00149865
0.00123476
0.00219801
0.000682631
0.00179614
0.000672957
8.54483e-05
0.00028117
0.00041247
0.000463628
0.000322822
0.00014021
0.000234089
0.000408771
0.000419821
0.00119985
0.000567043
0.000624667
0.00104246
0.00275207
0.000416729
0.00295066
0.00701412
0.0034419
0.000646877
0.00139838
0.00175196
0.00149252
0.00316215
0.0019993
0.00145434
0.00144607
0.000501473
0.000377338
0.00135427
0.000783418
0.00154774
0.000506699
0.000740118
0.000239203
0.00109428
0.000693072
0.00107739
0.000457998
0.00101336
0.00125496
0.000529154
0.000192568
0.00036043
0.000583094
0.00025484
0.00104391
0.000334999
0.000197324
0.000664734
0.000388253
0.000625946
0.000426119
0.000736614
0.00103302
0.00058568
0.000838529
0.000572515
0.000357329
0.000532313
0.000267747
0.000448157
0.00036297
0.00114549
0.000852339
0.00108115
0.00115496
0.000678486
0.000379525
0.000943978
0.0264719
0.00616819
0.00183366
0.000980944
0.00052038
0.000784291
0.00078819
0.00193912
0.0028731
0.000287034
0
0
0
0
0.042767
0.0338776
0
0
0
0
0
0
0
0
0
0
0
0
0
0
0
0
0
0
0
0
0.00431396
0
0
0.000770675
0.00173044
0.0054968
0
0
0
0
0
0
0
0
0
0
0
0
0
0
0.000165593
0.000265826
8.23689e-05
0.00021533
0.000324779
0.000209004
0.000689871
0.00031272
0.000245514
0.000734734
0.000504932
0.000302573
0.000102938
0.000480895
0.000137103
8.0468e-05
0.000184839
0.00054137
0.000618082
0.000476396
0.000616319
0.000484355
0
0
0
0
0
0
0
0
0
0
0
0
0
0
0
0
0
0
0
0
0
0
0
0
0
0
0.0316556
0
0
0
0.00505842
0
0.00668287
0.010119
0.000862618
0.00219531
0.000219993
0.000560863
0.000271793
0.000149483
0.000164858
0.00023883
0.000280956
0.000385329
0.000200246
0.000198127
6.69881e-05
0.000219206
0
0
0
0
0
0
0
0
0
0
0
0
0
0
0
0
0
0.000278911
0.000708004
0.000965066
0.000166309
0.000697707
1.66639e-05
0.000678231
0.00159981
0.0013445
0.00218289
0.00235305
0.00205675
0.00420073
0.00431267
0.00522459
0.00404497
0.000101488
0.00352137
0.00404212
0.00173975
0.0134142
0.0148531
0.0144897
0.0128534
0.00216517
0.00654706
0.00958504
0.0033756
0.0138184
0.0212802
0.0579276
0.0991195
0.000428899
0.000681303
0.000829045
0.000848162
0.000744248
0.000901338
0.000804827
0.0004374
0.00050608
0.000629678
0.00121234
0.000723033
0.000529192
0.000611663
0.000686812
0.00113077
0.00212215
0.00130038
0.000777294
0.00294456
0.000801862
0.00289587
0.000863086
0.000270605
0.000543785
0.000748105
0.000391744
0.00017264
0.000118778
0.000376603
0.00158206
0.000827803
0.00428992
0.00168149
0.00301349
0.00381387
0.0108491
0.00585035
0.0448048
0.0120058
0.0120738
0.00451624
0.00491414
0.00884918
0.00345353
0.00134673
0.00141104
0.00138987
0.000780206
0.00122186
0.000307003
0.000563469
0.00100585
0.000508748
0.000410755
0.000651387
0.00111073
0.000347184
0.000368785
0.000400257
0.000935179
0.00112323
0.000307577
0.000879609
0.000112956
0.00201876
0.00119077
0.00203855
0.000589668
0.000873755
0.000495016
0.000982109
0.000473123
0.000524394
0.00064584
0.000618597
0.000455768
0.000683405
0.000358264
0.000704158
0.000598586
0.000387302
0.000383351
0.000358438
0.000477453
0.000430814
0.000511824
0.000580798
0.00047975
0.000531377
0.000424681
0.000418783
0.000346196
0.000304255
0.000246547
0.000385897
0.000219763
0.000262096
0.000186515
0.000153386
0.000117905
0.000123255
0.000169239
6.82593e-05
9.91166e-05
5.68139e-05
0.000197944
0.000111016
0.000213963
0.000124378
0.000220648
0.00017136
0.000142379
0.000111278
0.000171879
0.000234973
0.000201776
0.000130159
0.000189462
0.000225006
0.000166891
0.000319979
0.000571108
0.00080133
0.000892559
0.00033622
0.000459496
0.000783725
0.00325127
0.00150315
0.0155504
0.0120732
0.0050567
0.00379585
0.10613
0.0124774
0.00412721
0.00142735
0.00217503
0.00563481
0.0103285
0.00239784
0.011069
0.00601271
0
0.0159192
0
0
7.15779
0
0
0
0
0
0
0.0137877
0
0
0
0
0
0
0
0
0.0158511
0
0
0
0
0
0
0
0
0
0
0
0
0
0
0
0
0
0
0.0164425
0
0
0.0202608
0
0.00889526
0
0.0062065
0.00712726
0.00562658
0
0.0211664
0.00808319
0
0
0.0137031
0
0
0
0
0
0
0
0
0
0
0
0
0
0
0.0152871
0
0
0.000237841
0.000283351
0.000226146
0.000328284
0.000467115
0.000239489
0.000660321
0.000241476
0.00051174
0.000471249
0.000288991
0.000449536
0.000219784
0.000112827
0.000177375
0.000660566
0.000452992
0.000247281
0.000263523
0.000370111
0.0003827
0.000284277
0
0
0.0129428
0.00260453
0
0
0
0
0
0.0137601
0
0
0
0
0
0
0
0
0
0
0
0
0.0200428
0.0139054
0
0
0
0.00492008
0.00177829
0.0100132
0.00127855
0.000513208
0.000315203
0.00055848
0.000366344
0.000128353
0.000232608
8.12907e-05
0.000379039
8.71152e-05
0.000214233
0.000287455
0.000297947
0.00044685
0.00311986
0
0.0144341
0
0
0.000361724
0
0
0.000316012
0
0
0
0
0
0
0
0
0
0
0
0
0
0
0
0.0149726
0
0.000482239
0.000747879
0.000964384
0.000747975
0.000837616
0.00110073
0.00516082
0.000838377
0.00373199
0.00092237
0.00295176
0.00637975
0.0104391
0.00845677
0.0105385
0.00425124
0.0053373
0.00552132
0.00487642
0.00167877
0
0.0591923
0.0169945
0.0147014
0.0257567
0.00600399
0
0
0
0
0.17468
0
0.00045764
0.00062487
0.000773297
0.000848361
0.000626469
0.000680507
0.000488155
0.000676301
0.00052288
0.00041431
0.000436965
0.000593342
0.000332673
0.000437573
0.000333206
0.000218782
0.000149887
0.000124459
9.68309e-05
4.05342e-05
7.38631e-05
8.89574e-05
0.000145062
6.0695e-05
0.00024694
0.000231396
0.000146674
0.000183564
8.97019e-05
0.000176248
0.00186755
0.00137038
0.000237107
0.000756792
0.00193567
0.00314804
0.00206612
0.00286728
0.00424245
0.000932783
0.00542735
0.00251005
0.00382395
0.000334845
0.00115507
0.000484586
0.000838605
0.000659226
0.000735857
0.00229062
0.00745401
0.00157203
0.00424348
0.00293466
0.00606256
0.0571099
0
0.178581
0.0119916
0.0225493
0.10394
0.0137439
0.00517328
0.00875601
0.00149409
0.00352008
0.00160256
0.000541914
0.000611616
0.0011186
0.000804627
0.00105545
0.00175268
0.000848403
0.000172454
0.00132285
0.00103474
0.000690513
0.000718135
0.000545825
0.000682453
0.00054278
0.000443632
0.000113194
0.000724927
0.00129988
0.000546522
0.000353003
0.000616258
0.000555728
0.000830116
0.000431435
0.000218324
0.000491558
0.000693638
0.000419834
0.000552219
0.00073582
0.000601059
0.000437204
0.000456534
0.000448133
0.000484
0.000419208
0.000562283
0.000421184
0.0002222
0.000261458
0.000121301
0.000199305
9.98636e-05
0.000120109
0.000144866
0.000121755
0.000226774
0.000147133
0.000202249
0.000157577
0.000189636
0.000229519
0.000168938
0.000211465
0.000204748
0.000178651
0.000217819
0.000237748
0.000217082
0.000215308
0.000187883
0.00020595
0.000246052
0.000242321
0.00021162
0.000632361
0.00193255
0.000686266
0.000912956
0.00191135
0.00461498
0.000848023
0.000729405
0.000613713
0.000803982
0.0087472
0.00625217
0.0170331
0.00197628
0.00634423
0
0
0.0126964
0
0.00818496
0.0127579
0.0122452
0.0157881
0.00410194
0.00961354
0
0
0
0
0.0106499
0.00817077
0
0
0
0.0196791
0
0
0
0
0
0
0
0.0162883
0
0
0
0
0
0
0
0
0.000751955
0
0
0
0.00639342
0
0
0
0
0
0
0
0
0
0
0
0
0
0
0
0
0.0131733
0
0.0215779
0
0
0
0
0
0
0
0
0
0
9.90314e-05
0.000504661
0.000197083
0.000141084
0.000626033
0.000111779
0.000853352
0.000699153
0.000544313
0.00063016
0.000511108
0.000356076
0.000876723
0.00019735
0.000394585
0.000739355
0.0011959
0.000287193
0.000195429
0.000140089
0.000413455
0.000156734
0.00624946
0
0.00636459
0
0
0
0
0
0
0
0
0
0
0
0
0
0
0
0
0
0
0
0
0.0266501
0
0
0.0189738
0.00272127
0.00232113
0.00235336
0.000836874
0.00033393
0.000102386
0.000216411
4.9798e-05
0.000209191
0.000289292
0.000139874
0.000587822
0.000382959
0.000156249
5.06584e-05
0.000136777
0.000422211
0
0
0
0
0
0
0
0
0
0
0
0
0.00591469
0
0
0
0
0
0
0.00124854
0
0.00125368
0
0
0
0
0
0
0
0
0
0.00234553
0.00109087
0.000779943
0.00227244
0.000461316
0.00534734
0.00308752
0.00104939
0.00113463
0.000646911
0.00148026
0.00785178
0.0225225
0
0
0.0135708
0.0121296
0.0195606
0.0106364
0.00323731
0.0054898
0.00463185
0.00837394
0.144436
0
0.164268
0.0355728
0
0
0
0
0
0
0
0
0.000151148
0.000188743
0.000117459
0.000193225
0.000191925
0.00015157
0.00014577
0.00019118
9.44633e-05
0.000185085
0.000153823
0.000193641
6.93439e-05
0.000153571
0.000226146
0.000218478
0.00018742
0.000198253
0.000200709
0.000235978
0.000210697
0.000202826
0.000198227
0.000206653
0.000201855
0.000178105
0.000235925
0.000186375
0.000178624
0.000228579
0.000188184
0.000153643
0.000204376
0.000200996
0.000161396
0.000598116
0.000678683
0.000609829
0.000613245
0.000484971
0.000642087
0.000580341
0.000528088
0.000489258
0.000424013
0.000606912
0.000517232
0.000436949
0.000298923
0.000285564
0.000165014
0.000181558
0.0001123
4.21329e-05
2.59959e-05
7.53184e-05
4.03838e-05
0.000104399
5.98693e-05
0.000171824
8.76071e-05
0.000112893
3.898e-05
0.00181276
0.00120979
0.00045407
0.00181327
0.00106413
0.000951641
0.000532635
0.00479627
0.000775073
0.00153688
0.00980876
0.000185568
0.000227869
0.000209202
0.000227124
0.000197996
0.000180577
0.000189068
0.000154403
0.000178217
0.000138623
0.000195108
0.000125181
0.000174315
0.000119309
0.000177958
0.00019166
0.000127275
0.000163306
0.00183059
0.014255
0.0241691
0.00118419
0.000980232
0.000553322
0.0023061
0.0025024
0.00597263
0.0054632
0.00230834
0.0149749
0
0.198697
0
0
0
0
0.016122
0.0746935
0
0.0032043
0.0130301
0.00879841
0.0043454
0.00468995
0.000959017
0.00267806
0.000715304
0.000744379
0.000813583
0.000523876
0.000993732
0.000612918
0.0016032
0.000623536
0.00137219
0.000667558
0.000909064
0.000657914
0.000400825
0.000434145
0.000380306
0.000329096
0.00058125
0.000534867
0.00048349
0.000521246
0.000268222
0.000390332
0.000479179
0.000138629
0.000273794
0.00038376
0.0003196
0.000580777
0.000683681
0.000488158
0.000521298
0.000477003
0.000468728
0.00044802
0.000409047
0.00041622
0.000261883
0.00029152
0.00013723
0.000273493
0.000118443
0.000181432
0.000127733
0.000137271
0.00016456
0.000146316
0.000173178
0.000190106
0.000171991
0.000169117
0.000203647
0.000173738
0.000180554
0.000174718
0.000170524
0.000173903
0.000196212
0.00646425
0.00411138
0.00804073
0.00811555
0.00903377
0.00301495
0.0154371
0.00346993
0.00982822
0.101232
0.031229
0.0304182
0
0.0731305
0.0123859
0
0
0
0
0.0199062
0
0
0
0
0
0
0
0
0.00887851
0.0094815
0.0114322
0
7.83315e-05
0
0
0
0
0
0
0
0
0
0.0324097
0
0
0
0
0
0
0
0
0.211231
0
0
0
0
0
0
0
0
0
0
0
0
0.00476397
0
0
0.00347206
0
0
0
0
0
0
0
0
0
0
0.0272618
0
0
0
0
0
0
0
0
0
0
0.0111055
0
0
0
0
0.0157426
0.000147395
0.000285112
0.000140368
0.000162063
0.00014923
0.000155951
0.000647444
0.000390716
0.000130151
0.000375578
0.000675129
0.000588749
0.000806912
0.000852773
0.000779349
0.000728075
0.000229367
0.000816409
0.000416099
0.00023243
7.0863e-05
0.000577425
0.000383079
0.000200688
6.40944e-05
0
0
0
0
0
0
0
0
0
0
0
0
0
0.00749797
0.007162
0.00656887
0
0
0
0
0
0
0
0
0
0
0
0.0030387
0.00121295
0.000434129
0.000730018
0.0002508
0.000721881
0.000431443
0.00035781
0.000489025
0.000275033
0.000470389
0.000594493
9.93842e-05
1.56326e-05
0.000603283
0.000294185
0
0.00311019
0
0
0
0
0
0
0
0
0
0
0
0
0
0
0
0.0217227
0
0.00688969
0
0
0
0
0
0
0
0
0
0
0.0061319
0
0
0
0
0
0
0.000598235
0.000861462
0.000827951
0.00119816
0.000138617
0.0025848
0.000485776
0.0102428
0.00830181
0
0
0.0021025
0.00305996
0
0
0
0.0124483
0.112416
0
0.0662828
0
0.0115515
0.0254164
0.00254947
0.00644438
0
0
0
0
0
0
0
0
0
0
0
0
0.000148314
0.0001589
0.000173383
8.27169e-05
0.000192804
0.000208743
0.000365428
0.000232109
0.000206072
0.000238984
0.000215642
0.00022872
0.000220453
0.000219033
0.000175107
0.000167346
0.000148838
0.000135086
0.000193599
0.000172835
0.000213941
0.000225709
0.000644128
0.000728867
0.000536219
0.000587897
0.000776212
0.000423524
0.000566082
0.000790555
0.000415673
0.000409062
0.000439894
0.000609328
0.000470557
0.000285106
0.000399521
0.00041496
0.000350357
0.000268131
0.000183638
0.000147818
0.00011848
2.82758e-05
5.33186e-05
6.98109e-05
7.69687e-05
0.000140995
0.000103359
4.16383e-05
7.69194e-05
0.000112785
9.43333e-05
0.00251787
0.00107591
0.00144247
0.00103401
0.00044923
0.00146257
0.00052631
0.000915584
0.000596613
0.00323732
0.00851466
0.000421577
0.000174178
0.000152585
0.00020966
0.000171982
0.000224045
0.0001875
0.000201021
0.000156391
0.00018773
0.00017776
0.000133132
0.000147301
0.000185224
0.000176217
0.000113555
0.000112734
0.000175393
0.000146887
0.000140512
0.000146048
0.000178219
0.000150584
0.000119465
0.000193854
0.000126724
0.0079435
0.0238197
0.0261652
0.0479399
0.0098994
0.0110146
0
0
0.157504
0
0
0
0
0.00936327
0
0.00427113
0
0
0.628373
0
0.00636672
0.0421929
0.0128899
0.0289273
0.0025644
0.00218409
0.00668352
0.004617
0.00164245
0.00214528
0.000385597
0.00162017
0.00039061
0.000401981
0.000230271
0.000666245
0.000530049
0.000585168
0.000293665
0.000880824
0.000347267
0.000336884
0.000749032
0.000508895
0.000216482
0.000352396
8.91697e-05
0.000163094
0.000311178
0.000467996
0.000316524
0.000267545
0.000240315
0.000488064
0.000235962
0.000537853
0.000387346
0.000397199
0.000269426
0.000333783
0.0003211
0.000236533
0.000219656
0.000129265
0.000232449
0.000184817
0.000101529
0.000144398
8.39014e-05
0.000123976
0.000171604
0.000132713
0.000178129
0.000126927
0.000184658
0.000133883
0.000167509
0.000142267
0.000173569
0.000154689
0.000197427
0.000190579
0
0
0
0
0.0318188
0.0006102
0.0234498
0.075305
0.0064767
0
0
0
0
0
0
0
0
0
0
0
0
0
0
0
0
0
0
0
0.0137064
0.00522063
0
0
0
0
0
0
0
0
0
0
0
0
0.00332526
0
0
0
0
0
0
0
0
0.109609
0
0
0
0.0134336
0.00551205
0
0
0
0
0
0
0
0.0104657
0.0100698
0
0
0.0331789
0.0127664
0
0
0
0
0.0119478
0
0.0195752
0
0
0
0
0
0.0463515
0.0561999
0
0
0
0
0
0
0
0
0
0
0.00669991
0
0
0
0
0
0
0
0
0.000126931
6.38128e-05
0.000177425
0.000177754
0.000143867
0.000123252
0.000121136
0.000147196
0.000126698
0.000171714
0.000566796
0.000524069
0.000986959
0.0005436
0.000661643
0.000531735
0.000481868
0.000108112
0.000659947
0.000186347
0.000274819
0.000266887
0.000736358
0.000182609
0.000552216
0.000598326
0.000372518
0
0
0
0
0
0
0
0.0105825
0.00128211
0.00859632
0
0
0
0
0
0
0
0
0
0.000844989
0
0
0
0
0
0.000744328
0.00032341
0.000555399
0.00116343
0.000543202
0.000794369
0.00029386
0.000616135
0.00049798
0.000301437
0.000225774
0.000364395
0.000376449
0.000915828
0.00032736
0.000419058
0
0
0.00340736
0.0130778
0
0
0.0132119
0.0088567
0
0
0
0.0321489
0
0
0
0.00623489
0.0121563
0.0217432
0
0
0
0.0166472
0
0
0
0.0114558
0
0
0
0
0
0.0194143
0
0
0
0
0
0
0
0
0
0
0
0
0
0.00166996
0.00159146
0.00142382
0.00150912
0.00139659
0.00452295
0.00685313
0.017324
0.015361
0
0
0.00767389
0.00675642
0.0308072
0.0398686
0
0
0
0
0
0
0
0.216374
0.0154283
0.0310033
0.00258053
0.0218368
0
0
0
0.00938936
0
0
0
0
0
0
0
0.00680424
0.000130001
0.000236076
0.000106657
0.000304751
0.000150689
0.000116699
0.000415712
0.000444979
0.000518195
0.000316158
0.000514091
0.000373481
0.000248911
0.000385767
0.000214298
0.000215268
0.000228685
0.000239979
0.00019234
0.000221722
0.000217344
0.000257315
0.000175751
0.000176276
0.000200192
0.000205516
0.000263817
0.00025093
0.000656616
0.000691261
0.000545398
0.000672561
0.000669806
0.000669642
0.000591283
0.000710211
0.000510492
0.000439713
0.000512262
0.000634376
0.000266846
0.00028406
0.000311292
0.000453701
0.000227026
0.000183335
0.000111384
9.44444e-05
1.71107e-05
9.04711e-05
3.09706e-05
4.74402e-05
0.00010069
5.71284e-05
0.000197337
0.000221321
0.000143738
0.000157566
0.00221419
0.0022283
0.000956092
0.000881881
0.00109836
0.000348569
0.000779704
0.000680682
0.00338152
0.000360888
0.000765563
0.00300612
0.000163708
0.000193641
0.000130324
0.000160993
0.000188112
0.000207562
0.000141425
0.000178957
0.000135236
0.000169607
0.000139519
0.000134897
0.000161162
0.00011018
0.000170663
0.000110969
0.000180241
0.000163641
0.00010723
0.000155557
8.21657e-05
0.000120331
0.000163254
0.000147005
0.0001345
0
0
0
0
0
0
0
0
0.0101396
0
0
0
0
0
0
0
0.00199802
0
0
0
0
0.0909147
0.00613945
0.0384578
0.00127906
0.00103595
0.00277897
0.00595739
0.000551443
0.000873206
0.000548649
0.000668768
0.000590587
0.00103659
0.000541604
0.000438542
0.000321543
0.000416921
0.000583399
0.000223897
0.000462317
0.000270155
0.000170635
0.00021185
0.000258079
0.000227703
0.000244528
0.000281764
0.000256307
0.000293264
0.000163016
0.000420874
0.000141981
0.000467234
0.000438457
0.000329655
0.000330302
0.000211868
0.000292117
0.000110784
0.00021186
0.000162631
0.000135989
0.000198279
0.000156049
9.90245e-05
0.000147155
8.08179e-05
0.000152336
0.000152756
0.000107044
0.000207388
0.000100736
0.000181562
0.000131444
0.000158876
0.000129426
0.000146854
0.000197487
0
0
0.0979798
0.000583994
0
0
0
0
0
0
0
0.0101873
0
0.00584127
0.009007
0.00383587
0.00381507
0
0.0360809
0.342106
0
0
0
0.00302988
0
0.00265866
0.00384823
0
0
0
0
0
0
0
0.0256749
0.00864902
0
0
0
0
0
0
0.0188967
0
0
0
0
0
0
0
0
0
0
0
0
0
0
0
0
0
0
0
0
0
0
0
0
0
0
0
0
0
0
0
0
0
0
0
0
0
0
0
0.0377482
0
0
0
0
0
0
0
0
0
0
0
0
0
0
0
0
0
0
0
0
0
0
0
0
0
0
0
0
0
0.00480191
0
0
0
0
0.000176945
0.000139803
0.000128951
0.000120915
0.000173217
0.000131456
0.000153533
0.000133622
0.00012095
0.000198442
0.000138449
0.000114912
0.000130318
0.00017062
0.000172774
0.000159331
0.000846101
0.000954792
0.000714182
0.000207643
0.000258995
0.000330092
0.000407343
0.000109469
0.000309874
0.000617295
0.00094888
0.00105045
0.000469614
0
0
0
0.00768033
0.00807936
0.0010871
0.00113099
0.0212705
0
0.0279845
0
0
0
0
0
0
0
0
0.0260832
0
0.0254906
0
0
0
0.000652738
0.000367456
0.000292383
0.000338468
0.00080485
0.000955191
0.000495702
0.000791619
0.000346693
0.000744339
0.00049579
9.60634e-05
9.98653e-05
8.4302e-05
0.000401228
0.000404654
0
0.00388737
0
0
0
0
0
0.00034683
0
0
0.00871826
0
0
0
0
0
0
0
0
0.000283715
0
0
0
0
0
0
0
0
0
0
0
0
0
0
0
0
0
0
0.0111577
0.024224
0
0
0
0
0
0
0
0
0
0
0
0
0
0
0
0
0
0.00118889
0.00334982
0.00362075
0.0110993
0.0192993
0.397161
0
0
0
0
0.0221938
0
0
0
0
0
0
0
0
0
0
0.00581578
0.0141277
0.0105523
0
0
2.92326
0
0.973888
0
0
0
0
0.00769762
0.0077271
0
0
0
0
0
0
0.000109245
0.000197418
0.000208003
0.00059366
0.000432114
0.000449757
0.000419297
0.000548924
0.000300739
0.000380453
0.000361023
5.84762e-05
7.87421e-05
0.000261198
0.000206497
0.000238187
0.000239505
0.000229568
0.000203657
0.000253257
0.000274728
0.000247704
0.000222771
0.000242868
0.000239706
0.000222278
0.000184885
0.000676067
0.000699294
0.000511705
0.000503726
0.000419254
0.000703789
0.000621756
0.000689456
0.000580393
0.000442268
0.000660405
0.000576844
0.000231072
0.000213719
0.000473155
0.000220997
0.000130743
0.00020662
0.000110336
0.000120373
5.03379e-05
0.000101755
0.000224592
0.000144216
0.000452735
0.00039058
0.000258336
0.000240557
0.000306346
0.000338805
0.00178788
0.000628894
0.000362213
0.000628768
0.000420338
0.000459275
0.000783529
0.000390758
0.00106168
0.00165881
0.00271164
0.000587115
0.0312334
0.00676727
0.00786667
0.000175741
0.000171224
0.000139434
0.000183423
0.00018521
0.000123119
0.000140498
0.000159704
0.000121445
0.000159691
0.000129295
0.000142149
0.000139574
0.000116013
0.000133658
0.000105632
8.01293e-05
0.000157128
8.77436e-05
0.000145146
0.000107059
0.000136068
0.000137292
0.000115494
0.000144772
0.000120731
0
0
0
0
0
0.00708444
0.0145592
0
0
0
0
0.00569112
0.00634464
0
0
0
0
0
0.0156794
0
0
0.00918598
0.0108518
0.00493967
0.0059854
0.00177779
0.000844339
0.0012605
0.000536293
0.00138779
0.00112095
0.00069448
5.75897e-05
0.000536287
0.000581415
0.000257507
0.000410698
0.000411977
0.000175003
0.000208667
0.000398556
0.000116772
8.21695e-05
0.000103025
0.000219102
0.000330378
0.000266282
0.000247473
0.000167975
0.000272113
0.000467171
0.000236145
0.000371247
0.000227623
0.000147744
0.000354266
0.000299847
0.000124743
0.000279564
0.000161212
0.000178146
0.000223753
0.000142088
0.000161389
9.19037e-05
0.000142671
0.000105778
0.000114179
0.000131529
0.000159569
9.86588e-05
0.000197087
9.10642e-05
0.000181257
0.000160838
0.000125556
0.000132701
0.000149033
0
0
0.0166058
0
0
0
0
0.0362598
0
0.0179119
0
0
0
0.0231459
0.0252477
0.0162371
0.0109753
0.00701845
0.0200518
0
0
0
0
0
0
0
0
0
0
0
0
0
0
0
0
0.0218229
0
0
0
0.142625
0
0
0
0
0
0
0
0
0
0
0
0
0
0
0
0
0
0
0.0448817
0
0
0
0
0
0.00375503
0.00105504
0.00482844
0
0
0
0
0
0
0
0
0
0
0
0
0
0
0
0
0
0
0
0
0
0
0
0
0
0
0
0
0
0
0
0
0
0
0
0
0
0
0
0.00578888
0
0
0
0.00111245
0
0
0.00385449
0.0187862
0
0.000178839
0.000117548
0.000165427
0.000146835
0.000133524
0.000130673
0.000127733
0.000153845
0.000167375
0.000166878
0.000157591
0.000141545
0.000146559
0.000135094
0.000202585
0.000271923
0.000221332
0.000262549
0.000200676
0.000756981
0.000233026
0.000199846
0.000331038
0.000136203
0.000635494
0.000315388
0.000480916
0.000142859
0.000779149
0.00175704
0.00151294
0.000124773
0.00180595
0
0
0.0031929
0.00112968
0.00872577
0
0
0.035035
0.0388989
0
0
0
0
0
0
0
0
0.0189012
0
0
0.0237471
0
0
0
0.000482312
0.000315884
0.000165441
0.000716808
0.00116135
0.000816379
0.000556496
0.000517925
0.000378788
0.000469924
0.000154282
0.000158186
0.000207999
0
0
0
0
0
0
0.0187279
0.00808004
0
0
0.00628102
0
0
0
0
0
0
0.731525
0
0
0
0
0
0
0
0
0
0
0.036675
0
0
0
0
0
0
0
0
0
0
0
0
0
0
0
0
0
0
0
0
0
0
0.0132274
0
0
0
0
0
0
0
0
0
0
0
0.00153166
0.0153034
0.00975842
0.04684
0.0410442
0
0.0712766
0
0.062451
0
0
0
0
0
0
0
0
0
0
0
0
0
0
0
0.017991
0
0
0
0.0387754
0.0123706
0.0451689
0
0
0
0.00471662
0
0
0
0
0
0
0
0
0.00036879
0.00056568
0.000800395
0.00044207
0.000685421
0.00022101
0.000313604
0.000174904
0.000164508
0.000159883
0.000135633
0.000103097
8.5637e-05
0.000133308
0.000253133
0.0002201
0.00027324
0.000211561
0.000257957
0.000243552
0.000325871
0.000188858
0.000185057
0.000179608
0.000250761
0.000313457
0.00022049
0.00022572
0.000620065
0.000709941
0.000669518
0.000483471
0.000723428
0.000289487
0.000642531
0.000589345
0.000526022
0.000626015
0.000591942
0.000603077
0.000184188
0.000202594
0.00024126
0.00052701
0.000131556
4.45939e-05
0.000103478
0.000109148
0.00040517
0.000109801
0.000303828
0.000281296
0.000189105
0.000178505
0.000110603
0.000191198
0.000243999
0.00017666
0.000641742
0.000969824
0.000510343
0.000240307
0.000410941
0.000188909
0.000776719
0.000492981
0.00210347
0.00197386
0.00210218
0.00172185
0.00304091
0.00104424
0.00013818
0.000178251
0.00020279
0.000150454
0.000139537
0.000132376
0.000114107
0.000115649
0.000120886
0.000130433
8.80946e-05
0.00010438
0.00011948
0.000124999
8.79762e-05
7.98477e-05
0.00015475
8.71472e-05
0.000144694
0.000115973
0.000129774
0.000130532
0.000119944
0.000150538
0.000113568
0
0
0
0
0
0
0
0
0
0.00653247
0
0
0
0
0
0
0.0149972
0
0
0
0
0.0353056
0.00559919
0.00343478
0.0338674
0.00321271
0.00385707
0.000973012
0.000226508
0.00260605
0.00106806
0.00135444
0.000414113
0.000652039
0.000575238
0.000218803
0.000623357
0.000286217
0.000227407
0.000270389
0.000498449
0.000318536
0.00013049
0.000167122
0.00017404
0.00023539
0.000201578
0.00012156
0.000151611
0.000142364
0.000337045
0.000147058
0.000300413
0.000132572
0.000210961
5.91136e-05
0.000168708
0.000216058
0.000190133
0.000194543
0.000170672
0.000111298
7.5383e-05
9.88477e-05
0.000101651
7.63858e-05
9.57412e-05
9.26342e-05
0.000127414
0.000108554
0.000162361
9.82583e-05
9.34075e-05
0.000179681
0.000168942
0.000121628
0.00013424
0.000153068
0
0
0
0
0
0
0
0
0
0
0
0
0
0
0
0
0
0.0257707
0
0
0.0660382
0.00903087
0
0
0.000540856
0
0
0
0
0
0.000642131
0
0
0
0
0
0
0
0
0
0
0
0
0
0
0
0.0106374
0.0157655
0.0141369
0
0
0
0
0.00488583
0
0
0.00621308
0
0
0
0
0.0171635
0
0.00918532
0
0
0
0
0
0
0
0
0
0
0
0
0
0
0
0
0
0
0
0
0
0
0
0
0
0
0
0
0
0
0
0
0
0
0
0
0
0
0
0
0
0
0
0
0
0
0
0
0
0
0
0
0
0.0036037
0
0
0
0.0109147
0
0
0.000140356
0.000157646
0.000109818
0.000164766
0.000155612
0.000165536
0.000136566
0.000153273
0.00014481
0.000226337
0.000165754
0.000156986
0.0001376
0.000185451
0.00019027
0.000163463
0.000153338
0.000180588
0.000119568
0.000115875
0.000224124
0.000162027
0.000244943
0.000148998
0.000900839
0.000324078
0.000381858
0.000522315
0.000465828
0.000583977
0.000932175
0.000498897
0.000384358
0.000642019
0.000852555
0.00137314
0.000887559
0.0037163
0.00268851
0.00177367
0.000277089
0
0
0.0503268
0.0666119
0
0.0183401
0
0
0
0
0
0
0
0
0
0.0173812
0
0.00715814
0
0.0113737
0.000371087