/*--------------------------------*- C++ -*----------------------------------*\
  =========                 |
  \\      /  F ield         | OpenFOAM: The Open Source CFD Toolbox
   \\    /   O peration     | Website:  https://openfoam.org
    \\  /    A nd           | Version:  8
     \\/     M anipulation  |
\*---------------------------------------------------------------------------*/
FoamFile
{
    version     2.0;
    format      ascii;
    class       volScalarField;
    location    "3120";
    object      H;
}
// * * * * * * * * * * * * * * * * * * * * * * * * * * * * * * * * * * * * * //

dimensions      [0 1 0 0 0 0 0];

internalField   nonuniform List<scalar> 
526318
(
0.883287
0.835102
0.902312
0.818016
0.893494
0.863438
0.866
0.784895
0.836486
0.721609
0.694355
0.815917
0.7611
0.800953
0.758302
0.785851
0.760768
0.964404
0.865953
0.923717
0.909045
0.858893
0.627871
0.876795
0.746474
0.616046
0.899059
0.887562
0.891847
0.894894
0.9427
0.979593
0.954674
0.835003
0.841882
0.818902
0.819476
0.89506
0.827689
0.798826
0.824104
0.82503
0.478495
0.53326
0.438896
0.484901
0.460949
0.585205
0.778322
0.655567
0.75744
0.75078
0.699975
0.666311
0.160524
0.40878
0.401139
0.200353
0.918907
0.934892
0.964691
0.905855
0.848366
0.99069
0.966199
0.935647
0.915787
0.930562
0.829478
0.802956
0.924086
0.702662
0.758688
0.653746
0.611283
0.593083
0.70661
0.693563
0.607669
0.647492
0.728943
0.727966
0.686429
0.640758
0.6689
0.738164
0.73162
0.707972
0.655722
0.742567
0.640277
0.590449
0.583091
0.515904
0.517023
0.511459
0.513601
0.509521
0.507363
0.508982
0.000589921
2.15997e-06
0.000603879
0.0090429
0.0789407
0.000943097
0.423691
0.230866
0.548743
0.506361
0.549846
0.672685
0.894642
0.784462
0.886443
0.912543
0.97183
0.945572
0.987115
0.507505
0.504467
0.50508
0.516228
0.464648
0.50516
0.417032
0.461178
0.365481
0.418678
0.371266
0.366709
0.356562
0.3343
0.326399
0.353263
0.297041
0.34683
0.296256
0.315023
0.261298
0.268659
0.289051
0.318328
0.302848
0.265088
0.259891
0.27804
0.264269
0.264865
0.266006
0.283954
0.269073
0.270063
0.266298
0.271458
0.239535
0.275172
0.276288
0.241394
0.2005
0.271649
0.217926
0.275812
0.782881
0.868134
0.802867
0.803153
0.598914
0.672816
0.602775
0.605488
0.597717
0.604784
0.627895
0.597191
0.533667
0.508525
0.473103
0.411028
0.471365
0.515093
0.51604
0.511946
0.39976
0.455566
0.342133
0.34887
0.358262
0.349355
0.352137
0.355396
0.343225
0.346364
0.343318
0.330833
0.310382
0.337284
0.326027
0.299547
0.277297
0.307272
0.290443
0.282194
0.299141
0.293511
0.288777
0.258922
0.270101
0.303393
0.311536
0.767071
0.780645
0.811864
0.740216
0.762167
0.777929
0.748458
0.630304
0.685323
0.426177
0.394473
0.399327
0.527203
0.650941
0.531624
0.566469
0.568268
0.513371
0.499296
0.0167822
1.53063e-05
0.117704
0.342902
0.00027704
9.76159e-09
0.000995694
0.000255125
0.000396609
0.000963311
0.970302
0.956287
0.997986
0.996441
0.951581
0.956998
0.872898
0.943261
0.796561
0.73508
0.727423
0.739697
0.746275
0.72961
0.733229
0.712172
0.630416
0.708851
0.522309
0.578293
0.507269
0.522101
0.000989465
4.56871e-11
0.000146849
0.00101
0.00154701
0.000972835
0.000301815
0.142381
0.519754
0.330608
0.56348
0.567813
0.681485
0.782308
0.898966
0.906689
0.94182
0.91894
0.985602
1.02102
0.487206
0.484374
0.44397
0.415752
0.313557
0.35486
0.281221
0.288297
0.273896
0.272125
0.261957
0.266033
0.195622
0.217959
0.253185
0.294771
0.34691
0.307455
0.277315
0.274398
0.204149
0.19266
0.246258
0.307822
0.221782
0.262337
0.263007
0.233892
0.228132
0.197347
0.191578
0.149606
0.150566
0.158705
0.143581
0.267879
0.307029
0.267705
0.312033
0.68887
0.619746
0.517373
0.622526
0.532353
0.593618
0.60111
0.585901
0.600693
0.60304
0.512071
0.427953
0.35838
0.336305
0.417184
0.35222
0.340396
0.45442
0.340618
0.392483
0.33164
0.331215
0.339591
0.332421
0.344002
0.340065
0.341381
0.342011
0.34181
0.3413
0.347532
0.344799
0.35365
0.356362
0.358991
0.334471
0.347817
0.335541
0.307503
0.308518
0.336293
0.361813
0.353573
0.332512
0.31321
0.34162
0.384479
0.37927
0.393354
0.350272
0.383183
0.401342
0.442373
0.39072
0.39549
0.422543
0.452479
0.579736
0.644202
0.569872
0.638757
0.673861
0.734322
0.667113
0.528591
0.648088
0.540443
0.549039
0.289594
0.242403
0.256467
0.25144
0.376161
0.495545
0.42073
0.491849
0.493546
0.513209
0.496056
0.000438569
0.000767549
0.0623036
2.49313e-06
0.144517
0.0308866
0.000599399
0.00105025
0.000166038
0.00100962
0.000664765
0.00100889
0.000730728
0.000955715
0.000582482
0.000952703
0.990297
0.984794
1.01884
1.01003
0.996139
0.956506
0.890511
0.794932
0.748356
0.739815
0.728188
0.718901
0.705711
0.705649
0.689587
0.676894
0.634627
0.681575
0.600695
0.540083
0.488808
0.448503
0.000990061
0.00111509
0.00111523
0.000663073
0.000354959
0.000731205
0.000563932
0.000508934
0.00111659
0.0011169
0.000705346
0.00100984
0.000758926
0.00100942
0.00132081
0.00017911
0.000296324
0.000495627
0.000981725
0.000983054
8.0623e-05
0.00101
0.0491508
0.0298736
0.227993
0.0680264
0.430944
0.593945
0.60147
0.70257
0.913194
0.80421
0.934872
0.939585
0.933099
0.977605
1.00326
1.02271
0.404292
0.404531
0.353848
0.385401
0.325685
0.289156
0.282084
0.278469
0.272506
0.2748
0.229394
0.221858
0.168561
0.183945
0.243335
0.209753
0.176372
0.234218
0.226856
0.249604
0.153602
0.144601
0.171834
0.178528
0.180699
0.140276
0.142796
0.14319
0.144037
0.130643
0.124489
0.424507
0.395991
0.400868
0.397616
0.418353
0.527934
0.488324
0.467722
0.344788
0.392283
0.376086
0.374484
0.284972
0.21841
0.398696
0.500269
0.397338
0.399342
0.382426
0.463497
0.443424
0.515718
0.54978
0.477006
0.457273
0.487526
0.366674
0.340369
0.338106
0.33799
0.253315
0.305773
0.23593
0.183456
0.160129
0.282288
0.282692
0.328001
0.331267
0.331602
0.33563
0.329561
0.336599
0.333871
0.341426
0.336208
0.353625
0.347083
0.356721
0.355886
0.377458
0.37154
0.390455
0.39608
0.345417
0.326662
0.394077
0.374446
0.364743
0.378566
0.366515
0.352274
0.398124
0.377173
0.479004
0.489849
0.436467
0.483597
0.492875
0.451916
0.549306
0.526226
0.588616
0.610826
0.635315
0.552593
0.560005
0.556116
0.518179
0.495087
0.45847
0.553601
0.396646
0.386663
0.438167
0.453992
0.131787
0.187662
0.260417
0.39041
0.416558
0.45944
0.365644
0.324033
0.286917
0.236777
0.000965631
0.000592166
0.000836818
5.5896e-07
0.0517677
0.144798
0.000993891
0.000234006
0.00100979
0.000545241
0.00024476
0.000470015
0.000926911
0.000208943
0.000714952
0.000986846
0.000766556
0.000551352
0.000138864
0.000388285
0.00097475
0.00101
0.000132108
0.000999776
0.000967282
0.000381647
0.00119059
0.000960259
0.000980593
0.00119072
0.00119062
0.00119057
0.000886885
0.000999494
0.0009727
0.000201819
9.59135e-05
0.000989075
0.000892979
0.0009482
0.00100959
0.000881287
0.00100974
0.00100225
2.6935e-05
0.000898823
0.976742
1.0147
1.02779
1.00501
1.00132
0.910155
0.734334
0.815104
0.706744
0.715714
0.68292
0.684065
0.67611
0.681559
0.663768
0.67018
0.620798
0.583866
0.489331
0.527862
0.38593
0.423424
0.000851104
0.000624444
0.000948563
0.000967574
0.000969466
0.000982262
0.000986514
0.000879074
0.000998153
0.000738138
0.000677989
0.000965569
0.000971308
0.000759356
0.000380116
0.000991326
0.000690401
0.00100737
0.000803925
0.000839513
0.000369052
0.000975289
0.000889611
0.000439439
0.000917861
0.000878903
0.00111671
0.000298533
1.04002e-05
0.0003082
0.0914799
0.000554515
0.111292
0.109413
0.409826
0.241002
0.60742
0.575804
0.64461
0.745615
0.853795
0.932115
0.957402
0.92982
0.961453
0.99991
0.988969
0.99144
0.00101
0.000734461
0.000886173
0.000268644
0.00092977
0.000922867
0.00081396
0.000929381
0.000890554
0.000725685
0.000975785
0.00092383
0.000794854
5.91556e-07
0.000716784
0.00101
0.000170373
0.38193
0.382567
0.383774
0.345894
0.270073
0.308017
0.232288
0.221071
0.186689
0.181842
0.137279
0.137199
0.173322
0.167003
0.122746
0.154997
0.149933
0.197284
0.187335
0.180092
0.102037
0.0757427
0.0786265
0.114716
0.126923
0.129941
0.0999767
0.106331
0.0664616
0.0544925
0.0205649
0.0254986
0.621369
0.591409
0.629562
0.642121
0.590269
0.545555
0.715545
0.738638
0.80008
0.810269
0.356018
0.389523
0.446328
0.536203
0.358048
0.300041
0.330382
0.339381
0.17777
0.227246
0.281082
0.16838
0.377922
0.381658
0.380538
0.379244
0.399197
0.383964
0.394459
0.410234
0.2879
0.281828
0.18208
0.264078
0.254926
0.222031
0.168807
0.191727
0.129386
0.149898
0.130121
0.219245
0.279553
0.213231
0.280036
0.334153
0.335238
0.331106
0.333093
0.337187
0.357042
0.346499
0.364922
0.363008
0.382092
0.377835
0.398754
0.397781
0.398704
0.399024
0.41251
0.396653
0.439929
0.413202
0.374027
0.377797
0.444857
0.406485
0.419805
0.461978
0.500993
0.496512
0.502776
0.500737
0.537862
0.588357
0.648168
0.666669
0.675434
0.651584
0.79597
0.737132
0.864961
0.907691
0.891401
0.934333
0.98249
0.854036
0.941737
0.959886
1.03344
1.08454
1.11014
1.13272
1.16079
1.10123
1.16105
1.11622
1.20179
1.20018
1.24774
1.21678
1.27897
1.30847
1.29769
1.24814
1.30912
1.33644
1.30165
1.29995
1.36135
1.34048
1.37347
1.31296
1.31503
1.37637
1.34663
1.29782
1.29688
1.33065
1.36328
0.354052
0.318074
0.487283
0.481829
0.463161
0.457235
0.450664
0.214786
0.345251
0.0530675
0.0803726
0.186006
0.168271
0.042267
0.136544
0.114107
0.292032
0.196343
0.190696
0.0955719
0.091149
0.110765
0.123632
0.000349145
0.00105923
0.000850307
8.78551e-05
0.00106203
3.1761e-05
0.00101
0.000966006
0.000995857
0.00069039
2.21037e-05
0.00130134
0.000842141
0.000928041
0.000844807
0.000815943
0.000210929
0.00069126
0.000943677
0.000831092
0.00112525
0.000762141
0.00012748
0.000146108
0.000949
0.000255762
1.26965e-05
1.61879e-05
0.000990101
0.000818938
0.00100231
0.00095638
0.000911134
0.000410555
0.000489319
0.000857732
0.000762255
0.000945839
0.000981813
0.00101249
0.000993239
0.000993395
0.0013021
0.000912081
0.0011851
0.000936732
0.00118496
0.0011846
0.0011798
0.000984891
0.00118464
0.00118467
0.000319872
0.000841597
0.00102988
0.000882011
0.00091734
0.000377029
0.000991017
0.000960908
0.00100983
0.00100977
0.000136678
0.000839038
0.000950381
0.000921886
0.000915695
0.000919934
0.000872588
0.0012965
0.000854279
0.000968314
0.985296
0.963636
0.940801
0.931397
0.864146
0.924861
0.757409
0.683008
0.669487
0.676624
0.675549
0.679717
0.612603
0.62171
0.469363
0.423332
0.385647
0.55682
0.558514
0.507976
0.50666
0.50392
0.000651913
0.000457969
0.00122913
0.00123058
0.000962471
0.000414864
0.000655803
0.000410365
0.000992828
0.00102791
0.000161511
0.00100893
0.000972717
0.000941946
0.000297472
0.000985833
0.000726155
0.00091818
0.00021426
0.00071546
0.000647207
0.000951565
0.0011533
0.00115365
0.000245446
7.95119e-06
0.000540504
0.107153
0.236888
0.109454
0.405305
0.576057
0.599832
0.637417
0.71538
0.822791
0.895682
0.869613
0.91313
0.850966
0.900271
0.937906
0.892508
0.895476
0.00124982
0.000855427
0.00101282
0.000849207
0.000993956
0.00120514
0.000764118
0.000796952
0.0012051
0.000920789
0.00100237
0.000966405
0.00077444
1.14836e-05
0.000813036
0.000727418
0.000776991
0.000656439
0.00098774
0.000236686
0.000248866
0.00045762
0.00096459
0.000795867
0.00126229
0.000450898
0.355611
0.360257
0.277451
0.295387
0.174054
0.19571
0.130296
0.131757
0.130116
0.13345
0.103897
0.107533
0.0813324
0.0810255
0.0577548
0.0977446
0.170443
0.142919
0.166359
0.178369
0.000733191
0.0158802
0.0588574
0.0344686
0.0464413
0.0510958
0.000713372
0.000119179
0.000998303
0.00064633
0.00157742
0.000909233
0.845702
0.846757
0.671592
0.585232
0.577036
0.560214
0.841691
0.754137
0.997037
1.07598
0.973147
0.900287
1.09249
1.06875
1.13623
1.18937
1.21751
1.21685
1.24351
1.21937
1.27314
1.29792
1.2926
1.29291
1.31347
1.29796
1.29768
1.34466
1.28708
1.28065
0.397238
0.334008
0.477148
0.55321
0.338537
0.290979
0.335169
0.333364
0.161726
0.223554
0.0535804
0.218349
0.107302
0.382145
0.322365
0.378555
0.375945
0.381847
0.271357
0.177459
0.0999472
0.0838085
0.099186
0.134393
0.0616283
0.0470873
0.000264993
0.0599965
0.14523
0.137433
0.0571375
0.162366
0.22163
0.170682
0.279182
0.228282
0.264061
0.323488
0.359062
0.332113
0.371293
0.368253
0.380927
0.374257
0.406769
0.416544
0.414095
0.42326
0.427819
0.439771
0.46491
0.474342
0.473967
0.461319
0.46725
0.463559
0.477214
0.493487
0.546571
0.529161
0.501272
0.536189
0.531276
0.560399
0.59557
0.657685
0.683434
0.68789
0.698911
0.76425
0.855428
0.922699
0.937096
1.06554
0.940738
0.983742
1.13633
1.16469
1.16254
1.20102
1.24644
1.29785
1.30527
1.31138
1.3367
1.37027
1.3904
1.39697
1.39612
1.39266
1.39356
1.37765
1.31132
1.37658
1.34539
1.29969
1.29844
1.33052
1.36219
1.37309
1.30001
1.35777
1.32078
0.146938
0.139585
0.203719
0.279625
0.16735
0.24641
0.380261
0.313065
0.338243
0.180325
0.0807268
0.0449121
0.0443384
0.144596
0.136359
7.97649e-09
0.000568817
0.094199
0.000788981
0.0945169
0.0910479
0.103818
0.0978603
0.112242
0.132207
0.000871197
0.000837817
0.000904459
0.00079304
0.00127518
0.00127496
0.00086849
0.000172666
0.000840426
0.00130085
0.000981197
0.000910866
0.000478021
0.000315336
0.000582239
0.00101
0.000650182
0.00112481
0.000934557
0.000984534
0.000982631
0.000660221
0.000998234
0.000701989
0.00100779
0.000868975
0.00105323
0.000955976
0.000859131
0.000744326
0.00116476
8.77513e-05
0.00099613
0.000976554
0.000280273
0.0008203
0.000544652
0.000936558
0.000765323
0.000971789
0.000956216
0.000930585
0.000978339
0.000943996
0.000974885
0.00092222
0.000266949
0.00146324
0.000940823
0.00105624
0.000876407
0.00100962
0.000641972
0.000367709
0.000916152
0.000960434
0.000955611
0.000892128
0.000744796
0.000479733
0.884758
0.890985
0.862881
0.874567
0.802352
0.87295
0.683583
0.741292
0.63213
0.637061
0.576994
0.564578
0.507125
0.507735
0.424624
0.320756
0.291336
0.46175
0.51069
0.5081
0.507146
0.506539
0.00122636
0.000980028
0.00122495
0.000281231
0.000973634
0.000953788
0.000988382
0.000963159
0.000983712
0.000813892
0.000135327
0.000443538
0.00093376
0.000982119
0.00060297
0.00100999
0.00098232
3.53596e-05
0.000985985
0.000873381
0.000276721
0.000752588
0.000601099
0.00102377
0.000321117
1.25987e-07
0.0718106
0.109232
0.302322
0.134796
0.44463
0.575021
0.551634
0.65599
0.826907
0.724136
0.808124
0.798783
0.798923
0.826911
0.887877
0.867902
0.884638
0.85578
0.000769413
0.000922585
0.000573493
0.000958878
0.000712787
0.000933944
0.000627141
0.000311966
0.000811924
0.000879841
0.000957505
0.000915034
0.00102741
0.000871244
0.000942382
0.000873917
0.00096514
0.000987798
0.000913792
0.00107264
0.000727132
0.00107246
0.000903628
0.000901385
0.00101
0.000860782
0.000668131
0.000529485
0.000136748
0.000756032
0.000938482
0.233307
0.233701
0.198259
0.178145
0.134224
0.151943
0.121103
0.118807
0.274437
0.220804
0.197197
0.0512418
0.0609726
4.01985e-05
0.000648974
0.0612377
0.0562062
0.0530779
0.0832501
0.155901
0.0963246
0.135346
0.124052
0.0158935
0.000940715
0.0102453
0.0289529
0.000589834
0.000946731
1.30661e-05
0.00052455
0.000737284
0.000689738
0.000594218
0.000822082
1.41723
1.42592
1.45305
1.43056
1.47373
1.46184
1.48566
1.47697
1.53192
1.51883
1.48169
1.53553
1.50702
1.55409
1.38377
1.33824
1.36141
1.40908
1.38892
1.35773
1.36355
1.41678
1.41944
1.39709
1.37395
1.43017
1.41108
1.41645
1.44632
1.29754
1.29656
1.29869
1.29832
1.31678
1.33833
0.892199
0.83634
0.730713
0.635285
0.548331
0.623654
0.824122
0.807492
1.04851
1.07309
0.959811
1.04043
1.07728
1.12849
1.17462
1.21593
1.21588
1.21469
1.21125
1.23989
1.25498
1.279
1.26542
1.27192
1.27258
1.28589
1.25965
1.26442
0.453912
0.379905
0.330676
0.31536
0.37425
0.549042
0.531913
0.261637
0.314501
0.187867
0.112466
1.40331
1.42519
1.43897
1.44584
1.45289
1.46582
1.4672
1.49758
1.4798
1.49925
1.49591
1.5473
1.56674
1.5932
1.58934
1.59317
1.61076
1.62973
0.0965655
0.0445397
0.0449782
0.305154
0.195491
0.365844
0.265884
0.191011
0.0843382
0.0852856
0.084376
0.0823982
0.000697243
0.0113217
0.000331181
0.000752401
3.89998e-17
6.10001e-120
0.150029
0.0842619
4.33734e-24
0.170821
0.171034
0.173002
0.230729
0.188104
0.310329
0.255713
0.343041
0.312619
0.349754
0.371411
0.394573
0.419997
0.436165
0.435392
0.452889
0.440455
0.501224
0.485639
0.478994
0.478308
0.524692
0.505943
0.572493
0.537859
0.516973
0.561983
0.607704
0.59719
0.615761
0.656634
0.657052
0.600359
0.712243
0.736715
0.709199
0.70241
0.780377
0.869728
0.936017
1.00854
0.958715
0.965985
1.09551
1.15875
1.20027
1.18143
1.2449
1.27663
1.31685
1.32996
1.3241
1.34775
1.40752
1.38327
1.39905
1.40289
1.39466
1.39541
1.39583
1.39199
1.39518
1.39309
1.39285
0.126653
0.121032
0.152
0.0670381
0.0873486
0.103033
0.0403716
0.185023
0.081294
0.0229679
0.0412975
0.0223159
0.000256793
0.0228046
0.0464371
0.000242624
8.44111e-05
1.72756e-09
0.000415139
0.0953133
0.000898274
0.00038556
0.000885036
0.000275377
0.000880918
0.000164142
0.000923462
0.000952908
0.00114267
0.00114253
0.0012747
0.000699649
0.00109791
0.00098437
0.000776109
0.00096702
0.000896738
0.000998449
0.00026155
0.000888291
0.00100984
0.000894905
0.0011423
0.000637755
0.000398457
0.000668916
0.000974692
0.000270015
0.000740386
1.77104e-07
3.04784e-05
0.00238507
0.000308883
0.00101
0.000694792
0.000545923
0.000997667
0.000426367
0.00100993
0.000972649
0.000977525
0.000963111
0.000999516
0.000667978
0.00110967
0.000964843
0.00074062
0.00111979
0.000810563
0.000998852
0.00089779
0.000955844
0.000631827
0.000258775
0.000797683
0.000964465
0.000941166
0.000838222
0.00102173
0.000339536
0.00081895
0.000689798
0.000978177
0.000925692
0.000935309
0.000928541
0.00091709
0.000695524
0.000567275
0.00174763
0.000251668
0.000674617
0.000835469
0.000979285
0.00174406
1.58365
1.55293
1.52661
1.62925
1.66224
1.65586
0.856532
0.879204
0.875514
0.851843
0.772883
0.838665
0.67026
0.6008
0.523266
0.539154
0.509685
0.50431
0.508959
0.508939
0.385669
0.305505
0.390763
0.47297
0.473308
0.00093523
0.000803734
0.000875173
0.000890082
0.000999727
0.000971927
0.000922744
0.000493094
0.000928118
0.000560941
0.00100943
0.000984735
0.000971046
0.0730123
0.105808
0.13411
0.00100998
0.000498781
0.000128694
0.000927014
4.59314e-06
0.000270786
0.000921556
0.000804102
0.000575174
0.000783296
0.000292301
0.274026
0.4156
0.530973
0.527776
0.842397
0.768313
0.780991
0.565787
0.659653
0.753206
0.80199
0.802824
0.791262
0.811992
0.848117
0.83896
0.000758949
0.00110428
0.000625923
0.000982796
0.000839632
0.000866517
0.00100904
0.000845157
0.000734941
0.000835941
0.000817811
0.000932446
0.000763197
0.000992535
0.00100991
0.000955375
0.000929381
0.00102862
0.000962818
0.00103055
0.000909291
0.000824304
0.000770427
0.00097601
0.000958703
0.000887564
0.000424996
0.000801713
0.000962731
0.000993229
0.00107879
0.000984843
0.000982901
0.00100956
0.000818042
0.00101
0.001009
0.231498
0.267137
0.257843
0.19976
0.198751
0.16901
0.191427
0.0599488
0.0860509
0.000336907
0.000590944
0.201629
0.191602
0.000407844
0.000886794
0.000635506
0.00104317
0.00754974
0.000927191
0.0289654
0.000843655
0.0955106
0.0484658
0.0923781
0.106386
3.53109e-06
0.000680105
0.000702988
0.000427199
0.000680153
0.000551523
0.000693939
9.93495e-05
0.000358069
0.000994303
8.71897e-06
0.000979051
1.41853
1.43228
1.45506
1.47871
1.48132
1.48414
1.51974
1.50505
1.35414
1.34845
1.3317
1.3565
1.38847
1.35011
1.39348
1.37075
1.28423
1.27207
1.27195
1.30174
1.33269
1.30468
0.898445
0.816105
0.713538
0.800136
0.647648
0.559424
0.814923
0.814961
1.05644
1.05754
1.07347
0.967771
1.04837
1.1581
1.10558
1.04976
1.09118
1.19124
1.20178
1.19544
1.19912
1.20821
1.23235
1.26114
1.24727
1.26022
1.25725
1.25954
1.25565
1.25804
1.26136
0.310305
0.301239
0.440164
0.527078
0.298894
0.391164
0.543275
0.557497
0.296591
0.246192
0.145861
0.212899
1.43473
1.39388
1.41013
1.45825
1.45575
1.45819
1.46783
1.49167
1.51188
1.52351
1.5254
1.52887
1.55295
1.59016
1.5735
1.59248
1.60835
1.65705
1.63256
1.46537
1.47562
1.49231
1.66161
1.65912
1.65946
0.0444163
0.0461379
0.0443152
0.0170295
0.115539
0.127552
0.00028935
0.00041564
0.00553388
0.000904593
0.000944006
0.0009229
0.000691889
0.00134716
0.000582881
0.00134713
0.000969713
5.7672e-06
0.0253343
4.23374e-09
0.0017555
0.102947
0.177408
0.0905163
0.249395
0.276649
0.209229
0.245747
0.316029
0.27912
0.406503
0.343634
0.415359
0.428631
0.441528
0.429256
0.477968
0.512724
0.555853
0.558783
0.561832
0.545423
0.57284
0.553601
0.607987
0.605297
0.629249
0.635615
0.61058
0.608949
0.727483
0.776014
0.673246
0.736067
0.782601
0.750194
0.843736
0.897165
0.988373
1.03023
1.00896
1.09882
1.15401
1.2533
1.23761
1.29665
1.27247
1.36615
1.37248
1.3666
1.39274
1.42145
1.42298
1.47678
1.44273
1.46927
1.43369
1.43188
1.4653
1.39844
1.43237
1.39535
0.000361082
0.000226362
0.000896554
4.19119e-05
0.0588151
0.04369
0.0419602
0.0251987
0.0428178
0.000531057
0.000723526
0.000534059
0.000133059
0.000682837
0.000520732
0.000376277
0.000853863
4.25265e-05
0.000302915
2.90505e-05
0.000588628
0.000240038
5.50518e-07
0.000289545
0.000978557
0.000538612
0.000999883
0.000181509
0.00114252
0.00114249
0.000980876
0.000995782
0.000992745
3.82214e-05
0.00101
0.000912008
0.0010004
0.000112849
0.00044385
0.000919656
0.000653339
0.000297927
0.00151147
0.000110501
0.000984734
7.28554e-05
0.0009581
0.000364482
0.000998413
2.55198e-05
0.000995602
0.00219634
0.000973842
0.000134455
0.000942855
0.0013033
0.00111682
0.000469865
0.00100983
0.000979813
0.000465046
0.000983408
0.000969573
0.000835887
0.00110957
0.00110947
0.00093398
0.00096327
0.00110893
0.0011093
0.000955402
0.000818341
0.000711032
0.000919589
0.0012557
0.000119646
0.00125537
0.00094876
0.00098702
0.000966821
0.000964421
0.00100415
0.00105266
0.00105464
0.000880629
0.000805878
0.000827454
1.24245e-05
9.12481e-06
0
0.000995647
0.000799517
0.000430028
0.000896197
0.00111672
0.000923733
0.00100958
0.00100998
0.000995673
0.000998553
0.000946811
0.000914726
0.00101
1.53235
1.56466
1.5595
1.55377
1.59016
1.70201
1.67852
1.67736
1.70456
1.64434
0.770253
0.778102
0.705444
0.690799
0.659664
0.696081
0.595146
0.557602
0.542325
0.510944
0.484293
0.482349
0.394669
0.407687
0.27333
0.31586
0.314965
0.000529692
0.000965684
0.000913493
0.00101
0.000967147
0.000933412
0.000737008
0.107416
0.245569
0.105623
0.000919443
0.000208654
0.000955226
0.00096279
0.000573711
0.000498712
0.00101
0.000964607
0.000954409
0.00102277
0.000849804
0.000989528
0.000944045
0.000847483
0.00025022
0.634197
0.65073
0.694897
0.389869
0.529477
0.524994
0.565938
0.68448
0.752504
0.713942
0.62311
0.704373
0.736187
0.73386
0.665168
0.688996
0.000957717
0.00099441
0.00110434
0.00106497
0.000454398
0.000934981
0.00106621
0.00122873
0.000949663
0.000992644
0.000160682
0.00184763
0.000968821
0.000936631
0.000510229
0.00284614
0.00285862
0.00282421
0.000335767
0.00093241
0.000775127
0.00102793
0.000879783
0.000974702
0.000901245
0.0010331
0
0
0
0.000959356
0.000970077
0.00118836
0.00100136
0.000836671
0.000430274
0.000845595
0.000930546
0.000997229
0.0010054
0.000330773
0.000961327
0.000958008
0.000969942
0.000686934
0.000956032
0.250236
0.264624
0.268661
0.139557
0.16121
0.118678
0.120829
0.0452587
0.0374409
0.000808151
0.000218865
0.001162
0.00216172
0.0518489
0.0446553
0.000406739
0.00051683
0.000242686
0.000584634
0.000391083
0.000724064
0.000865842
0.0102557
0.0942188
0.0565177
0.118931
0.069494
0.000105983
0.00089857
0.000708836
0.00124537
0.000312228
0.000747328
0.000718639
0.000346646
0.00101
0.000942721
0.000709773
0.00135928
1.42197
1.3765
1.45816
1.41799
1.42021
1.48792
1.45157
1.5033
1.51365
1.54181
1.51599
1.45905
1.53981
1.48072
1.31563
1.31627
1.3078
1.32168
1.33612
1.34534
1.34591
1.35319
1.2587
1.25619
1.28059
1.2668
1.29898
1.304
0.898402
0.815788
0.741666
0.813948
0.614525
0.702274
0.815137
0.820995
1.04526
1.04856
1.04984
0.971878
1.13513
1.18252
1.09625
1.04722
1.18837
1.18763
1.20244
1.18313
1.22252
1.24817
1.25407
1.26278
1.26349
1.24986
1.25877
1.25805
1.25617
1.24845
0.298992
0.300046
0.453414
0.538281
0.441228
0.35672
0.593407
0.541592
0.276735
0.29211
0.262795
0.179897
1.43505
1.46874
1.45375
1.47937
1.4956
1.48508
1.5233
1.5321
1.51252
1.52313
1.51348
1.52306
1.52864
1.55255
1.57446
1.59194
1.59188
1.64427
1.61988
1.66927
1.67467
1.54722
1.55767
1.67378
1.68644
0.000421286
0.000443209
0.000697732
0.000758041
0.000525806
9.91921e-05
0.000225348
0.000224808
0.00102671
1.01907e-05
0.000927799
0.000258474
0.000583074
0.000657476
5.07035e-06
0.000780461
0.0017545
0.000580546
0.000884074
1.26421e-15
0.000563354
0.0305464
0.177651
0.0781832
0.270061
0.266521
0.23172
0.181962
0.299053
0.342792
0.400745
0.389078
0.408255
0.404346
0.518694
0.474155
0.575304
0.566205
0.592077
0.596437
0.566385
0.626987
0.668544
0.642277
0.626015
0.654827
0.703941
0.694659
0.670212
0.713168
0.801111
0.797657
0.797216
0.811914
0.938088
0.856206
1.02789
1.05125
1.05718
1.12004
1.20038
1.2706
1.28303
1.29062
1.34117
1.38927
1.42335
1.42741
1.46507
1.43689
1.48861
1.50341
1.50515
1.50296
1.50319
1.50487
1.47377
1.50366
1.46993
0.000846737
8.16081e-05
0.00560073
0.00102593
0.000769742
0.000653086
0.000713904
0.000678619
0.000804867
0.000459724
0.000836138
0.00124716
0.000322315
0.00124654
0.00124674
0.00124647
0.00124675
0.000999979
0.00124698
0.00519709
0.000998983
0.000638589
0.000184916
0.00223019
0.000297342
0.00223023
0.00223051
0.000471072
0.00048204
0.00100217
0.000993637
0.000687571
0.000909865
0.000532542
0.00109171
0.00104585
0.000785351
0.000959982
0.00100986
0.000887496
0.000962023
0.000971566
0.00151175
0.000982766
0.000146754
1.36216e-05
0.000607696
0.00096357
0.000988249
0.000479144
0.000826696
0.000990009
0.00100941
0.00031059
8.88087e-05
0.000987756
0.00100992
0.000817418
0.000560979
0.00088918
0.00101
0.000799183
0.000974466
0.000279366
0.000904827
0.00095865
0.000968892
0.00101
0.000954704
0.000876282
0.000886752
0.00100949
0.00097168
0.000773375
0.000984106
0.000952799
0.000900732
0.00098992
0.000934564
0.000964099
0.000974876
0.000974485
0.00129271
0.000985347
0.000905098
0.000639003
0
0
0
0
0
0
0
0
0
0
0
0
0
0
0
0
0
0
0
0.00099334
0.000901547
0.000937661
0.000812305
0.000978883
0.000436148
0.000948712
0.00110596
0.000325168
0.000811332
0.000317982
0.000878445
1.72595
1.71494
1.73538
1.72475
1.73494
1.73537
1.5773
1.57619
1.64458
1.6097
1.69932
1.72555
1.69568
1.57718
1.51888
0.642546
0.631498
0.655719
0.637967
0.644869
0.572255
0.611363
0.406376
0.459657
0.323939
0.326202
0.274567
0.273318
0.268555
4.53839e-05
0.000923756
0.00050274
0.00129952
0.0809671
0.269496
0.103361
0.00101286
0.000885398
0.0588196
2.19405e-05
0.000976565
0.000946011
0.000961879
0.000994817
0.000717645
0.000362926
0.000984163
0.00102681
0.000207313
0.0010264
0.000932938
0.0004632
0.000722086
0.647641
0.649663
0.641054
0.644581
0.641131
0.359284
0.472306
0.41189
0.541335
0.60101
0.62189
0.548585
0.640702
0.583354
0.586271
0.567109
0.000954778
0.00115019
0.000640987
0.000970576
0.000973219
0.000935143
0.000924987
0.00101892
9.94241e-05
0.000756558
0.00101712
0.000553925
6.92933e-05
0.000527482
0.000755922
0.000616055
0.000763669
0.000919235
0.000852749
0.00101595
0.000696279
0.000936449
0.000740767
0.000726241
0.000621516
0.00100951
0.000739043
0.000916423
0.000354107
2.15212e-05
0
0
0
0
0
0.000973716
0.000982132
0.000907267
0.00117506
0.00106321
0.00059349
0.000835369
0.00054269
0.000950777
0.00100911
0.000964926
0.000965413
0.000722883
0.000993559
0.000787048
0.000894849
0
0
0
0
0
0
0.249581
0.176534
0.166403
0.0965254
0.0846385
0.00740379
0.000480901
0.000488925
0.000337511
0.000474053
0.00207114
0.000836054
0.000375808
0.000550644
0.00033854
0.000764154
0.000783848
0.000795758
0.000905726
0.000971356
0.00099006
0.0554244
0.111253
0.0395099
0.000486704
0.000715341
0.0010052
0.000497636
0.00437938
0.00027789
0.000678107
1.31742e-05
0.000467482
0.00182641
0.00182605
0.000732399
0.000959699
0.000281529
0.000798649
0.00100972
0.000818552
1.39125
1.37373
1.38466
1.38341
1.40186
1.40418
1.41872
1.47845
1.45446
1.47195
1.5601
1.50281
1.45659
1.30576
1.30597
1.33325
1.32221
1.34506
1.34591
1.36649
1.3523
1.25991
1.26315
1.29017
1.27484
1.29054
1.29458
0.936301
0.855863
0.783518
0.815041
0.762553
0.674322
0.852683
0.817283
1.04883
1.05234
1.00818
1.05551
1.14092
1.19187
1.05404
1.09988
1.19215
1.19101
1.21527
1.19257
1.23129
1.25156
1.25216
1.24322
1.26063
1.25082
1.25541
1.25216
1.25869
1.25299
0.298132
0.354999
0.541689
0.508429
0.432495
0.523518
0.539222
0.61921
0.29408
0.282503
0.279151
0.19486
0.0331633
0.0702656
0.153306
1.5063
1.50664
1.53507
1.52725
1.54825
1.56396
1.56383
1.56258
1.60056
1.57639
1.58925
1.55573
1.58721
1.59607
1.62293
1.6413
1.65458
1.65301
1.69952
1.7051
1.72444
1.70561
1.61673
1.62425
1.73759
1.73227
0.00016622
0.000334169
0.00101
8.79813e-06
0.000729054
0.00124957
0.00124944
0.000833697
0.000305007
0.000153287
0.000187593
0.00185769
0.00131513
0.000372013
0.000822227
0.000835447
0.00100232
0.000626775
0.0164259
0.000882879
8.89416e-05
0.0683357
0.109749
0.129091
0.114807
0.220977
0.280966
0.162164
0.387939
0.322075
0.392103
0.399653
0.484659
0.425381
0.554667
0.580006
0.58215
0.584511
0.714636
0.669813
0.637968
0.697279
0.723402
0.716562
0.71204
0.694784
0.712338
0.718392
0.792049
0.838906
0.874832
0.830864
0.874852
0.899953
1.04045
0.976535
1.07092
1.05268
1.14054
1.20846
1.29862
1.28947
1.32717
1.36438
1.44616
1.43009
1.45783
1.45733
1.48734
1.49899
1.51512
1.50843
1.5195
1.51426
1.50412
1.51733
1.50264
1.50705
0.000975482
0.000934155
0.00104827
0.000734832
0.000960006
0.000657298
0.000566723
0.00117745
0.000760457
0.00124469
0.000324408
0.000854335
0.000295436
0.00124577
0.00124712
0.00124692
0.0012471
0.00124705
0.00124705
0.000329941
0.000371652
0.00100886
0.000717288
0.000938422
0.000788581
0.00100179
0.000893971
0.000997704
0.000180038
0.000954666
0.000624923
0.00101
0.000209386
0.000743775
0.00100863
0.00104524
0.000693621
0.000881619
0.000921697
0.00367845
5.1479e-05
0.000210438
0.00024578
0.00100978
0.000913563
6.55138e-09
0.000993884
0.00100983
0.000282855
0.000848872
0.00100647
0.000131712
0.00100976
0.000959372
0.000189539
0.000986414
0.000975827
0.000962549
0.00352799
0.000980885
0.000759889
0.00098777
0.000846055
0.000780582
0.0011214
0.0011212
0.00112117
0.000896489
0.000943214
0.000888864
0.000973731
0.000935172
0.000927075
0.000961192
0.000874935
0.000897996
0.000947049
0.000951887
0.000925848
1.67713e-05
0.000881191
0.00092376
0.0003855
0.000414352
0.00098456
0
0
0
0
0
0
0
0
0
0
0
0
0
0
0
0
0
0
0
0.000976688
0.000945069
0.00101106
0.000936052
0.000971272