/*--------------------------------*- C++ -*----------------------------------*\
  =========                 |
  \\      /  F ield         | OpenFOAM: The Open Source CFD Toolbox
   \\    /   O peration     | Website:  https://openfoam.org
    \\  /    A nd           | Version:  8
     \\/     M anipulation  |
\*---------------------------------------------------------------------------*/
FoamFile
{
    version     2.0;
    format      ascii;
    class       surfaceScalarField;
    location    "3120";
    object      phi;
}
// * * * * * * * * * * * * * * * * * * * * * * * * * * * * * * * * * * * * * //

dimensions      [0 3 -1 0 0 0 0];

internalField   nonuniform List<scalar> 
788991
(
0.0441243
0.0317778
-0.00481623
-0.00209287
0.0721923
-0.0381822
-0.0409257
0.0143283
0.0353992
-0.00625425
-0.0142521
0.0465306
0.00106866
0.0427306
-0.0222119
-0.0240612
-0.0189683
-0.0024203
-0.0206867
0.000578748
0.0133589
-0.037076
0.0216014
0.0124837
0.0366864
-0.0325026
-0.0285653
0.0142481
0.0954248
-0.0808304
-0.00370271
-0.0534605
-0.0416467
0.0326645
-0.0326283
-0.0217896
0.0383053
0.0141529
-0.00890145
0.00400919
0.00458175
0.0185867
0.0422243
0.0156284
0.0163753
0.0434087
0.0215679
0.0766006
0.00289269
0.0920861
-0.110653
-0.0095847
-0.0213543
-0.0572014
0.032155
0.0016867
0.0773441
-0.187245
-0.0550135
0.0597793
-0.033643
-0.0430369
-0.0481471
0.0214529
-0.0569526
0.00399121
0.0266242
0.00902116
0.0765538
0.040971
-0.000611249
0.0154478
0.247172
-0.135158
-0.0348817
-0.204368
0.0853122
-0.0306458
-0.0134896
-0.0141307
0.00196482
0.00875742
-0.0115329
0.0149756
-0.0152595
0.0674406
0.00167599
-0.00904845
0.00108078
0.00551849
0.024339
-0.00862095
-0.00144248
-0.00803386
0.00832429
0.0109588
-0.00513352
0.000452304
0.0335728
-0.00646488
0.00596535
0.00681817
0.00440034
0.0247069
-0.0117297
-0.0268405
-0.00459069
-0.0263992
0.0295078
-0.00390754
-0.0142407
-0.0341324
0.00609497
-0.00766556
0.000810463
-0.0149251
-0.0090802
-0.00678004
-0.00133775
0.0142384
-0.0148084
-0.0310041
-0.00308182
0.00918392
-0.0140539
0.0205751
-0.00573491
-0.013323
0.0187398
0.00728012
-0.0516547
-0.06496
0
0
0
0.104287
-0.0351708
-0.110025
0.0182353
-0.0729105
0.104418
-0.00874739
-0.0151864
0.0298239
0.119906
0.0417858
-0.0137744
0.052912
-0.047493
-0.0214203
0.0461976
0.0240176
0.00612699
0.000875764
-0.034038
-0.00677709
0.0123934
0.0214541
-0.00328243
0.00347234
-0.0148614
-0.00157454
0.0153322
0.00784383
0.0157902
-0.0115672
-0.00281263
0.000194815
-0.0143405
0.0144697
-0.0128568
-0.00579241
-0.00693003
-0.0193596
-0.00581691
-0.0162061
-0.00405729
0.00535828
0.00358539
0.0115227
-0.00031378
0.00379679
-0.00186841
-0.00160586
-0.00145699
0.00974321
0.0112044
0.0210696
0.0168767
0.00587724
-0.00339159
-0.00398646
0.00852545
0.00114951
-0.0139882
0.00642887
-0.0131146
0.0312841
0.0302656
-0.0236767
-0.00600151
0.0319199
0.0220343
-0.00199414
0.00718949
0.0127423
-0.0112411
0.0175809
-0.00418968
-0.0230644
-0.0262575
0.0290201
0.0210014
-0.0159782
-0.0144336
0.0159372
0.000427679
-0.00815111
-0.0512675
0.0110442
0.00754553
-0.0454403
0.0134771
0.00272552
-0.0190389
0.00146679
-0.00448601
0.00120829
0.00799172
0.0247621
-0.016444
-0.00066346
-0.0015857
-0.00814506
-0.0259958
0.0121997
0.000696126
-0.0142166
-0.0111073
-0.0168935
0.0215367
-0.00589957
0.0140942
0.022356
0.0181328
0.00237748
-0.00693915
-0.021781
-0.00510789
-0.0345402
0.00517728
-0.0109722
-0.00585676
-0.00693313
-0.0147276
0.0153716
-0.0105372
-0.0160366
-0.00644916
0.0342844
-0.0103579
0.00345049
-0.0160661
-0.0109552
0.0375207
0.00674226
-0.0101707
0.0179795
-0.016324
-0.00639228
0.00989885
-0.00659324
-0.0103867
0.0126933
-0.0101983
0.0173335
-0.0195686
0.0118988
-0.000261972
0.00773191
-0.0044615
0.0325569
0.0208083
-0.0227587
0.0480643
0.0702342
0.000262646
-0.0393621
0.00239992
-0.00149712
0.00816728
0.00393312
0.0911063
-0.00426705
-0.0103211
-0.12371
0.100925
-0.01837
-0.097927
-0.0112897
-0.00780954
-0.0352916
0.0130155
0.023061
-0.0338017
-0.00990524
-0.0227519
-0.0298596
0.0367518
-0.300016
0
-0.234558
0.0279161
0.153638
-0.1584
0
0
0
0
0
0
0
0
-0.00413497
-0.0869521
0.0168768
-0.0264204
-0.0778037
0.0173866
0.0106457
-0.0145777
-0.0108954
-0.014683
-0.00910008
0.00626973
0.00268689
0.000844439
-0.0173215
-0.000626284
-0.0210503
-0.00328463
0.0149897
0.0116155
-0.0140456
-0.0132403
-0.00903306
0.00900949
0.0265382
0.0423658
0.0019581
-0.0131543
-0.0308943
0.0129637
-0.011263
0.00735869
-0.00248339
0
0
0
0
0
0.000330887
0
-0.000711601
-0.0803314
0.0010428
0.0970776
-0.0261181
-0.0111045
-0.00108926
0.0599098
-0.0310938
0.0109371
0.00358072
0.0199068
0.0231814
-0.014646
0.0480531
0.0190157
0.00879352
-0.0113833
-0.033946
-0.035841
-0.00525542
0.0229112
-0.0175679
-0.00605268
0.000748702
-0.0154052
-0.00677345
0.00260193
-0.0103477
-0.00911993
0.00123045
0.00478917
-0.00573981
-0.0102453
-0.00653608
-0.0122087
0.000812058
0.0214755
0.00569472
0.0015132
0.0108984
0.00291651
-0.00507058
0.0241818
0.0393492
-0.020619
-0.0413721
-0.0380974
-0.0151564
0.00280283
-0.0174765
-0.020712
-0.00353166
-0.00987629
-0.00294637
0.0197788
0.00179273
0.0136007
0.00242904
-0.0175534
0.00435579
0.00448481
0.0203413
0.000412636
0.00699463
-0.0041789
0.0101712
-0.00436243
0.00747722
-0.0306803
0.00180095
-0.0299159
-0.0271718
-0.0135097
-0.0370727
-0.0194641
0.0253055
0.00729052
0.00433537
0.00764127
0.0390674
-0.0146771
0.0299841
0.0516131
-0.00551527
0.0199562
0.0168788
-0.00463893
-0.00933978
-0.0212308
-0.0115497
-0.0125704
-0.0198965
-0.00527381
0.00611245
-0.00787437
-0.00992641
0.00287646
0.0102436
-0.0211629
0.0180986
0.0124701
-0.00878823
0.0283347
-0.0306754
0.0214408
-0.0177915
-0.000626054
0.00837656
-0.0378563
-0.0159019
-0.0289568
0.00990227
-0.0159425
-0.0183009
-0.0252593
-0.0170086
0.0148571
0.031918
0.00461711
0.0149762
-0.0318491
0.016272
0.0203612
-0.0307637
0.0117566
0.0302589
-0.0102876
0.0223894
0.0299719
0.00738961
0.0247158
0.0293966
0.0164373
0.0148899
0.0133666
0.0108901
0.0101146
-0.0162066
0.0197655
-0.0111001
-0.0054354
0.0174468
-0.0325648
-0.0172499
-0.00423025
0.0164512
-0.0155682
0.0054943
0.0164949
-0.0371533
0.0161588
0.0261402
0.0065936
0.0548181
-0.0144224
0.0424279
-0.0115233
0.0148944
0.0327169
0.0160319
0.0177538
-0.000740406
-0.0165365
0.0322369
-0.158877
-0.000976072
-0.0308076
-0.00014016
-0.0234112
-0.0343659
0.0407275
-0.0219344
-0.0222223
-0.029775
-0.00277001
-0.0101809
-0.159615
-0.100043
0.0340244
-0.00867866
-0.00292764
-0.0609171
-0.00669297
0.0239229
-0.0328541
0.0297508
0.00690637
-0.0208591
0.0469481
0.0281729
-0.0347692
0.0340813
-0.185986
0
0
-0.00851236
0
-0.105565
-0.0473982
-0.0575481
-0.221839
0
-7.29515e-05
-9.66315e-05
0
0
0
0
0
0
0
0
0
0
0
-0.0306048
-0.0444947
0.00897055
-0.0148026
-0.0255768
0.000268047
0.0525278
-0.0219676
-0.0114805
0.0244985
-0.00294438
-0.00273927
0.0510291
-0.030616
0.00257564
0.0117417
0.037897
-0.0171653
0.0191903
-0.000407755
-0.00409288
-0.0102184
-0.00995643
-0.0287359
-0.000878185
-0.0240142
-0.00680705
-0.00923896
0.0134541
-0.0110522
-0.0147873
-0.00946973
0.00991649
0.000657044
0
0.000105143
0
0
-0.000134194
0.000375632
-0.000870986
5.46725e-05
0.000198446
0
-7.35494e-05
0
0
0
0
6.87478e-05
-2.36595e-05
0
-4.67876e-06
0
0
0
0
0
0
0
0.0304059
0.0373417
0.0151651
-0.0166771
0.0972638
-0.0254973
0.00287212
-0.0226295
-0.00541347
0.027732
0.00535474
-0.0402671
0.00636255
0.011092
0.0019443
0.0127442
-0.00987058
-0.00899025
-0.0119267
0.02932
0.00162878
-0.00295551
0.0272744
-0.0127944
-0.00782648
-0.00270583
0.0144304
-0.00660184
-0.0102438
-0.00491689
-0.0235733
-0.0182261
-0.000502893
-0.00132914
-0.000509085
-0.0079393
0.00197754
-0.0075213
-0.00801659
0.00238715
-0.0158764
0.00509909
0.0225173
-0.0142509
-0.0146087
-0.019084
0.00028208
0.0222798
-0.0174075
-0.0101044
0.00786306
0.0492955
0.00184667
-0.0453806
0.0270594
0.0329946
0.00242137
-0.0239952
0.00903597
0.0010699
-0.0164982
-0.00139448
-0.00707355
-0.0247629
-0.0370234
-0.0180616
-0.0302698
0.0148195
0.0109811
0.00781267
-0.0230525
-0.0115103
-0.00563658
-0.0519009
-0.00966239
-0.00879767
0.042695
-0.047454
-0.0428091
-0.00646315
-0.0277695
-0.000207711
-0.0130629
-0.0396559
-0.0210795
0.00959924
-0.0141717
-0.00561998
0.0158424
0.018072
-0.0380276
0.0104589
-0.00404087
0.00223329
0.00856685
-0.0147965
-0.0182652
-0.00586732
-0.0481218
0.00739455
0.000553658
-0.0130382
0.00294168
-0.000287207
-0.010172
0.0142979
-0.00110891
0.0063438
0.0102096
0.00839118
0.00773947
0.00621692
-0.00892912
0.0220374
-0.0199175
0.038634
0.0140995
0.0136393
-0.0231569
0.0680431
0.0255208
-0.0305607
-0.0221575
0.00177572
-0.00381661
-0.031852
-0.0373414
-0.0489585
-0.0268926
0.00572269
-0.0565531
-0.0281255
0.0277326
-0.0386379
-0.0198874
0.0456533
-0.0290364
-0.00574998
0.0255885
-0.0380039
-0.0078161
0.00539074
0.0157514
0.00463526
0.0232509
-0.020239
0.013619
0.0218955
-0.0162926
0.00804343
0.00843878
-0.0146402
0.0182517
0.0136284
-0.0143631
-0.0127136
0.000348757
-0.00541848
-0.00431134
0.00812878
0.0119936
0.0214308
0.00924095
-0.0142277
0.0210733
0.0419967
-0.0143393
0.0296025
0.0245446
-0.0185869
0.0261081
-0.00224809
-0.0165413
0.0500185
0.0176096
0.0387767
0.0591676
0.0319372
-0.00415027
0.0274591
-0.000329731
0.00425929
-0.00150612
0.0243623
0.135035
-0.00088402
-0.0374477
0.080668
-0.0102172
-0.0318012
-0.0492555
0.0146926
-0.0105545
-0.0183577
0.031061
-0.0188598
-0.0736191
-0.0367433
0.0331586
0.00791153
-0.0534989
-0.00527898
0.0220488
-0.0174948
-0.0358607
0.00148627
-0.0186092
0.0477988
0.0255716
0.00248841
0.0383785
0
0
0
-0.246836
0
0
0.000116343
-0.00355874
-0.184063
0
0
0
0
0
0
0
0
0
0
0
0
0
0
0
0
0
0
0
0
0
0
0
0
-0.000172585
0
-5.21558e-05
0
-7.69452e-06
-6.55925e-06
-4.84825e-06
0
-2.21297e-06
-2.08125e-05
7.23288e-06
0
1.12738e-05
0
0
0
0
0
0
0
0
0
0
0
0
0
0
0
0
0
-0.0012352
0.0286582
-0.0188527
-0.00566322
0.0341204
-0.00829562
-0.0144027
-0.0123323
-0.0265874
0.0293908
-0.0117127
0.00467751
-0.00981581
0.0122181
0.0388054
0.0250047
0.017142
0.00883119
-0.00504248
-0.0149765
0.0172563
0.0147448
0.0141592
0.00401096
-0.0231166
-0.0150585
-0.00284116
-0.0140089
0.00212687
-0.00981071
-0.00956393
-0.0232888
-0.00634933
0
0
0
0
0
0
0
0
0
0
0
0
0
0
0
0
0
0
0
0
0
0
0
0
0
0
0
0
0
0
0
0
0
0
0
0
0
0
0
0.000195712
0.000258127
0
0
0
0.0240184
0
0.00567782
0.0187423
-0.0357034
0.0507778
-0.00609164
-0.00210438
-0.0241463
0.0042268
-0.00822429
-0.00239962
0.0070738
-0.0246771
0.00105282
0.030058
-0.00231678
-0.0180704
-0.00266266
0.0100981
0.0186608
0.00151293
0.0460839
-0.00222245
0.00923932
-0.00258187
-0.0104361
0
0
0
-3.41565e-05
0
0
0
0
0
0
0
0
0
0
0
0
0
0
0
0
0
0
-0.00634592
-0.00662292
0.0139721
-0.0194649
-0.00973817
-0.0120737
-0.0183061
-0.00372946
0.00352158
0.00137534
0.00774863
0.000469434
-0.0112481
-0.0180167
0.0145005
-0.00230855
-0.00467141
0.0142465
-0.0481449
-0.0200136
0.0556134
-0.0117852
0.00589484
0.0197056
-0.0199804
-0.0205916
0.0251367
0.0297359
0.00320988
0.0279744
-0.0852668
0.00800788
0.044507
-0.030342
-0.0238617
-0.0111701
0.0119905
-0.00801457
-0.0456085
0.0173449
-0.000151464
0.016806
-0.0226404
-0.0375162
-0.00427757
-0.0276866
-0.0239459
0.0531899
-0.0464383
0.0839582
0.0132479
-0.040689
0.0258722
-0.0375121
-0.0635161
-0.027332
0.0233774
-0.0504059
0.0735611
-0.0519566
0.0253677
-0.0489651
-0.00685748
-0.00969413
-0.0482417
-0.0132443
-0.00575833
0.00570759
-0.00791209
0.0129039
-0.0293767
-0.0356212
-0.0153303
-0.0267042
-0.00148856
-0.0161065
-0.000450996
0.014254
-0.00789797
0.0150912
0.00442052
0.0100823
-0.00802546
-0.00194475
0.0228917
0.00146832
-0.00408397
-0.00620686
-0.00532816
0.00456451
-0.00126525
-0.00667243
0.00950036
0.0188116
0.00886906
-0.00876845
0.0501838
-0.00161672
0.0205486
-0.00654919
0.0297944
-0.00280207
0.00120799
0.0524404
0.0404942
-0.0536397
0.0495357
0.0106627
-0.00136381
-0.0858022
0.0443312
-0.135649
-0.0359092
0.0327723
0.0548714
-0.0183773
0.0188659
-0.0482479
-0.00947428
0.0128709
0.0352907
-0.00357276
0.00982418
-0.0123283
0.0132202
0.0153568
0.0104581
0.0214014
0.0126769
-0.0140952
0.0271692
0.0188111
0.0227786
0.0251237
0.00509742
0.0138937
0.0151953
0.0237618
-0.0218863
0.00181259
0.0222796
0.0110398
0.00899897
0.0318644
0.00545336
0.0422623
0.0512221
-0.0221296
0.0207937
0.0504746
-0.0208564
0.0130383
0.0384853
-0.0265926
0.00281963
0.0293509
-0.00401668
0.0341263
0.0254842
-0.0293754
0.0351788
0.00832986
-0.0353018
0.052131
-0.000313626
-0.0300341
0.0669907
0.0178794
0.046767
0.0625542
0.0185082
0.0176389
-0.0464309
0.0393002
-0.0526626
0.0818987
-0.0236256
0.0241671
0.0722363
0.0475558
0.0852878
0.0449985
-0.0270114
0.0491759
-0.031693
-0.0305677
0.034286
-0.0155899
0.0314571
-0.0274047
0.0251438
0.0217592
-0.00630534
0.0117409
-0.0134641
0.0263814
0.0224324
-0.00901471
0.00748221
0.0145585
0.0234659
0.0184981
0.033238
-0.0107899
0.036897
0.0196563
0.0212718
0.043208
-0.0103309
0.0382957
-0.021313
0.0239985
0.049122
0.0339806
-0.0143488
-0.0151735
0.0217063
-0.042582
0.0112015
0.00225082
0.000596611
-0.0227582
0.00106327
-0.0227892
0.028188
-0.0448278
-0.0274478
0.00968345
-0.0744423
-0.0187415
0.0102731
0.0227318
-1.9816e-05
-0.0323206
0.0193574
0.0241569
0.0184869
-0.0293981
-0.0716798
0.0866005
0.0236047
-0.0764814
-0.0311731
0.0173757
0.0239009
0.000416347
-0.0299886
0.0257041
-0.0162529
-0.0370095
-0.0291033
0.043622
0
-0.000104015
1.67776e-06
-0.0446404
0
0
-0.192608
0
-0.0364551
0
0
0
0
0
0
0
4.43297e-05
0.000111679
0
0
0
-0.000102588
0
0
0
0
0
0
0
0
0
-6.8793e-05
-0.00014317
0
0
0
0
0
0
0
0
0
0
0
0
-4.20038e-05
0
0
0
0
0
-5.84646e-05
0
0
0
0
-6.90794e-05
0
0
0
-0.000128802
0
-0.000264691
-0.00012364
6.48858e-05
0
-0.000104254
-9.25281e-05
-8.85793e-05
-0.000172162
-4.8716e-05
-3.92302e-05
-8.63294e-06
-5.65183e-05
-9.83156e-05
0
-0.000100716
-0.000148002
0
-7.08123e-06
0
0
0
0
0
0
0
0
0
0
0
0
0
0
0
0
-0.000163404
0
7.78187e-05
0
-8.58196e-05
0
-0.00318216
-0.0149863
-0.0042693
0.00586663
-0.0254512
-0.0151552
-0.0753516
-0.0264874
0.00533694
0.0333108
0.0119821
0.0355554
0.0254811
-0.0115318
-0.0154947
0.017309
0.0250895
0.0151578
0.00058103
0.014377
0.00347996
-0.00353434
-0.0026454
0.0168918
-0.000364209
-0.0048696
-0.000193443
-0.00091934
-0.00665198
0.00539522
-0.00892522
-0.0125022
-0.00596861
0
0
0
1.01527e-05
-0.000121302
-0.00014781
0
0
0
0
0
0
-1.79843e-05
-5.38872e-05
0.000109055
0
0
0
0
0
0
0
0
0
0
0
0
0
0
0
-6.24241e-05
0
0
6.83166e-05
8.11741e-05
5.80864e-05
0
-6.49046e-05
0
-0.0334092
0
0.0177768
-0.0293398
-0.0273453
-0.0203214
0.00945103
-0.0168878
-0.00487297
0.0168306
0.0110994
-0.0318743
0.0070949
0.0063385
-0.00961768
0.0120857
0.000388498
0.00679212
-0.0228756
-0.0113821
-0.0213301
8.63542e-05
-0.0280457
0.00699941
-0.0642235
0.0140761
-0.0390155
3.94241e-05
8.78742e-05
2.5248e-05
2.49601e-05
0
1.29349e-05
0
-2.88981e-06
0
1.31715e-06
0
-1.03416e-06
-1.25949e-06
0
0
0
0
0
0
1.38666e-05
0
0
0
0
0
0
0
0
0
0
0
0
0
0
0
7.86807e-05
0
-9.53676e-05
-0.0183685
-0.00464637
0.00318292
-0.0133552
-0.0204654
-0.000308391
0.00788049
-0.00237039
-0.00291194
-0.0079106
-0.0310056
-0.0150264
-0.00465481
-0.003661
0.0162592
-0.0379433
-0.0385087
0.020191
-0.0200849
-0.0484594
-0.00433752
-0.0141133
0.00557303
0.0139483
-0.0412699
-0.0145675
-0.0184477
-0.00348054
-0.0288925
0.0301961
0.0493202
-0.0296171
0.00506838
0.0503348
0.0279932
0.0112607
-0.0562409
-0.00784103
0.00402119
-0.0249499
-0.0297696
0
-0.0263222
0
0
0.00145283
0
-0.00105455
-0.0565495
-0.072311
-0.0239976
-0.0551802
-0.0858272
-0.0202591
-0.0385243
-0.0605725
-0.012101
-0.0758611
-0.0502171
-0.0241428
-0.0437803
-0.0743797
0.0344967
-0.0534185
-0.0790697
-0.0167842
-0.0581816
-0.0468052
-0.0322053
-0.0347131
-0.0335386
0.037747
-0.0056721
-0.00842507
-0.0198257
0.00187564
0.0134309
-0.01863
0.00452436
0.0162807
0.0153864
0.0141756
0.026471
0.00509949
0.0384896
0.0247791
-0.0463828
0.0226321
0.0188261
0.0224825
0.0194007
-0.00710483
-0.063632
-0.0505796
-0.0267226
-0.0500433
-0.0311159
-0.0151944
-0.0561655
-0.0409842
0.0234984
-0.0674598
-0.0412313
-0.0635633
-0.0161992
0.0457653
0.00580584
0.00135057
0.0116543
0.00184405
-0.0386688
-0.0026064
0.00328299
0.0208218
0.000920879
0.00235536
0.0163859
0.0063016
0.0212973
0.0140698
0.0204553
-0.00585752
-0.00535641
0.001914
0.00792183
-0.0311006
0.0328509
0.0155517
-0.00614396
0.00783445
-0.069741
0.174819
0.013471
0.313793
0.0427468
0.298035
-0.297692
-0.144844
-0.128079
0.159026
-0.0625368
0.0302851
-0.0927596
-0.00874887
-0.021388
0.0104374
-0.00808573
-0.0486745
-0.0100444
0.00212759
-0.0123373
0.0202429
0.0101958
-0.00913088
-0.0253239
0.0360719
0.0274012
0.0151543
0.0133366
0.0155174
-0.0218496
0.01919
0.0264405
-0.00696187
0.0244258
0.0271835
0.00322821
0.0241402
0.035201
0.0152648
-0.00192537
0.0191491
-0.00364672
0.0559115
0.00882669
0.0284397
0.0287014
0.026339
0.010832
0.037144
0.00135748
-0.0047111
0.0297287
0.0395261
-0.0299635
0.0281248
0.0311285
0.00604142
0.033362
0.0158365
-0.0310467
0.035286
0.0074579
0.0346422
0.0452887
0.00977763
-0.0367728
0.0650787
0.0141007
-0.0440507
0.0403483
0.032634
0.0734828
0.0851115
0.0420252
0.0311365
0.0488478
0.0339365
-0.0188341
0.031995
0.0258979
-0.000366816
0.0140473
0.030705
0.00968719
-0.00851769
0.0269306
0.0238753
-0.0148904
0.0186468
0.0408266
-0.0121055
0.0235609
0.0414637
-0.0105188
0.034202
-0.049925
-0.0167136
0.0320219
0.0431193
-0.0274172
0.0225075
0.0330017
0.0465417
-0.0265714
0.0471832
0.022879
0.0249834
-0.0465488
0.0270864
0.0503154
0.0252008
0.0548017
0.0300071
-0.00853755
-0.0236577
-0.0134924
0.00587251
0.025233
0.00334443
0.00753762
0.0149508
-0.0180986
0.024618
0.00586707
-0.0189514
0.010036
0.0407926
-0.0164543
-0.0217629
-0.0255816
0.0197591
0.0260667
-0.000779404
0.0129431
0.0128312
-0.00384244
-0.0250302
0
0.0250414
0
-0.0432758
-0.0146009
0.0388861
0.0428046
-0.0857389
-0.00762494
-0.0789639
0.0565397
0.0107191
-0.0381634
0
0
0
0
0
0
5.79883e-05
5.72872e-05
2.97624e-05
0
0
0
-5.81057e-05
0
0.000145579
0
-6.84877e-05
0
0
0
0
0
0
0
0
1.76184e-05
0.000151555
0
0
0
0
9.45042e-05
0
0
0
0
0
0
0
0
-3.11989e-06
-6.59141e-06
0
0
0
0
-7.00343e-05
-2.87359e-05
0
0
0
-0.000137594
-2.81215e-05
0
0
0
0
4.30842e-05
0
0
-7.26137e-05
0
0
0
0
0
0
0
0
-0.000163356
0
9.13544e-05
-0.000183326
0
2.96953e-05
0
-0.000153344
0
0
0
0
0
0
0
0
3.47527e-06
0
0
0
0
-0.00965033
-0.0331075
-0.00855663
-0.0173439
0.010851
0.0121817
0.0173211
-0.0376945
-0.027985
0.0178275
-0.00296923
0.0407229
0.0421301
0.0612854
0.00684515
-0.000847485
-0.00819308
-0.0113121
0.006563
0.0387475
0.00897566
-0.0136728
-0.0188477
0.00589741
0.0055414
-0.00248563
-0.00435504
0.000142913
-0.0025754
0.00722442
-0.0118756
-0.00744885
0.00302443
4.95262e-06
0.000112902
-5.49516e-05
0
2.95136e-05
-6.53783e-05
0
0
0
5.31059e-05
0
0
0
0
0
0
0
0
0
0
0
0
0
0
0
0
0
0
0
0
-0.000110039
0
0
0
0.000133919
-0.000241075
0
0
0
-0.0404156
-0.00420703
0.0424715
-0.0513235
-0.00927199
-0.0435163
0.0100239
-0.0107854
0.00129913
0.0270925
0.00382587
-0.00111033
-0.00699595
-0.000871393
0.0123578
-0.00577859
-0.00723251
0.0187736
0.0084603
-0.0448267
-0.0118351
-0.00614595
-0.0118088
0.00517784
-0.0137615
0.0111524
-0.0170829
0
0
0
0
0
0
0
0
0
0
2.31405e-06
0
0
0
0
0
4.10598e-05
0
3.85539e-06
0.000173929
4.49497e-05
0
0
-8.33859e-05
0
0
0
6.90176e-07
0
1.06712e-05
0
-1.98445e-05
-1.08777e-05
0
0
0
0
0
0
0
0
0
0
0
0
-0.0387674
-0.029743
0.00687333
-0.0150929
-0.0183617
0.00965806
-0.0199197
-0.0296956
0.0323196
-0.0082386
0.0069991
-0.00623886
-0.0293443
-0.0078702
-0.00986849
-0.00472818
0.00562102
-0.00590917
-0.0263579
-0.00853337
-0.0121479
0
0.0385648
0.0215837
0.00998646
-0.0346993
-0.000176329
-0.0424781
-0.0494681
-0.0110589
0.00291642
-0.03205
-0.0234835
-0.0672776
-0.0447028
0.00250337
-0.0399152
-0.00317612
-0.000886157
0.0397081
0
0
0
0
0
0
0
0
0
0
0
0
-0.0199897
-0.0408936
0.0164547
-0.0451406
0.0385661
-0.0178902
-0.00967762
0.0185497
0.0353949
0.0320133
-0.0383806
0.0389093
-0.0380181
-0.0156622
0.0363392
0.0204424
0.0292914
0.0499326
0.032676
-0.0523953
0.0173074
0.0162086
0.0256401
-0.048375
0.0504787
0.0349336
0.0111114
0.0314391
-0.0466459
0.0491545
-0.0377751
0.0404851
-0.054026
0.00120336
0.0608791
0.0497064
0.0236486
0.0418601
0.0260245
0.0251611
0.0423357
-0.0205509
0.0286868
0.0405348
0.0169704
-0.0567913
-0.081908
-0.0169328
-0.0460805
-0.0762645
-0.013357
-0.0413382
-0.0543918
0.00628034
-0.0769609
-0.0488796
-0.0166175
-0.0557973
-0.0777637
0.0210194
-0.0671171
-0.0827185
0.00295619
-0.0659051
-0.0509621
0.0453336
-0.0281752
-0.0273318
0.0208862
-0.011297
-0.0170948
0.0108556
0.00268087
-0.00428766
0.001795
0.0122502
0.00690652
-0.00260381
0.0179934
0.00622553
-0.00817347
0.02733
0.0149585
0.0165691
0.0053001
0.00725115
-0.00500959
-0.040956
-0.0605621
-0.0292579
-0.0546235
-0.0118673
-0.0571192
0.0271585
-0.0536398
-0.0546206
0.00436431
-0.0658887
0.0173137
-0.0714815
0.00765259
0.0233035
-0.00198153
-0.0202237
-0.018247
0.0374103
0.0559385
-0.0281748
0.0333436
-0.0536716
-0.0116514
0.0236309
0.0472702
-0.0127144
0.0330907
0.0448973
-0.0266111
0.0330224
0.0449465
-0.0147891
0.0226633
0.0394696
-0.000564285
0.0249912
0.0377564
0.0518692
-0.00422031
0.039444
0.0385576
-0.0144353
-0.00342253
-0.0110563
0.00850548
-0.0157591
-0.00441696
0.0136032
0.0228529
-0.014377
0.0151454
0.017771
-0.0344486
0.00531934
0.0335014
0.00550634
0.00759693
-0.016347
-0.0297037
-0.0740462
-0.042972
0.0187659
0
0
0
-0.131138
0
0
-0.0602017
0
-0.147631
-0.00741754
-0.0449341
-0.0142647
-0.0230765
-0.0566213
-0.0669618
-0.00286583
-0.102785
0.0610256
-0.0173794
0.0319001
-0.0853132
0.0100674
-0.0197492
0.0233358
0.0249485
-0.0266937
-0.0213879
0.00934081
-0.0105484
-0.0368002
0.0376502
0.0167364
-0.00368218
0.0203378
0.046819
0.0335542
0.0188583
0.0234529
0.0124182
0.0254327
0.0102848
0.0121213
0.00889673
0.0188284
0.012863
0.00396994
0.0465073
0.018417
0.0257617
0.0362388
-0.00296345
0.0223155
0.0243241
-0.0162145
0.00873602
0.0374957
-0.0186913
0.00935463
0.0351718
0.0107843
0.0427678
0.0177864
0.0167297
0.0418187
0.0086267
-0.0347687
0.061189
0.0192882
-0.039869
0.0438798
0.0356122
0.0729599
0.0663964
0.0312632
0.0343408
0.051438
0.0327223
-0.0273362
0.0364326
0.0254368
-0.00788721
0.0215246
0.0358036
0.0106758
0.0027988
0.0350114
-0.0223143
-0.0207506
0.0269842
0.03117
-0.0186511
0.01874
-0.0420449
-0.00873623
0.0267688
-0.0394245
-0.00654441
0.0417003
0.0468643
-0.0110445
0.0413752
-0.0425643
-0.0213423
0.0399737
-0.0427755
-0.0470829
0.0315582
0.0109082
-0.0250051
0.000621627
-0.0497168
-0.0300844
-0.000482139
0.0244673
-0.0601283
-0.0242199
0.00623924
0.001093
0.0174048
0.00253849
-0.00671164
-0.0582085
0.00042457
-0.00551581
-0.0302813
-0.0142054
-0.0187325
-0.0122449
0.0140296
-0.0289226
-0.0537029
0
0
-5.96308e-05
0
-0.0469501
0
-0.034995
-0.0589054
-0.0347741
0
-0.0116081
0
0
0
0
0
0
0.000105758
0.000147735
-4.40719e-05
9.54315e-05
0
8.11366e-05
4.96051e-07
4.46147e-05
7.49168e-07
0
0
0
0
0
0
0
0
0
0
0
0
-0.000122526
0
-0.000316235
0
0
0
0
0
0
0
0
0
0
0.00327609
0.00208843
0
0
0
0
0
0
-4.13716e-05
0
0
0
0
0
0
0
0
0
0
0
0
-2.15766e-05
-4.80933e-05
-1.8924e-05
0
-1.38659e-05
0
-3.2778e-05
0
0
0
0
0
0
0
0
0
0
0
0
-0.000183103
0
-0.000105062
0
0
0
-6.24925e-05
0
0
0
0
0
0
0
0
0
-9.35785e-05
0
9.03589e-05
0
0
0
-0.000433063
0
0.000140094
0.0379
0.0147846
-0.0557224
-0.0243395
0.0419163
-0.0336133
0.0348412
-0.00476902
-0.00500007
0.02255
-0.0598345
-0.00823908
-0.00951062
0.0152319
0.0167668
0.00219967
0.0619771
0.00867885
-0.0156568
0.0109073
0.030783
0.0408209
0.0369829
0.00601718
0.0100407
-0.00451182
0.00393633
0.0091377
0.0114634
-0.00704316
0.00199007
0.00330396
0.000351102
-0.00177008
-0.00022599
0.00517124
-0.00655789
3.41891e-05
0
0
0
0
0
0
0
0
0
0
0
0
0
0
0
0
0
0
0
0.0292619
-0.0164099
0.0487856
-0.00330427
0
0
0
0
0
0
0
0
0
-0.000107112
0
0
0
0
0
-0.0174459
0
-0.0322169
-0.0144416
0.0265686
0.0131685
-0.00374466
0.00183494
0.0309901
0.0194498
-0.00106647
-0.0140962
0.0147124
0.00512297
0.00541642
0.00927299
0.00218982
-0.0118346
-0.00124116
0.0348109
0.00477415
-0.0013792
0.0374989
-0.0409187
-0.0069567
0.00744551
0
0
2.20161e-05
-4.51391e-06
0
0
0
0
0
0
0
0
0
0
0
0
0
0
0
0
0
0
0
0
0
-3.15685e-05
0
0
8.01574e-05
0.00011402
0
0
0
0
1.60659e-05
0
1.0367e-06
0
0
0
0
0
0
5.44662e-05
-2.52908e-05
0
0
0
0
0
0
0
0
0
0.00429616
0.0123635
-0.00833731
0.0130583
0.00792622
-0.0157974
-0.00447303
0.0134625
0.00920998
0.0131575
0.00109987
-0.0431133
0.0247731
-0.0371413
-0.019061
0
0.00674804
0.0230151
-0.00856039
0
0
0
-9.57721e-05
0
4.53503e-05
-0.00715009
-0.0121053
-0.000983059
0.0106826
-0.00879687
-0.0415883
0.00447709
0.0108414
0.0413102
-0.0396057
0.0106725
-0.0173858
-0.0265927
0
0
0
0
0
0
-5.02961e-05
0
0
0
0
0
0
0
0
0
0
0.0231659
0.0343868
0.0202399
-0.000857221
0.0428419
0.020541
-0.000259484
0.0392345
-0.0320821
0.0307125
0.0408751
-0.0600063
0.0214329
0.0480421
-0.033409
0.0103312
0.050597
0.0443264
0.00859687
0.0525733
-0.0450578
0.0119093
0.0469467
-0.0191618
0.0107289
0.0235748
-0.0257615
0.0292079
0.0358793
0.0215084
0.0235689
0.0434004
-0.0352414
-0.0624801
-0.0750955
0.00484253
-0.0514947
-0.067606
0.00370984
-0.0439816
-0.0564836
0.00766961
-0.0813203
-0.061943
-0.000745801
-0.0740247
-0.0911323
0.0387952
-0.0232505
-0.0736492
-0.0461503
-0.0155918
-0.0425636
-0.0542939
-0.0197192
-0.0606232
-0.0568922
-0.000712685
-0.0287486
-0.0373317
0.00497047
-0.00843677
-0.0213091
-0.00228764
0.00324528
-0.0130938
-0.00312326
0.0144809
-0.0046773
0.0156332
0.0143187
-0.000299456
0.0218326
0.014274
0.00357463
-0.00907974
-0.0211505
-0.00831934
0.0138869
-0.0234254
-0.0194016
-0.0170346
-0.0436757
-0.0391266
0.0277937
0.0148844
-0.051483
-0.021392
-0.0429894
-0.0454064
-0.00658542
-0.0188343
0.00686344
0.0399759
0.0194273
0.0291417
0.0392774
-0.0112802
-0.012763
0.0329188
-0.0473744
-0.0150769
0.0386893
-0.0516349
-0.0247307
0.0499953
0.0304557
-0.0115801
0.0207306
0.0464002
-0.00686082
0.0315939
-0.0425538
-0.0157712
0.0379225
0.0430489
-0.0105843
0.0226278
-0.0384898
0.00182874
0.0240488
0.03734
0.0058251
0.0407418
-0.0364383
-0.0120932
0.027698
-0.0188681
0.0444211
0.000163572
0.0489314
0.0360109
0.0372522
-0.00262345
0.0250772
-0.00184266
0.0292362
-0.0356332
-0.00104878
0.0262963
0.0154801
-0.050952
0.0057068
-0.0480297
0
-0.0568419
0
-0.0092057
-0.0179088
-0.0046207
0
-0.000111879
0
4.25154e-05
0
-2.04294e-05
-2.47997e-05
0
0
0
0.0234255
5.74092e-05
4.78046e-05
-0.385674
-0.0476564
0.0471218
-0.00920231
-0.017334
0.0509388
-0.0543011
0.00440604
-0.0401433
-0.000233492
-0.000343415
0.00205026
-0.00308107
-0.0656577
0.0348401
-2.65179e-05
-0.0604729
0.0236403
0.0221647
-0.00862728
-0.00973678
0.00883822
0.0191309
0.00566609
0.0312389
0.0100999
-0.00353629
0.0254836
0.0152962
-0.0147229
0.0202601
0.015199
-0.0112209
0.0209625
0.0350471
0.00790735
0.0164038
0.0211093
-0.0198951
0.0118365
0.00941257
0.00575862
0.0342355
0.00697848
-0.0139436
0.0166318
0.0500298
-0.0085112
0.0178468
0.0442276
-0.0190673
0.0464561
0.0111967
-0.00270598
0.0470127
0.0354319
-0.0247812
0.035736
0.0220551
0.0562947
0.0387225
-0.0220526
0.0489922
0.0225246
-0.0221971
0.0365077
0.0214174
-0.00738138
0.0198174
0.0322787
-0.00777078
0.00298644
0.0353932
0.0185641
-0.0109109
0.0274022
-0.0336531
-0.0275886
0.0201164
0.0384847
-0.0206623
0.016851
0.0405287
-0.00720129
0.0248524
0.0391309
-0.00380236
0.0439844
-0.0422599
-0.00514054
0.0448577
-0.0447922
-0.0426299
0.0385504
0.0090644
0
0
0
0.0178816
0
0.054584
0.00856012
0.0383951
-0.0132512
-0.047898
0.00725585
-0.0086655
-0.051864
-0.0408377
0
0
0
0
-0.0443281
0
0
-0.0118187
0
0
0
0
0
0
-2.52773e-07
0
0
0
0
0
0
0
0
0
0
0
0
7.5063e-05
2.67407e-05
7.30237e-06
0
5.62032e-05
0
0
0
0
0
0
0
0
0
0
0
0
0
0
0
0
0
-1.82323e-05
2.9251e-05
-0.000120204
0
0
0
0
0
0
0
0
0.00546291
0
-0.00217521
0
-0.00208033
0
0
9.57126e-06
0.000124837
7.92579e-06
0
-3.57632e-05
0
0
0
0
0
0
0
0
0
9.7413e-05
6.49144e-06
0.000160151
0
-1.56519e-05
0
-0.000318596
0.000184129
-0.000159312
0
-0.000243958
0
0
0
0
1.50485e-05
0
-8.02757e-05
0
-4.39985e-05
-4.3704e-05
0
0
0
0.00019835
-0.000233406
0
0
-0.000710724
0
-0.00021806
0
0
0
0
0
5.42499e-05
0
0
0
0
0
-1.10449e-05
0
1.14687e-05
0
0
0
-0.000109137
0
0
0
0
0
0
0
0
0.0360525
0.0713337
-0.00910282
0.0060358
0.0433229
0.0596454
0.0151227
0.036558
0.0372303
0.033586
0.00722998
-0.0395112
0.0424434
-0.0125129
0.0023658
-0.0492453
-0.0095029
-0.0325421
-0.0761602
-0.0119544
0.0606538
-0.00533102
0.0162905
0.0219298
0.00726669
-0.0183065
0.0210163
0.0162836
-0.00331386
0.00935696
0.0064738
-0.00973679
0.000566461
0.0045028
-0.00907486
-0.00198416
0.00346496
-0.0164221
0.0112059
0.000365134
0
0
0
0
0
0
0
0
0
0
0
-0.0141222
-0.0399802
-0.000306322
0.00831343
0
0
0
0
0
0
0
-0.0236134
0
0
0
0
-3.53454e-06
0
6.92986e-06
0
3.38744e-06
0
0
0
0
0
0
-0.0676052
-0.0024355
0.0160083
-0.014993
-0.0183531
-0.00711563
0.0193344
-0.000722104
-0.000612508
0.00611146
-0.0233285
0.0107446
0.0530331
-0.00882138
0.0026899
-0.0110742
-0.0153905
-0.00489884
0.0260817
-0.0492198
-0.0245143
-0.0337194
-0.0206383
-0.0440383
-2.62571e-06
0
0
8.16754e-06
7.46086e-05
-2.10029e-05
9.73142e-05
8.94548e-05
-2.27681e-05
2.54824e-05
4.34348e-05
0.000114755
-4.53894e-05
0
8.8905e-05
0
0
-1.08181e-05
-0.000537806
0
0
0
-0.000181056
0.0006042
-0.000407875
0
-0.000836192
-0.000499773
-0.000232944
0
0
-5.01777e-06
0
-0.000100632
0
0
8.26719e-05
-7.86922e-05
0
0
0
0
0
7.68944e-06
0.000114876
0
0
0
0
2.92386e-05
0
0
0
0
0
0
0
0
0.000120132
0
0
0
0
0
0
0
-0.00728708
-0.0172304
0.0280281
-0.00888818
0.00914229
-0.0189572
0.00189478
-0.00568098
0.00272027
0.00551824
-0.0187084
-0.0358963
-0.0081789
0
-0.0154351
0
-5.52141e-05
-0.000144199
0.000144273
-0.0484293
-0.0732125
-0.0232576
0
-6.1695e-05
0
0
0
0
0
0
0
-0.0334776
0
0.036068
-0.00277431
-0.0137633
0.028934
0.00188323
-0.0193408
0.00738295
0
0
0
-8.31214e-05
0
9.0576e-05
0
0
0
0
0
0
0
0
0
-8.11685e-05
0
5.47264e-05
0.0167096
0.0508735
-0.024683
0.0172603
0.0187865
-0.0487242
-0.0110518
0.027371
0.0156704
-0.0564923
0.0247965
0.047505
-0.0499718
0.0210101
-0.0952663
0.0447878
0.0868408
0.031341
0.12414
0.0914475
0.0100649
0.0494428
0.0441124
0.0101877
0.0472663
0.046933
0.0278182
0.0498033
0.0236597
0.0278073
0.0514492
0.0300594
0.00769259
0.0174388
-0.0306547
0.00472436
0.0354783