/*--------------------------------*- C++ -*----------------------------------*\
  =========                 |
  \\      /  F ield         | OpenFOAM: The Open Source CFD Toolbox
   \\    /   O peration     | Website:  https://openfoam.org
    \\  /    A nd           | Version:  8
     \\/     M anipulation  |
\*---------------------------------------------------------------------------*/
FoamFile
{
    version     2.0;
    format      ascii;
    class       volScalarField;
    location    "13080";
    object      Hclip;
}
// * * * * * * * * * * * * * * * * * * * * * * * * * * * * * * * * * * * * * //

dimensions      [0 1 0 0 0 0 0];

internalField   nonuniform List<scalar> 
526318
(
0.719528
0.680257
0.754601
0.663198
0.734631
0.687484
0.705187
0.620959
0.682245
0.564157
0.538628
0.664268
0.608326
0.650114
0.607993
0.632378
0.609171
0.804375
0.719111
0.759495
0.757226
0.707842
0.472461
0.713105
0.594538
0.458571
0.732254
0.734676
0.73278
0.748004
0.775413
0.821433
0.806851
0.6866
0.68822
0.658453
0.658384
0.750855
0.678719
0.622142
0.684837
0.660936
0.325339
0.37273
0.280694
0.333959
0.30145
0.431315
0.606831
0.50726
0.59364
0.5944
0.548623
0.505631
0.00325934
0.244438
0.243919
0.0422029
0.763744
0.777208
0.795871
0.749766
0.69389
0.820485
0.815866
0.777493
0.760936
0.766881
0.661627
0.653834
0.776396
0.552966
0.606354
0.498793
0.454681
0.444678
0.54531
0.535779
0.452451
0.492979
0.572772
0.573848
0.527412
0.484186
0.508876
0.578038
0.577969
0.555678
0.505973
0.577664
0.483835
0.429463
0.427318
0.35793
0.354182
0.358673
0.359026
0.357031
0.352771
0.351691
0.001
0.001
0.001
0.001
0.001
0.001
0.264633
0.0746185
0.393154
0.350553
0.39204
0.50839
0.73612
0.624278
0.733429
0.747244
0.814744
0.783619
0.830393
0.349935
0.348449
0.353672
0.355079
0.311574
0.348795
0.262983
0.303691
0.215578
0.260139
0.212216
0.210042
0.201586
0.178404
0.168876
0.195189
0.137403
0.191815
0.144322
0.16094
0.103983
0.11245
0.133554
0.159817
0.148192
0.105802
0.103733
0.122465
0.109051
0.104809
0.111371
0.126288
0.113433
0.112894
0.116485
0.114828
0.0825618
0.118183
0.110477
0.0857552
0.0392376
0.113687
0.0649979
0.129139
0.619985
0.711112
0.655872
0.640432
0.444642
0.512397
0.447461
0.443972
0.444841
0.44311
0.465045
0.443877
0.377661
0.349311
0.316127
0.256997
0.316207
0.359818
0.35778
0.36044
0.246074
0.295873
0.182817
0.192805
0.201141
0.192081
0.195805
0.199096
0.188098
0.189829
0.184642
0.17459
0.156297
0.178501
0.172792
0.145385
0.124444
0.15268
0.132392
0.132544
0.140631
0.135648
0.14077
0.101282
0.117115
0.152662
0.152442
0.596698
0.615827
0.648803
0.622552
0.602488
0.601107
0.599722
0.476754
0.51794
0.26232
0.248433
0.239001
0.367287
0.500397
0.376767
0.415336
0.412633
0.363156
0.340395
0.001
0.001
0.001
0.186207
0.001
0.001
0.001
0.001
0.001
0.001
0.814265
0.794395
0.843605
0.835781
0.807742
0.79203
0.703035
0.792845
0.635552
0.579037
0.579713
0.578918
0.579772
0.577404
0.565636
0.566607
0.485989
0.545442
0.365872
0.419329
0.348878
0.363819
0.00100536
0.001
0.001
0.00100202
0.001
0.001
0.001
0.001
0.361092
0.173696
0.408586
0.409612
0.519731
0.622558
0.744131
0.751172
0.78783
0.758487
0.824376
0.8604
0.327036
0.331057
0.2891
0.261025
0.15679
0.195879
0.123535
0.130311
0.122942
0.11836
0.10478
0.111693
0.0373517
0.0596684
0.100313
0.131945
0.181298
0.156574
0.112567
0.114063
0.0472439
0.0380813
0.0955902
0.147664
0.0640819
0.106236
0.106666
0.0756535
0.0690558
0.0392426
0.0357018
0.00107393
0.001
0.0023082
0.001
0.117312
0.14934
0.11373
0.157889
0.517151
0.476828
0.371417
0.460197
0.382948
0.43208
0.443392
0.434147
0.442154
0.443927
0.353211
0.26997
0.201405
0.180341
0.256897
0.194942
0.18475
0.296233
0.185669
0.235819
0.17493
0.174082
0.1834
0.174643
0.189767
0.184009
0.183338
0.184776
0.184248
0.182804
0.194894
0.188113
0.201232
0.201551
0.203612
0.183448
0.193037
0.180111
0.150959
0.150289
0.17569
0.204222
0.201212
0.177123
0.161909
0.180911
0.223072
0.225635
0.237484
0.196765
0.226643
0.249796
0.289322
0.236629
0.244251
0.27268
0.306538
0.422747
0.498923
0.423109
0.45192
0.526921
0.589654
0.49968
0.364375
0.477215
0.378103
0.395347
0.138763
0.0855858
0.116169
0.0985701
0.211115
0.328558
0.26591
0.332743
0.335872
0.357554
0.332579
0.001
0.001
0.001
0.001
0.001
0.001
0.001
0.00100998
0.001
0.00100962
0.001
0.00100889
0.001
0.001
0.001
0.001
0.838699
0.826937
0.862377
0.853897
0.835668
0.801253
0.732174
0.643699
0.578538
0.59225
0.567348
0.56754
0.544355
0.55065
0.526877
0.526563
0.477081
0.520311
0.443319
0.386011
0.331412
0.287279
0.001
0.00107399
0.001074
0.001
0.001
0.001
0.001
0.00107401
0.00107398
0.00107398
0.00100999
0.00100984
0.001
0.00100942
0.001
0.001
0.001
0.001
0.001
0.001
0.001
0.001
0.001
0.001
0.0623703
0.001
0.273227
0.432158
0.445465
0.537021
0.759438
0.653421
0.770871
0.775727
0.781692
0.818736
0.842485
0.867031
0.250263
0.247068
0.20348
0.227061
0.166487
0.132842
0.12229
0.122241
0.11715
0.123811
0.0746825
0.0676002
0.0160533
0.0287591
0.0853239
0.0600372
0.0288231
0.076309
0.0692793
0.0989428
0.001
0.001
0.012456
0.0248535
0.0267465
0.001
0.001
0.001
0.001
0.001
0.001
0.266914
0.236084
0.249574
0.251754
0.263539
0.375584
0.327382
0.302625
0.196477
0.239777
0.221342
0.228785
0.120388
0.0641868
0.235106
0.350903
0.240696
0.2441
0.226142
0.307146
0.289793
0.357507
0.389886
0.320142
0.299535
0.330215
0.209774
0.180729
0.178865
0.183111
0.097858
0.149304
0.0763604
0.001
0.00918145
0.126849
0.125118
0.175764
0.174866
0.174868
0.176355
0.173805
0.180907
0.175181
0.189949
0.179202
0.199202
0.192161
0.198435
0.20119
0.220561
0.211448
0.234824
0.236746
0.1839
0.169926
0.23297
0.226227
0.20305
0.225651
0.209529
0.193222
0.244697
0.228321
0.329929
0.335497
0.291118
0.323259
0.332056
0.300853
0.402782
0.368145
0.428974
0.465161
0.478369
0.394297
0.395528
0.40012
0.362812
0.341901
0.314693
0.398012
0.246449
0.230161
0.277275
0.298928
0.001
0.0283883
0.108632
0.22685
0.262849
0.295862
0.205057
0.167243
0.12806
0.0691698
0.001
0.001
0.001
0.001
0.001
0.001
0.001
0.001
0.00100979
0.001
0.001
0.001
0.001
0.001
0.001
0.001
0.001
0.001
0.001
0.001
0.001
0.00101
0.001
0.001
0.001
0.001
0.0011804
0.001
0.00107475
0.001
0.00118021
0.00118016
0.001
0.001
0.001
0.001
0.001
0.001
0.001
0.001
0.00100959
0.001
0.00100965
0.001
0.001
0.001
0.831036
0.843398
0.861987
0.854723
0.835281
0.755899
0.578715
0.666221
0.549023
0.550297
0.529956
0.528289
0.521052
0.518759
0.513282
0.513576
0.456253
0.43073
0.333135
0.370549
0.228189
0.267585
0.001
0.001
0.001
0.001
0.001
0.001
0.001
0.001
0.00101
0.001
0.001
0.001
0.001
0.001
0.001
0.001
0.001
0.00100737
0.001
0.001
0.001
0.001
0.001
0.001
0.001
0.001
0.00101
0.001
0.001
0.001
0.001
0.001
0.001
0.001
0.247693
0.0782952
0.455904
0.415612
0.482742
0.585166
0.695715
0.772716
0.787354
0.771352
0.812279
0.847516
0.833997
0.825936
0.00116208
0.001
0.001
0.001
0.001
0.001
0.001
0.001
0.001
0.001
0.001
0.001
0.001
0.001
0.001
0.00101
0.001
0.228681
0.225956
0.230395
0.188537
0.111885
0.148281
0.0734682
0.0671177
0.0325465
0.0247224
0.001
0.001
0.00979285
0.00632098
0.001
0.0022631
0.001
0.0462276
0.0280929
0.0307317
0.001
0.001
0.001
0.001
0.001
0.001
0.001
0.001
0.001
0.001
0.001
0.001
0.46799
0.44246
0.477998
0.493307
0.430028
0.390597
0.565073
0.587583
0.654817
0.658437
0.2006
0.248103
0.288804
0.380005
0.198641
0.143621
0.175246
0.177227
0.0195665
0.078258
0.123346
0.0110983
0.225626
0.226967
0.226895
0.223078
0.241773
0.225863
0.23526
0.256496
0.133356
0.126956
0.0287105
0.111358
0.110877
0.0614361
0.0205514
0.0279699
0.001
0.001
0.001
0.0611002
0.124449
0.0553838
0.121747
0.173404
0.176518
0.174141
0.17751
0.181128
0.200521
0.192582
0.209656
0.208984
0.219426
0.216518
0.243972
0.243042
0.247146
0.248743
0.252024
0.253431
0.286299
0.257066
0.228062
0.229574
0.286018
0.261059
0.266649
0.300308
0.34567
0.349347
0.349729
0.34814
0.378749
0.42998
0.49439
0.516407
0.521025
0.503878
0.642777
0.583699
0.711671
0.747965
0.735003
0.7758
0.830109
0.696235
0.782326
0.803635
0.882927
0.931997
0.953601
0.980165
1.00942
0.949021
1.00617
0.963998
1.04527
1.04445
1.09438
1.06388
1.12045
1.15368
1.13932
1.09172
1.15495
1.17826
1.14451
1.14218
1.21036
1.18605
1.21756
1.15959
1.15657
1.22311
1.19207
1.1442
1.14347
1.17645
1.20889
0.196168
0.164776
0.33674
0.3266
0.301305
0.295378
0.288415
0.064709
0.192391
0.001
0.001
0.0267555
0.0122502
0.001
0.001
0.001
0.127658
0.0326005
0.028478
0.001
0.001
0.001
0.001
0.001
0.00101
0.001
0.001
0.001
0.001
0.00101
0.001
0.001
0.001
0.001
0.0016622
0.001
0.001
0.001
0.001
0.001
0.001
0.001
0.001
0.0013323
0.001
0.001
0.001
0.001
0.001
0.001
0.001
0.001
0.001
0.00100829
0.001
0.001
0.001
0.00100928
0.00100997
0.001
0.001
0.001
0.001
0.001
0.001
0.00101
0.001
0.001
0.00102636
0.00105816
0.001
0.00102633
0.001
0.00101
0.00101
0.001
0.001
0.001
0.001
0.001
0.001
0.001
0.001
0.0010078
0.001
0.001
0.001
0.001
0.001
0.001
0.001
0.001
0.00101
0.001
0.001
0.821082
0.808838
0.784976
0.780626
0.696378
0.77234
0.59217
0.53414
0.519791
0.524307
0.523227
0.517523
0.455959
0.465202
0.308585
0.26897
0.227389
0.401859
0.400324
0.351439
0.349681
0.350997
0.001
0.001
0.00108535
0.00108445
0.001
0.001
0.001
0.001
0.00108412
0.001
0.001
0.00100893
0.001
0.001
0.001
0.001
0.001
0.001
0.001
0.001
0.001
0.001
0.00137839
0.00137852
0.001
0.001
0.001
0.001
0.0810759
0.001
0.245949
0.411758
0.448717
0.47321
0.560435
0.666921
0.735799
0.717381
0.758453
0.693618
0.743347
0.785231
0.737722
0.738195
0.0010715
0.001
0.00100999
0.001
0.001
0.00119422
0.001
0.001
0.00119422
0.001
0.001
0.001
0.001
0.001
0.001
0.001
0.001
0.001
0.00101
0.001
0.001
0.001
0.001
0.001
0.00205
0.00100979
0.202465
0.202142
0.121628
0.137175
0.0172658
0.0388436
0.001
0.001
0.001
0.00125586
0.001
0.001
0.001
0.001
0.001
0.001
0.0191802
0.001
0.0192577
0.0210657
0.001
0.001
0.001
0.001
0.001
0.001
0.001
0.001
0.001
0.001
0.00121408
0.001
0.697657
0.691319
0.521491
0.43528
0.415432
0.406794
0.698289
0.598708
0.844806
0.920965
0.815484
0.740402
0.936989
0.916051
0.982743
1.03203
1.05846
1.06417
1.08718
1.06296
1.11611
1.141
1.13991
1.13821
1.15712
1.14307
1.14374
1.1898
1.13221
1.12847
0.254872
0.18256
0.316854
0.399729
0.184691
0.130293
0.177054
0.176751
0.011037
0.0608506
0.001
0.0615147
0.001
0.220586
0.168438
0.224685
0.218811
0.22332
0.118137
0.0206659
0.001
0.001
0.001
0.0010023
0.001
0.001
0.001
0.001
0.001
0.001
0.001
0.00249043
0.0705995
0.0171523
0.121914
0.068372
0.112409
0.16547
0.204176
0.17985
0.214783
0.208034
0.223216
0.218026
0.25995
0.268259
0.258319
0.271734
0.28369
0.281296
0.312956
0.32565
0.312713
0.30945
0.317696
0.307905
0.324843
0.338861
0.383437
0.376291
0.34672
0.376169
0.371921
0.40619
0.436893
0.499582
0.532877
0.532083
0.541278
0.608643
0.694142
0.763006
0.781587
0.90673
0.779394
0.834346
0.983707
1.007
1.00493
1.04449
1.08969
1.14098
1.15128
1.15379
1.18638
1.21206
1.24107
1.23977
1.23929
1.23791
1.23735
1.22036
1.15876
1.21991
1.18648
1.14178
1.14428
1.17247
1.20766
1.21711
1.14243
1.20338
1.16236
0.001
0.001
0.0544017
0.125954
0.0194312
0.0857943
0.216463
0.157527
0.182072
0.0196423
0.00104192
0.001
0.001
0.00372858
0.001
0.001
0.001
0.001
0.001
0.00121846
0.00121204
0.001
0.001
0.001
0.00100999
0.001
0.001
0.001
0.001
0.00145836
0.00145717
0.001
0.001
0.001
0.00166205
0.001
0.001
0.001
0.001
0.001
0.00101
0.001
0.00133177
0.001
0.00101
0.001
0.001
0.001
0.001
0.001
0.001
0.00105206
0.001
0.001
0.001
0.001
0.001
0.001
0.001
0.001
0.001
0.001
0.001
0.001
0.001
0.001
0.00103664
0.001
0.001
0.001
0.001
0.001
0.001
0.001
0.00101
0.001
0.00100962
0.001
0.001
0.001
0.001
0.001
0.001
0.001
0.001
0.731938
0.729211
0.71379
0.719944
0.649039
0.712993
0.525214
0.583151
0.485061
0.47652
0.425159
0.405013
0.352075
0.350732
0.266223
0.163792
0.139766
0.308458
0.350962
0.35273
0.351194
0.350578
0.00108423
0.001
0.00108519
0.001
0.001
0.001
0.001
0.001
0.00100548
0.001
0.001
0.001
0.001
0.001
0.001
0.00100999
0.001
0.001
0.001
0.001
0.001
0.001
0.001
0.00101
0.001
0.001
0.001
0.001
0.143803
0.001
0.284425
0.417538
0.396161
0.500557
0.667299
0.574888
0.653348
0.647792
0.643328
0.6692
0.726678
0.719451
0.726631
0.699098
0.001
0.001
0.001
0.001
0.001
0.001
0.001
0.001
0.001
0.001
0.001
0.001
0.001
0.001
0.001
0.001
0.001
0.001
0.001
0.00100999
0.001
0.001
0.00192156
0.001
0.00101
0.001
0.001
0.001
0.001
0.001
0.001
0.0769201
0.0768727
0.040804
0.0207302
0.001
0.001
0.001
0.001
0.123166
0.0603081
0.0402831
0.001
0.001
0.001
0.00100989
0.00125908
0.00125907
0.001
0.001
0.001
0.001
0.001
0.001
0.001
0.001
0.001
0.001
0.001
0.00100971
0.001
0.001
0.001
0.001
0.001
0.001
1.26506
1.27131
1.3003
1.28123
1.31897
1.30499
1.33079
1.32326
1.38023
1.36815
1.33127
1.38161
1.34708
1.40286
1.2303
1.18288
1.19958
1.25142
1.23418
1.20243
1.20345
1.2583
1.26561
1.23802
1.21975
1.27283
1.25611
1.26585
1.28842
1.14126
1.14326
1.14243
1.14022
1.15939
1.17862
0.744537
0.678213
0.579682
0.481573
0.392831
0.468252
0.677854
0.653316
0.892686
0.914744
0.80119
0.882891
0.921857
0.973888
1.02138
1.06208
1.06211
1.06
1.05963
1.08672
1.10285
1.12561
1.11507
1.11428
1.11807
1.13008
1.10643
1.10369
0.302935
0.237729
0.177003
0.165581
0.22055
0.391115
0.373861
0.101033
0.165657
0.0320667
0.001
1.24639
1.27009
1.28448
1.2918
1.29867
1.30969
1.312
1.34057
1.32359
1.34193
1.34423
1.38963
1.41492
1.43619
1.43651
1.4434
1.45212
1.47704
0.001
0.001
0.00145749
0.146107
0.0371136
0.203123
0.108801
0.0276523
0.00132184
0.001
0.00132189
0.00132184
0.001
0.001
0.001
0.001
0.001
0.001
0.001
0.001
0.001
0.0164709
0.0176849
0.0174614
0.071721
0.0307955
0.15415
0.104929
0.189223
0.157151
0.187933
0.221775
0.24375
0.261994
0.280172
0.276946
0.293414
0.288424
0.339276
0.333152
0.320977
0.317517
0.374756
0.342308
0.417001
0.378741
0.358252
0.402039
0.447501
0.437779
0.460949
0.498859
0.502328
0.442726
0.554561
0.5859
0.553178
0.539807
0.625778
0.703376
0.783443
0.849336
0.79711
0.814431
0.941143
1.00328
1.04047
1.02574
1.08655
1.11879
1.15862
1.1769
1.1747
1.18934
1.2484
1.23121
1.23891
1.24795
1.23626
1.23558
1.23415
1.235
1.23492
1.23676
1.23906
0.001
0.001
0.00268188
0.001
0.001
0.001
0.001
0.0332343
0.001
0.001
0.001
0.001
0.001
0.001
0.00145744
0.001
0.001
0.001
0.001
0.00121285
0.001
0.001
0.001
0.001
0.001
0.001
0.00100999
0.001
0.00112108
0.00112106
0.00145666
0.001
0.00101207
0.001
0.001
0.001
0.001
0.001
0.001
0.001
0.00100984
0.001
0.00112099
0.001
0.001
0.001
0.00101
0.001
0.001
0.001
0.001
0.00241247
0.001
0.001
0.001
0.001
0.001
0.001
0.00100993
0.001
0.001
0.001
0.001
0.001
0.00102769
0.001
0.001
0.001
0.001
0.00102856
0.001
0.001
0.001
0.001
0.001
0.001
0.001
0.001
0.00101
0.001
0.001
0.001
0.001
0.001
0.001
0.001
0.001
0.001
0.001
0.00206645
0.001
0.001
0.001
0.001
0.00206641
1.43286
1.39602
1.37444
1.46927
1.50227
1.49561
0.711466
0.713819
0.705185
0.691981
0.624321
0.686907
0.511639
0.444099
0.366219
0.382115
0.350435
0.352549
0.352072
0.352547
0.228621
0.145134
0.236014
0.316507
0.31448
0.001
0.001
0.001
0.001
0.001
0.001
0.001
0.001
0.001
0.001
0.00100943
0.001
0.001
0.001
0.001
0.001
0.00100998
0.001
0.001
0.001
0.001
0.001
0.001
0.001
0.001
0.001
0.001
0.122964
0.260157
0.371901
0.375072
0.68833
0.614007
0.619584
0.411521
0.498555
0.591301
0.638024
0.638804
0.643169
0.660587
0.685287
0.680582
0.001
0.00115514
0.001
0.001
0.001
0.001
0.00100904
0.001
0.001
0.001
0.001
0.001
0.001
0.001
0.001
0.001
0.001
0.00100504
0.001
0.001
0.001
0.001
0.001
0.001
0.001
0.001
0.001
0.001
0.001
0.001
0.00101
0.001
0.001
0.001
0.001
0.001
0.001
0.0770651
0.11214
0.100245
0.0404183
0.041688
0.0133893
0.0358008
0.001
0.001
0.001
0.001
0.046642
0.0354782
0.001
0.001
0.001
0.001
0.001
0.001
0.001
0.001
0.001
0.001
0.001
0.001
0.001
0.001
0.001
0.001
0.001
0.001
0.001
0.001
0.001
0.001
0.001
0.001
1.26289
1.2778
1.30165
1.32214
1.33697
1.33291
1.37973
1.34388
1.19096
1.19237
1.17663
1.19491
1.23007
1.1931
1.24109
1.21316
1.12872
1.11516
1.1167
1.14594
1.17221
1.15035
0.748816
0.661448
0.559934
0.646017
0.496055
0.404693
0.658893
0.661183
0.899804
0.900108
0.91769
0.812979
0.896425
1.00643
0.950364
0.892929
0.93351
1.03786
1.05159
1.04207
1.05065
1.05532
1.07993
1.10322
1.09776
1.10709
1.10797
1.10325
1.1038
1.10077
1.10665
0.148788
0.154181
0.296725
0.369928
0.143369
0.234649
0.386897
0.395925
0.13629
0.0846379
0.001
0.0612302
1.27864
1.23602
1.25915
1.30339
1.30395
1.30679
1.31349
1.33824
1.35809
1.36891
1.36914
1.37587
1.39828
1.44012
1.42178
1.43263
1.45271
1.49621
1.47579
1.3112
1.32418
1.33825
1.50048
1.50792
1.50358
0.00145732
0.00145729
0.00145735
0.001
0.001
0.001
0.001
0.001
0.001
0.001
0.001
0.001
0.001
0.00101
0.001
0.00100987
0.001
0.001
0.001
0.001
0.00186849
0.001
0.0207177
0.001
0.0936003
0.121472
0.0528385
0.0921435
0.161658
0.11984
0.245706
0.18761
0.25342
0.276832
0.280415
0.27176
0.321091
0.355318
0.399768
0.399118
0.405446
0.388822
0.418551
0.398655
0.447407
0.452013
0.478271
0.47537
0.452412
0.46303
0.575044
0.621298
0.519224
0.584328
0.628521
0.589613
0.691227
0.73924
0.837173
0.875602
0.851683
0.94191
0.999495
1.09327
1.08346
1.1396
1.11254
1.21054
1.21414
1.20842
1.2403
1.26887
1.26587
1.31826
1.28514
1.30965
1.27334
1.27233
1.30676
1.23878
1.27643
1.24242
0.001
0.001
0.001
0.001
0.001
0.001
0.001
0.001
0.00101
0.001
0.001
0.001
0.001
0.001
0.001
0.001
0.001
0.001
0.001
0.001
0.001
0.001
0.001
0.001
0.001
0.00103083
0.001
0.001
0.00112105
0.00112106
0.001
0.001
0.001
0.001
0.00101
0.001
0.0010004
0.001
0.001
0.001
0.001
0.001
0.00217425
0.001
0.001
0.001
0.001
0.001
0.00101
0.001
0.001
0.00220298
0.001
0.001
0.001
0.00100982
0.00128517
0.001
0.00100983
0.001
0.001
0.001
0.00101
0.001
0.00102774
0.00102803
0.001
0.001
0.00102849
0.00102823
0.001
0.001
0.001
0.001
0.00157005
0.001
0.00156991
0.001
0.001
0.001
0.001
0.00100984
0.00101
0.00100994
0.001
0.001
0.001
0.001
0.001
0.001
0.001
0.001
0.001
0.001
0.00128511
0.001
0.00100958
0.00100997
0.001
0.001
0.001
0.001
0.00101
1.39515
1.40389
1.39755
1.40687
1.43194
1.53798
1.51939
1.52435
1.54317
1.48327
0.62458
0.606163
0.539475
0.550043
0.504806
0.532386
0.444476
0.399831
0.386442
0.349324
0.328869
0.326463
0.241016
0.243344
0.114636
0.157824
0.158029
0.001
0.001
0.001
0.00101
0.001
0.001
0.001
0.00102964
0.0905808
0.001
0.001
0.001
0.001
0.001
0.001
0.001
0.00101
0.001
0.001
0.00102167
0.001
0.001
0.001
0.001
0.001
0.483931
0.492144
0.527554
0.237335
0.370892
0.368441
0.407395
0.533697
0.597001
0.560749
0.469021
0.552254
0.57632
0.580426
0.505667
0.535645
0.001
0.001
0.00115518
0.00101
0.001
0.001
0.00101
0.00117618
0.001
0.001
0.001
0.001
0.001
0.001
0.001
0.0010251
0.001
0.00102523
0.00102513
0.00101
0.001
0.001
0.001
0.001
0.001
0.00100577
0.001
0.001
0.001
0.001
0.00107641
0.001
0.00100563
0.001
0.001
0.001
0.001
0.001
0.001
0.001
0.001
0.001
0.001
0.001
0.00102516
0.0953202
0.105669
0.116505
0.001
0.0034179
0.001
0.001
0.001
0.001
0.00147909
0.001
0.001
0.0014791
0.001
0.001
0.001
0.001
0.001
0.001
0.001
0.00103195
0.001
0.001
0.001
0.001
0.001
0.001
0.001
0.00118887
0.001
0.0010319
0.001
0.001
0.001
0.001
0.00101
0.001
0.001
0.00118885
1.27536
1.22577
1.30007
1.26159
1.27219
1.30249
1.30161
1.35585
1.33286
1.38366
1.36106
1.33161
1.38125
1.36694
1.16176
1.15779
1.15034
1.16199
1.1764
1.19028
1.18786
1.20125
1.10276
1.10447
1.12716
1.11557
1.14377
1.15109
0.747318
0.66433
0.583254
0.662218
0.452762
0.544019
0.65645
0.669114
0.889246
0.891386
0.897848
0.819991
0.979701
1.02663
0.933737
0.889763
1.03367
1.03011
1.04855
1.02977
1.06914
1.09681
1.09944
1.10313
1.09892
1.10045
1.10144
1.10277
1.1002
1.10621
0.145281
0.142976
0.310339
0.386095
0.294034
0.201704
0.435266
0.385145
0.1205
0.140639
0.113831
0.026899
1.27748
1.3149
1.2968
1.32269
1.34516
1.33453
1.36764
1.38383
1.35875
1.37059
1.36151
1.36989
1.37621
1.39627
1.41979
1.43547
1.43499
1.48571
1.46061
1.51162
1.519
1.39603
1.40862
1.52134
1.5307
0.001
0.001
0.001
0.001
0.001
0.001
0.001
0.001
0.00101
0.001
0.001
0.001
0.001
0.001
0.001
0.001
0.00186844
0.001
0.001
0.001
0.001
0.001
0.0143622
0.001
0.107746
0.11455
0.0723627
0.0260707
0.145465
0.184438
0.253219
0.235023
0.257595
0.243849
0.370079
0.305967
0.419705
0.407375
0.43719
0.43963
0.421152
0.470539
0.514557
0.487659
0.480388
0.498836
0.548687
0.537393
0.517665
0.564941
0.643703
0.642324
0.637177
0.656422
0.789889
0.702369
0.871671
0.898473
0.898029
0.964981
1.04009
1.11744
1.12334
1.13634
1.18413
1.23146
1.26983
1.26892
1.30719
1.27984
1.32952
1.34754
1.34374
1.3473
1.34462
1.34803
1.31523
1.34793
1.31453
0.001
0.001
0.00703322
0.00102506
0.001
0.001
0.001
0.001
0.001
0.001
0.00101
0.00132447
0.00132599
0.00132361
0.00132556
0.00132648
0.00132609
0.001
0.00132695
0.00708969
0.001
0.001
0.001
0.00103093
0.001
0.0010308
0.00103083
0.001
0.001
0.00100217
0.001
0.001
0.001
0.001
0.00101
0.00103635
0.001
0.001
0.00100986
0.001
0.001
0.001
0.00186743
0.001
0.001
0.001
0.001
0.001
0.001
0.001
0.001
0.001
0.00100941
0.001
0.001
0.001
0.00100992
0.001
0.001
0.001
0.00101
0.001
0.001
0.001
0.001
0.001
0.001
0.0010008
0.001
0.001
0.001
0.00100949
0.001
0.001
0.001
0.001
0.001
0.001
0.001
0.001
0.001
0.001
0.00101
0.001
0.001
0.001
0.001
0.001
0.001
0.001
0.001
0.001
0.001
0.001
0.001
0.001
0.001
0.001
0.001
0.001
0.001
0.001
0.001
0.001
0.001
0.001
0.001
0.001
0.001
0.001
0.001
0.001
0.001064
0.001
0.001
0.001
0.001
1.57874
1.56094
1.57846
1.57214
1.58352
1.58607
1.41099
1.4347
1.47943
1.45459
1.54372
1.56978
1.54505
1.40484
1.38724
0.483165
0.483483
0.484902
0.470723
0.487167
0.411707
0.461679
0.246868
0.30678
0.170168
0.167121
0.113137
0.114653
0.116509
0.001
0.001
0.001
0.001
0.00106576
0.113765
0.001
0.001
0.001
0.001
0.001
0.001
0.001
0.001
0.001
0.001
0.001
0.00102248
0.00102261
0.001
0.00102255
0.001
0.001
0.001
0.482005
0.486083
0.490938
0.487956
0.484787
0.199612
0.3157
0.257369
0.377551
0.436072
0.462373
0.389253
0.478318
0.429164
0.427147
0.415746
0.001
0.00110441
0.001
0.001
0.001
0.001
0.001
0.00101462
0.001
0.001
0.00101259
0.001
0.001
0.001
0.00102031
0.001
0.001
0.001
0.001
0.001
0.001
0.001
0.001
0.001
0.001
0.00100955
0.001
0.001
0.001
0.001
0.001
0.001
0.001
0.001
0.001
0.001
0.00107637
0.001
0.00107616
0.001
0.001
0.001
0.001
0.001
0.00100037
0.001
0.001
0.001
0.001
0.001
0.00101
0.001
0.001
0.001
0.001
0.001
0.001
0.0919957
0.0230319
0.00833473
0.001
0.001
0.001
0.001
0.001
0.001
0.001
0.00100956
0.001
0.001
0.001
0.001
0.001
0.001
0.001
0.001
0.001
0.001
0.001
0.001
0.001
0.001
0.001
0.001
0.001
0.001
0.001
0.001
0.001
0.001
0.00182829
0.0018327
0.001
0.001
0.001
0.001
0.00100972
0.001
1.23051
1.20967
1.25082
1.25256
1.23751
1.27873
1.29594
1.28448
1.30285
1.2866
1.38501
1.34452
1.31301
1.1507
1.15161
1.17628
1.16711
1.18844
1.18806
1.21868
1.19255
1.1072
1.11157
1.13442
1.12191
1.13657
1.14338
0.783963
0.703337
0.6229
0.665507
0.604167
0.514246
0.701781
0.659927
0.895555
0.896758
0.856756
0.905286
0.985454
1.02978
0.901331
0.942667
1.03418
1.03157
1.05714
1.03139
1.07443
1.09895
1.09976
1.10724
1.08879
1.10679
1.0977
1.09856
1.09446
1.09762
0.14028
0.19939
0.390583
0.365668
0.294168
0.367361
0.38474
0.461879
0.132519
0.130806
0.129083
0.0356342
0.001
0.001
0.00684772
1.34956
1.35124
1.37537
1.37335
1.39719
1.40867
1.40854
1.41252
1.44789
1.42771
1.43654
1.40191
1.4344
1.44332
1.46622
1.48295
1.49294
1.49228
1.54456
1.54932
1.57059
1.5467
1.46682
1.47099
1.59237
1.5903
0.001
0.001
0.00101
0.001
0.001
0.00124448
0.00124425
0.001
0.001
0.001
0.001
0.00205582
0.0010544
0.001
0.001
0.001
0.00100232
0.001
0.001
0.001
0.001
0.001
0.001
0.001
0.001
0.0615259
0.118799
0.00623211
0.232812
0.170399
0.240937
0.240092
0.339202
0.279007
0.390273
0.429494
0.426347
0.433085
0.554318
0.51472
0.487995
0.538217
0.566072
0.556894
0.553564
0.542521
0.5569
0.554779
0.637872
0.681513
0.7232
0.676602
0.722437
0.745953
0.885173
0.818597
0.911622
0.896543
0.980631
1.05455
1.14152
1.137
1.17306
1.21074
1.28725
1.27553
1.29788
1.30165
1.32654
1.34049
1.35388
1.3515
1.35959
1.35939
1.35046
1.36053
1.34742
1.3495
0.001
0.001
0.00101
0.001
0.001
0.001
0.001
0.001
0.001
0.00132628
0.001
0.001
0.001
0.0013281
0.00132751
0.00132747
0.0013268
0.00132686
0.00132719
0.001
0.001
0.00100968
0.001
0.001
0.001
0.00100179
0.001
0.001
0.001
0.001
0.001
0.00101
0.001
0.001
0.00100863
0.00103634
0.001
0.001
0.001
0.00376364
0.001
0.001
0.001
0.00100967
0.001
0.001
0.001
0.00100983
0.001
0.001
0.00100647
0.001
0.00100976
0.001
0.001
0.001
0.001
0.001
0.00352613
0.001
0.001
0.001
0.001
0.001
0.00123844
0.00123834
0.00123836
0.001
0.001
0.001
0.001
0.001
0.001
0.001
0.001
0.001
0.001
0.001
0.001
0.001
0.001
0.001
0.001
0.001
0.001
0.001
0.001
0.001
0.001
0.001
0.001
0.001
0.001
0.001
0.001
0.001
0.001
0.001
0.001
0.001
0.001
0.001
0.001
0.001
0.001
0.001
0.00101
0.001
0.0013849
0.001
0.00112925
0.001
0.00112583
0.001
0.001
0.001
1.59829
1.61204
1.62394
1.58137
1.59192
1.57198
1.58175
1.45927
1.47429
1.49816
1.51822
1.5128
1.55718
1.58327
1.42654
1.48338
1.39111
1.39771
1.40868
0.479002
0.479161
0.382965
0.344756
0.442439
0.3709
0.382077
0.246386
0.282637
0.143219
0.113874
0.115751
0.111439
0.091863
0.001
0.001
0.029331
0.142497
0.001
0.001
0.001
0.001
0.001
0.001
0.001
0.001
0.001
0.001
0.001
0.001
0.001
0.00101
0.001
0.001
0.00101
0.001
0.001
0.001
0.443427
0.486914
0.459096
0.439724
0.206542
0.205905
0.225316
0.298835
0.41134
0.414145
0.367643
0.412335
0.417057
0.00100999
0.001
0.001
0.001
0.001
0.001
0.0012035
0.00120494
0.001
0.001
0.00101
0.00100946
0.001
0.001
0.00100846
0.001
0.0010099
0.0038869
0.001
0.001
0.001
0.001
0.001
0.001
0.001
0.00107648
0.001
0.001
0.00108604
0.001
0.001
0.001
0.001
0.001
0.001
0.001
0.001
0.001
0.001
0.001
0.001
0.001
0.001
0.001
0.001
0.001
0.001
0.001
0.001
0.001
0.001
0.00201664
0.001
0.001
0.001
0.001
0.001
0.001
0.001
0.001
0.001
0.001
0.001
0.001
0.001
0.001
0.001
0.001
0.001
0.001
0.001
0.001
0.001
0.001
0.001
0.001
0.001
0.001
0.001
0.001
0.001
0.001
0.001
0.001
0.001
0.001
0.001
0.001
0.001
0.001
0.001
0.001
0.001
0.001
0.001
0.001
0.001
0.00124842
0.00101
0.001
0.001
0.001
0.001
0.00100999
0.001
0.001
1.25113
1.24542
1.19822
1.27343
1.22462
1.27259
1.29447
1.28453
1.29138
1.3477
1.29354
1.37579
1.34433
1.40718
1.13117
1.15404
1.14998
1.17029
1.15177
1.17861
1.20247
1.16515
1.09862
1.10549
1.11133
1.12361
1.12612
1.12344
0.833931
0.760396
0.641656
0.667625
0.568852
0.654458
0.666412
0.724737
0.907997
0.904033
0.90184
0.883595
0.998034
1.03406
0.96186
0.915358
1.04006
1.03467
1.04495
1.06754
1.09436
1.06927
1.09176
1.0983
1.11278
1.09701
1.0961
1.10325
1.09817
1.09599
0.216628
0.120568
0.397098
0.401305
0.31091
0.397424
0.3938
0.502796
0.123812
0.122983
0.104603
0.0821963
0.0221651
0.124979
1.36325
1.37783
1.40183
1.43789
1.43445
1.45321
1.46844
1.47616
1.48352
1.46737
1.4774
1.49423
1.51407
1.53034
1.52691
1.53589
1.55645
1.58227
1.59641
1.58979
1.60285
1.48047
1.46718
1.62618
1.64486
0.001
0.001
0.001
0.001
0.001
0.001
0.001
0.001
0.001
0.00205574
0.001
0.001
0.001
0.001
0.001
0.00105324
0.00105324
0.001
0.001
0.001
0.001
0.001
0.001
0.001
0.001
0.0530358
0.0615699
0.146628
0.205878
0.186903
0.260605
0.199706
0.393216
0.30495
0.42201
0.425842
0.443687
0.502105
0.63269
0.635921
0.580679
0.606904
0.637457
0.581016
0.692244
0.617436
0.596239
0.630205
0.764681
0.77857
0.840712
0.89533
0.77765
0.87129
1.01337
0.961011
1.03191
1.00228
1.19595
1.16085
1.22821
1.24196
1.31349
1.32585
1.38397
1.35191
1.39533
1.38034
1.4003
1.43026
1.40689
1.43487
1.44349
1.40456
1.3923
1.43371
1.43279
1.40516
0.001
0.001
0.00101
0.001
0.001
0.001
0.001
0.001
0.001
0.0010754
0.001
0.001
0.001
0.001
0.001
0.001
0.00100968
0.00133762
0.001
0.001
0.00131772
0.00101507
0.001
0.001
0.00123611
0.001
0.001
0.001
0.001
0.001
0.00150821
0.00100984
0.001
0.001
0.001
0.001
0.001
0.00100967
0.001
0.001
0.001
0.001
0.001
0.001
0.001
0.001
0.00101382
0.00101386
0.00101399
0.001
0.001
0.001
0.001
0.00119229
0.001
0.001
0.00119221
0.001
0.001
0.001
0.00100996
0.00138483
0.001
0.0011285
0.001
0.001
0.001
0.001
0.00101
0.001
0.001
0.001
0.001
0.001
0.001
0.001
0.001
0.001
0.001
0.001
0.001
0.001
0.001
0.001
0.001
0.001
0.001
0.001
0.001
0.001
0.001
0.001
0.001
0.001
0.001
0.001
0.001
0.001
0.001
0.001
0.001
0.001
0.001
0.001
0.001
0.001
0.001
0.001
0.001
0.001
0.001
0.001
0.001
0.001
0.001
0.001
0.001
0.00112925
0.001
0.001
0.001
0.00112846
0.001
0.001
1.65055
1.63186
1.64852
1.6217
1.60126
1.6417
1.62343
1.60401
1.62407
1.47444
1.49636
1.51045
1.50726
1.57473
1.61522
1.65186
1.54085
1.41468
1.42969
1.41459
1.42694
1.40543
1.45544
1.34245
0.249909
0.339869
0.244911
0.284164
0.287828
0.19554
0.190736
0.194829
0.19232
0.198851
0.169456
0.0859541
0.0624981
0.001
0.001
0.0944892
0.207009
0.001
0.001
0.00102557
0.001
0.001
0.00100999
0.001
0.001
0.00100155
0.001
0.00103833
0.001
0.001
0.001
0.001
0.00104305
0.001
0.00100853
0.001
0.00100507
0.352466
0.276672
0.246676
0.343804
0.200502
0.230989
0.365355
0.292319
0.336093
0.416076
0.411715
0.0011031
0.001
0.001
0.00115091
0.001
0.001
0.00120465
0.00120405
0.001
0.001
0.00100995
0.001
0.001
0.001
0.001
0.001
0.0039092
0.00390345
0.001
0.001
0.00388635
0.001
0.00201667
0.001
0.001
0.001
0.001
0.00351764
0.001
0.00108615
0.00349562
0.001
0.001
0.001
0.001
0.001
0.001
0.001
0.001
0.001
0.001
0.001
0.001
0.00101
0.001
0.001
0.001
0.001
0.001
0.00118261
0.001
0.001
0.001
0.00101
0.001
0.001
0.001
0.001
0.001
0.001
0.001
0.001
0.001
0.001
0.001
0.001
0.001
0.001
0.001
0.001
0.001
0.001
0.001
0.001
0.001
0.001
0.00100996
0.00101024
0.001
0.001
0.001
0.001
0.001
0.001
0.001
0.001
0.00160843
0.001
0.001
0.001
0.001
0.001
0.001
0.00160842
0.001
0.001
0.001
0.001
0.001
0.001
0.001
0.001
0.001
0.001
0.00577069
0.001
0.001
0.00101
0.00101
0.001
0.00101
0.001
0.001
0.001
0.001
0.001
0.001
0.001
1.18436
1.24003
1.19454
1.21547
1.21585
1.24417
1.21944
1.25389
1.27839
1.30813
1.31031
1.30741
1.34098
1.3156
1.41168
1.1228
1.1275
1.13276
1.13826
1.13505
1.13508
1.14546
1.16513
1.15283
1.10314
1.10351
1.11406
1.12113
1.12117
0.808476
0.873055
0.683491
0.679686
0.600883
0.69928
0.757069
0.687953
0.914273
0.926235
0.925165
0.920118
1.03731
1.01079
0.974917
1.00743
1.05075
1.04614
1.06849
1.09121
1.11834
1.11066
1.11374
1.09112
1.11922
1.11691
1.1025
1.11166
1.11589
0.21441
0.115471
0.405652
0.406123
0.309698