/*--------------------------------*- C++ -*----------------------------------*\
  =========                 |
  \\      /  F ield         | OpenFOAM: The Open Source CFD Toolbox
   \\    /   O peration     | Website:  https://openfoam.org
    \\  /    A nd           | Version:  8
     \\/     M anipulation  |
\*---------------------------------------------------------------------------*/
FoamFile
{
    version     2.0;
    format      ascii;
    class       volScalarField;
    location    "15120";
    object      H;
}
// * * * * * * * * * * * * * * * * * * * * * * * * * * * * * * * * * * * * * //

dimensions      [0 1 0 0 0 0 0];

internalField   nonuniform List<scalar> 
526318
(
0.93513
0.90697
0.98632
0.883048
0.945113
0.907634
0.914831
0.839044
0.906733
0.784647
0.767841
0.885757
0.829688
0.866279
0.829148
0.859053
0.825598
1.01954
0.936175
0.978375
0.972178
0.935882
0.694269
0.928185
0.814573
0.681694
0.948511
0.956072
0.954358
0.974447
0.994376
1.04162
1.03387
0.916577
0.908916
0.876584
0.885053
0.992197
0.904818
0.825299
0.918902
0.872245
0.550968
0.595896
0.498838
0.556915
0.525605
0.643573
0.827597
0.728519
0.813037
0.811546
0.774284
0.719345
0.224033
0.468346
0.472065
0.26
0.988804
0.99984
1.00603
0.964175
0.913543
1.02963
1.04797
1.00406
0.991903
0.975978
0.878163
0.891825
0.9902
0.774135
0.837683
0.718167
0.676694
0.670846
0.764647
0.75557
0.673769
0.705264
0.798529
0.793742
0.750182
0.699947
0.731179
0.791672
0.793734
0.780148
0.72957
0.803212
0.703037
0.651088
0.644783
0.579639
0.571286
0.5784
0.574664
0.573592
0.572789
0.575119
0.00523218
3.54814e-07
0.0373072
0.0746617
0.137168
8.12307e-05
0.487712
0.291617
0.608105
0.569388
0.6146
0.732746
0.956097
0.838239
0.957366
0.96859
1.04041
0.996855
1.0559
0.57006
0.569677
0.571943
0.574805
0.532783
0.569529
0.480208
0.524972
0.434498
0.481111
0.430928
0.433585
0.422508
0.39592
0.389537
0.414965
0.358108
0.412296
0.362178
0.380492
0.326999
0.332207
0.352866
0.382963
0.369069
0.325658
0.325353
0.34216
0.329137
0.325741
0.332436
0.344284
0.334168
0.337202
0.336287
0.334958
0.301984
0.336084
0.334176
0.303514
0.259559
0.334538
0.28416
0.342814
0.834358
0.931174
0.872492
0.855459
0.657839
0.732193
0.664058
0.668626
0.665515
0.668532
0.681874
0.668172
0.598701
0.570363
0.535447
0.474821
0.533665
0.57727
0.576857
0.57777
0.465005
0.518234
0.404891
0.41226
0.420888
0.412787
0.414949
0.417634
0.407142
0.40971
0.406408
0.394395
0.375334
0.398988
0.390442
0.362967
0.343039
0.370856
0.353301
0.346238
0.367631
0.355162
0.360621
0.321956
0.340119
0.371168
0.37104
0.809305
0.820422
0.857213
0.888339
0.828506
0.818627
0.823522
0.701726
0.730791
0.484905
0.461157
0.463439
0.586177
0.730545
0.59237
0.624996
0.644221
0.582201
0.555766
0.0622332
1.53195e-05
0.210676
0.405789
0.00027704
9.64392e-09
0.000990886
0.000255125
0.000396609
0.000963311
1.04023
1.01035
1.06648
1.05454
1.03767
1.0114
0.914412
1.00496
0.853054
0.802166
0.800639
0.801626
0.799506
0.808552
0.780924
0.782701
0.705235
0.770899
0.582241
0.640839
0.568438
0.583601
0.00100536
4.55059e-11
0.000130524
0.00100202
0.0491073
0.000920442
0.0479129
0.20064
0.581498
0.393878
0.630998
0.62632
0.734675
0.849588
0.963039
0.977322
1.01173
0.971571
1.04561
1.07982
0.551798
0.550021
0.508229
0.482835
0.378508
0.413079
0.341925
0.350782
0.342245
0.335999
0.32629
0.331416
0.254984
0.280548
0.317568
0.352862
0.407167
0.377766
0.334054
0.336544
0.270385
0.257738
0.310663
0.365783
0.288283
0.326057
0.32518
0.296073
0.292157
0.260131
0.257231
0.220823
0.219023
0.221361
0.209715
0.33535
0.371097
0.336154
0.378522
0.72245
0.70743
0.595429
0.689409
0.601226
0.657739
0.664099
0.651707
0.66524
0.66322
0.577511
0.489375
0.418294
0.399975
0.47839
0.415785
0.406197
0.517458
0.40538
0.458533
0.39584
0.395414
0.404381
0.395734
0.410978
0.404114
0.403711
0.407854
0.405928
0.405157
0.413075
0.408538
0.419806
0.416923
0.418542
0.39932
0.413249
0.39711
0.371425
0.370562
0.397124
0.426012
0.418453
0.396375
0.378552
0.404886
0.446043
0.445233
0.456829
0.415722
0.447316
0.46513
0.505162
0.457909
0.462439
0.486919
0.520549
0.647291
0.734339
0.644881
0.650965
0.727991
0.805177
0.702796
0.578515
0.709195
0.596064
0.619225
0.353027
0.297752
0.327674
0.312962
0.437491
0.559393
0.482006
0.557661
0.554712
0.57177
0.559337
1.93117e-10
0.000662871
0.130405
2.92458e-08
0.214169
0.096634
0.000599399
0.00100998
0.000476803
0.00100962
0.000664765
0.00100889
0.000730728
0.000955715
0.000582482
0.000952703
1.06065
1.04424
1.0847
1.07218
1.0508
1.02835
0.948253
0.872683
0.793625
0.807197
0.787289
0.786507
0.767841
0.768716
0.749003
0.749203
0.693997
0.738831
0.667098
0.603835
0.550871
0.510658
0.000938895
0.00107382
0.00107382
0.000663073
0.00062215
0.000731205
0.000587706
0.00107382
0.00107387
0.00107383
0.00100999
0.00100984
0.000550093
0.00100942
0.000924102
0.000172183
0.000288255
0.000487392
0.000977135
0.00096135
0.0176885
0.000975226
0.11434
0.0954594
0.285219
0.129606
0.493055
0.652387
0.667745
0.757057
0.985054
0.872931
0.984163
0.992617
1.01081
1.0291
1.07205
1.08414
0.468922
0.470553
0.422177
0.447935
0.386014
0.350662
0.341827
0.341976
0.334531
0.342
0.294756
0.286889
0.231813
0.248816
0.306584
0.276842
0.248378
0.299116
0.292456
0.314718
0.217278
0.21259
0.233128
0.244034
0.245694
0.200726
0.20609
0.19915
0.209351
0.193383
0.184289
0.488759
0.460702
0.464124
0.460104
0.480837
0.590842
0.548206
0.532476
0.415046
0.455184
0.439801
0.443267
0.345343
0.283347
0.453415
0.572352
0.464426
0.476259
0.444987
0.525149
0.506609
0.585316
0.613014
0.541386
0.515442
0.554481
0.429117
0.400419
0.401823
0.403186
0.317637
0.370968
0.296369
0.246976
0.228868
0.347875
0.345975
0.395668
0.396829
0.395078
0.399394
0.395331
0.402026
0.397067
0.408475
0.400938
0.418887
0.41331
0.420021
0.420922
0.445722
0.433064
0.457337
0.462133
0.408095
0.393125
0.457469
0.439864
0.429468
0.445586
0.430657
0.415611
0.465558
0.444864
0.545827
0.553048
0.504869
0.544462
0.556884
0.527955
0.61859
0.587861
0.659705
0.67806
0.702585
0.607876
0.61421
0.621076
0.592071
0.561066
0.543971
0.628308
0.464087
0.450762
0.503271
0.513148
0.191865
0.246994
0.325164
0.450561
0.4827
0.518217
0.425005
0.386345
0.345216
0.294817
0.000965631
0.000248677
0.0155944
3.09562e-05
0.134665
0.197313
0.000993891
0.000234006
0.00100979
0.000545241
0.00024476
0.000470015
0.000926911
0.000208943
0.000889372
0.000986846
0.000766556
0.000551352
0.000138864
0.000388285
0.00097475
0.00101
0.000137588
0.000999779
0.000898182
0.000354496
0.00119299
0.000820499
0.000933766
0.000982737
0.00119281
0.00119281
0.000915812
0.000999494
0.0009727
0.000201819
9.59135e-05
0.000989075
0.000892979
0.0009482
0.00100959
0.000881287
0.00100965
0.000996543
2.65749e-05
0.000931251
1.06321
1.0522
1.08113
1.07826
1.05475
0.982649
0.79798
0.896946
0.772777
0.771396
0.748374
0.750695
0.737053
0.742244
0.732934
0.738614
0.679221
0.64775
0.550681
0.593517
0.450595
0.489098
0.000902499
0.000636742
0.000948563
0.000967574
0.000969466
0.000982262
0.000979493
0.000870723
0.00101
0.000878879
0.000677989
0.000965569
0.000971308
0.000759356
0.000380116
0.000991326
0.000690401
0.00100737
0.000803925
0.000839513
0.000369052
0.000975289
0.000889611
0.000439439
0.000917861
0.00068906
0.00101
0.000641909
7.12817e-06
3.8147e-05
0.157409
0.000570969
0.166467
0.170566
0.468711
0.302212
0.681839
0.63279
0.692737
0.810758
0.912709
0.99061
0.998299
0.994413
1.0444
1.06204
1.05037
1.0486
0.00115254
0.000878002
0.000886173
0.000241735
0.000664904
0.000987943
0.00081396
0.000938025
0.000890554
0.000725685
0.000975785
0.00092383
0.000794854
2.99799e-07
0.000880516
0.00101
0.000170373
0.44833
0.450143
0.447945
0.412154
0.333759
0.369441
0.293616
0.287053
0.247666
0.246068
0.20184
0.198275
0.230122
0.224391
0.185691
0.219217
0.215043
0.268349
0.249264
0.247961
0.170843
0.136094
0.143559
0.185171
0.190638
0.192046
0.170931
0.171508
0.12921
0.122047
0.0833823
0.088846
0.686986
0.656148
0.694658
0.706773
0.658205
0.612585
0.780115
0.802893
0.866345
0.87648
0.421329
0.458698
0.5113
0.596393
0.42054
0.367034
0.400786
0.402732
0.241069
0.293375
0.337667
0.230565
0.448866
0.442177
0.443681
0.446532
0.463982
0.447828
0.458832
0.473168
0.35233
0.343956
0.248482
0.331994
0.323013
0.282679
0.231322
0.254924
0.196728
0.214257
0.194655
0.281325
0.344382
0.274866
0.343248
0.395378
0.395467
0.394625
0.395909
0.400639
0.418905
0.412094
0.429333
0.426896
0.449005
0.439685
0.464196
0.463069
0.464316
0.46197
0.471624
0.466097
0.505349
0.477915
0.444939
0.443401
0.510589
0.478239
0.484407
0.523029
0.568061
0.568895
0.566054
0.566497
0.597159
0.652194
0.712525
0.733621
0.741584
0.720899
0.862877
0.801218
0.927114
0.966579
0.957215
0.995482
1.0523
0.918865
1.00313
1.02386
1.1025
1.1502
1.17622
1.19734
1.22785
1.17164
1.2271
1.18514
1.2643
1.26528
1.31401
1.28242
1.34251
1.37519
1.3628
1.31193
1.37627
1.40355
1.36754
1.36512
1.42789
1.40495
1.43731
1.37883
1.37785
1.44716
1.41823
1.36208
1.36549
1.39442
1.42389
0.41715
0.389035
0.556951
0.544995
0.521332
0.516108
0.507729
0.289186
0.410504
0.1128
0.145154
0.245993
0.237868
0.0996377
0.187042
0.183983
0.344826
0.254981
0.244557
0.169004
0.151902
0.169062
0.191176
0.000348275
0.00101
0.000926753
3.28059e-05
0.000906548
2.78211e-05
0.00101
0.000966006
0.000995857
0.000552897
1.20318e-05
0.00170207
0.000842141
0.000928041
0.000844807
0.000691483
0.000314883
0.00069126
0.000943677
0.000831092
0.00137534
0.000424805
0.00012748
0.000146108
0.000949
0.000431299
6.93167e-06
1.61879e-05
0.000990101
0.00093513
0.00100829
0.000722318
0.000911134
0.000410555
0.00100928
0.000973656
0.000949507
0.001046
0.00075839
0.00100665
0.000974989
0.000926586
0.00101
0.00057983
0.00103839
0.000972617
0.00103838
0.000936123
0.00100234
0.00090645
0.00101
0.00101
0.000467339
0.000585417
0.000993933
0.000773625
0.000877713
0.00099375
0.000922247
0.000776475
0.0010078
0.000994205
0.000136415
0.000956593
0.000950381
0.000921886
0.000915695
0.000919934
0.000616152
0.00101
0.000623175
0.000968314
1.04502
1.03144
0.99771
1.01501
0.905592
0.997773
0.814017
0.756297
0.746691
0.737521
0.736927
0.741181
0.679639
0.68596
0.531658
0.490048
0.450579
0.617466
0.623851
0.569886
0.572156
0.571226
0.00081225
0.000393043
0.00117859
0.0011693
0.000962471
0.000414864
0.00093308
0.000410365
0.00116613
0.000931014
0.000161511
0.00100893
0.000972717
0.000941946
0.000297472
0.000985833
0.000726155
0.00091818
0.00021426
0.00071546
0.000406175
0.000951565
0.00140584
0.00140596
0.000580258
5.54404e-06
0.0201461
0.168663
0.296287
0.181161
0.469171
0.632631
0.669901
0.693469
0.777295
0.89206
0.954175
0.93528
0.980707
0.913469
0.956906
1.00156
0.962327
0.950742
0.00101959
0.000863714
0.00100993
0.000849207
0.000898865
0.00119318
0.000759561
0.000801389
0.00119317
0.000964874
0.000981161
0.000996251
1.0982e-07
1.14836e-05
0.000994615
0.000373012
7.04116e-26
0.00072123
0.00101
0.000253336
0.000277025
0.000765241
0.00096459
0.000879022
0.00205687
0.00101031
0.421772
0.421826
0.340438
0.358986
0.239461
0.261594
0.199427
0.197057
0.195933
0.198422
0.170149
0.173174
0.142361
0.149341
0.122205
0.162185
0.238396
0.200906
0.236897
0.235955
0.0578922
0.0782417
0.120628
0.098901
0.113133
0.116534
0.0618078
0.0557278
0.0395998
0.0528001
0.0581159
0.0582402
0.909301
0.912325
0.736766
0.651623
0.641665
0.628674
0.907987
0.820653
1.06598
1.13885
1.03531
0.964356
1.15377
1.13645
1.2029
1.25174
1.28121
1.28183
1.30799
1.28194
1.33762
1.36286
1.35738
1.35804
1.3809
1.36404
1.36249
1.41092
1.3517
1.34807
0.467698
0.39867
0.540101
0.61159
0.400394
0.351204
0.399969
0.400189
0.232035
0.278828
0.122558
0.287453
0.171471
0.447993
0.384112
0.443385
0.437234
0.447927
0.33736
0.239137
0.159164
0.149115
0.160825
0.199399
0.127001
0.111347
0.0394451
0.122791
0.210126
0.198138
0.121489
0.221487
0.289623
0.23962
0.341162
0.289716
0.329756
0.385437
0.421563
0.39745
0.433038
0.434399
0.449508
0.43633
0.470852
0.481938
0.478483
0.49303
0.497555
0.499138
0.531725
0.54461
0.535713
0.527117
0.531868
0.52366
0.543066
0.558909
0.60484
0.598169
0.568087
0.598073
0.591729
0.625429
0.661076
0.723359
0.752875
0.755032
0.765838
0.831266
0.914988
0.985663
1.00177
1.12687
0.998942
1.05402
1.20346
1.22724
1.2274
1.26423
1.31347
1.3628
1.37358
1.37847
1.40439
1.43537
1.46206
1.4688
1.44932
1.45257
1.46878
1.45284
1.37619
1.43687
1.40587
1.36403
1.36198
1.39369
1.42632
1.43612
1.36268
1.42245
1.38216
0.212602
0.20526
0.284072
0.348744
0.239617
0.309623
0.438143
0.379744
0.408014
0.237555
0.142569
0.112258
0.109519
0.211923
0.19964
4.56429e-05
0.00153827
0.164354
0.0426515
0.139885
0.163486
0.173072
0.15078
0.179627
0.194178
0.000871197
0.000795729
0.000978231
0.000321022
0.00149416
0.0014943
0.00086849
0.000172666
0.000407967
0.00170194
0.000981197
0.000687867
0.000478021
0.000315336
0.000456619
0.00101
0.00066528
0.00137499
0.000928609
0.00101
0.000700645
0.000660221
0.000998234
0.000701989
0.000938544
0.000874495
0.00105196
0.000944297
0.000791252
0.000751098
0.000990039
7.57449e-05
0.00099613
0.000976554
0.000151024
0.00063944
0.000544652
0.000936558
0.000843756
0.000937984
0.000990093
0.00102285
0.000978339
0.000943996
0.000974885
0.00092222
0.000207016
0.000979907
0.000919067
0.00101
0.000732523
0.00100962
0.000641972
0.000367709
0.000916152
0.000960434
0.000964174
0.000892128
0.000589964
0.000479733
0.958085
0.942801
0.932722
0.941304
0.879914
0.922428
0.733253
0.799641
0.707301
0.702798
0.647783
0.622247
0.570472
0.57146
0.487318
0.382048
0.358318
0.528054
0.573414
0.570472
0.570413
0.571171
0.00119219
0.000989196
0.00119407
0.000630433
0.000973634
0.000973647
0.00094649
0.000972052
0.00100548
0.000830393
0.000135327
0.000443538
0.00093376
0.000997208
0.00060297
0.00100999
0.00098232
3.53596e-05
0.000985985
0.000873381
0.000276721
0.000425098
0.000655599
0.00101
0.000303154
0.00039001
0.136569
0.171834
0.362159
0.201667
0.505763
0.638654
0.612219
0.720609
0.889769
0.795679
0.865888
0.864475
0.866169
0.886405
0.946077
0.949101
0.940532
0.917655
0.000769413
0.000922585
0.000563688
0.000958878
0.000712787
0.000933944
0.000627141
0.000452485
0.000819999
0.000879841
0.000957505
0.000856862
0.000968979
6.84339e-16
0.000922039
0.000873917
0.00096514
0.000987798
0.000743529
0.00100999
0.000468733
1.27699e-07
0.00193428
0.000901385
0.00101
0.000860782
0.000668131
0.000489708
0.000136748
8.06441e-14
0.00098545
0.296631
0.295211
0.261491
0.24288
0.197135
0.219695
0.183717
0.185321
0.340408
0.281859
0.260734
0.111423
0.123577
0.055983
0.0564904
0.122501
0.115976
0.111535
0.157015
0.219559
0.162284
0.195199
0.19024
0.0782111
0.059131
0.0710096
0.094646
0.0204265
0.0208644
0.0226481
0.0325949
0.0503764
0.03511
0.000897073
0.00938637
1.48109
1.49144
1.52036
1.49723
1.54234
1.52635
1.55197
1.54232
1.5975
1.58532
1.55448
1.60463
1.56514
1.62109
1.44743
1.40027
1.42322
1.47178
1.45246
1.4215
1.42565
1.47908
1.48369
1.45972
1.43677
1.49207
1.47591
1.48375
1.5099
1.36422
1.36205
1.36195
1.3612
1.37941
1.40061
0.95593
0.904573
0.796982
0.701374
0.614497
0.692394
0.892383
0.876635
1.11334
1.13448
1.02639
1.10283
1.14186
1.19171
1.23924
1.28184
1.28016
1.28124
1.27697
1.30766
1.32129
1.34546
1.33324
1.33513
1.33956
1.34806
1.32553
1.32826
0.517623
0.449641
0.395961
0.387106
0.439997
0.613372
0.591319
0.329515
0.376662
0.247909
0.186669
1.464
1.48963
1.50284
1.51134
1.518
1.52898
1.53132
1.55943
1.54507
1.56279
1.56085
1.61091
1.63429
1.65657
1.65762
1.66268
1.67362
1.697
0.160545
0.108381
0.108697
0.370784
0.25907
0.426909
0.331037
0.248413
0.147017
0.148882
0.148034
0.147487
7.58093e-05
0.0731857
0.000844564
1.02792e-05
0.0271601
4.32696e-133
0.218004
0.145027
0.0399202
0.236888
0.241627
0.238532
0.292233
0.249843
0.374767
0.323096
0.409403
0.374825
0.410995
0.437092
0.459834
0.484556
0.504436
0.50456
0.51225
0.505888
0.564927
0.550378
0.545599
0.54576
0.595403
0.571315
0.638898
0.601851
0.582823
0.624543
0.669734
0.658478
0.683904
0.720907
0.721324
0.664569
0.773816
0.804993
0.776073
0.762108
0.847003
0.927048
1.00227
1.06922
1.01685
1.03453
1.16189
1.22129
1.26338
1.24406
1.31049
1.34139
1.38485
1.39776
1.39136
1.41485
1.47308
1.4503
1.4525
1.46412
1.47366
1.47917
1.44218
1.44237
1.46413
1.4669
1.45604
0.189107
0.191832
0.208361
0.127749
0.151769
0.159864
0.104392
0.242998
0.151807
0.0848024
0.106554
0.0840377
0.000433348
0.0865905
0.110352
0.000420939
5.39247e-13
7.66813e-05
0.00128505
0.14771
0.0487596
0.0647079
0.0473486
0.000375033
2.89599e-05
0.000823868
0.000916094
0.000938363
0.00112726
0.00112724
0.00149353
0.000640076
0.00101
0.000979872
0.000776109
0.00096702
0.000896738
0.000998449
0.00026155
0.000888291
0.00100984
0.000894905
0.00112718
0.00022471
0.000398457
0.000668916
0.00101
0.000330569
0.000740386
3.50387e-17
2.58099e-11
0.00241235
0.000379096
0.000850418
0.000694792
0.000545923
0.000997667
0.0003892
0.00100993
0.000972649
0.000977525
0.000963111
0.000999516
0.00073906
0.00101046
0.000928052
0.000706363
0.000981766
0.000726499
0.00101072
0.00089779
0.000955844
0.000631827
0.000258775
0.000736746
0.000964465
0.000941166
0.000838222
0.00101
0.000334973
0.000769708
0.000685233
0.000978177
0.000925692
0.000935309
0.000887762
0.00091709
0.000695524
0.000567275
0.00210198
0.00017802
0.000674617
0.000835469
0.000920254
0.00210194
1.65634
1.61654
1.58326
1.69167
1.72503
1.72038
0.942356
0.928282
0.907996
0.920816
0.839299
0.926517
0.741886
0.653582
0.588128
0.601693
0.572338
0.572486
0.569388
0.571204
0.450504
0.365342
0.456973
0.537481
0.53513
0.00093523
0.000742099
0.000875173
0.000890082
0.000922295
0.0009764
0.000965395
0.000493094
0.000931051
0.000554111
0.00100943
0.000959595
0.000969088
0.13321
0.170483
0.195764
0.00100998
0.000498781
0.000128694
0.000927014
4.59314e-06
0.000276748
0.000921556
0.000785239
0.000495623
0.000783296
7.47478e-05
0.338506
0.476521
0.591169
0.595254
0.912415
0.836352
0.848199
0.63381
0.717878
0.808448
0.852554
0.847174
0.868123
0.893447
0.904074
0.900663
0.000699647
0.00116184
0.000625997
0.000982796
0.000704864
0.000720222
0.00100904
0.000845157
0.000718871
0.000865554
0.000823186
0.000932446
0.000763197
0.000831138
0.000896425
0.000527375
0.000627663
0.00100504
0.000978863
0.000935387
0.000938185
0.000682923
0.000770427
0.000937995
0.000997599
0.000978674
0.000347723
0.000953032
0.000978459
0.000973622
0.00101
0.000984843
0.000871643
0.000978065
0.000827832
0.00092248
0.000811322
0.29727
0.332703
0.319822
0.261638
0.260488
0.231319
0.254366
0.120992
0.15149
0.0622379
0.0637349
0.268626
0.255147
0.0158914
0.014295
0.0164263
0.0191904
0.0739116
0.0481188
0.0900435
0.0366707
0.158002
0.111866
0.158989
0.1718
0.000704702
0.000746362
0.000924161
0.0121592
0.000573333
0.000913067
0.00065032
0.000751174
0.000356988
0.00097822
5.79877e-05
0.000979051
1.48302
1.49812
1.52346
1.53931
1.54922
1.54893
1.59723
1.56798
1.41481
1.41259
1.39448
1.41979
1.45234
1.41289
1.45733
1.43158
1.34976
1.33769
1.33767
1.3667
1.39685
1.36904
0.96201
0.887876
0.77875
0.868018
0.717253
0.627077
0.88129
0.88172
1.12167
1.12027
1.13696
1.03883
1.11144
1.22428
1.16939
1.11451
1.15268
1.25569
1.27018
1.2599
1.26657
1.27544
1.29915
1.32742
1.31447
1.3206
1.32544
1.32478
1.32388
1.32764
1.31951
0.370449
0.373157
0.508787
0.587224
0.373118
0.448856
0.607394
0.622683
0.357597
0.303712
0.21219
0.276854
1.50001
1.4453
1.48049
1.52171
1.52108
1.52521
1.53392
1.55704
1.57882
1.58961
1.58882
1.59463
1.61723
1.65693
1.64032
1.65688
1.67464
1.72272
1.69805
1.53157
1.54159
1.55828
1.72613
1.72662
1.72837
0.109583
0.110453
0.111236
0.0778082
0.176745
0.18815
0.000580647
0.0340633
0.0716961
0.000603121
0.000488223
4.9731e-05
0.000567159
0.00101
0.000702905
0.00100987
0.000966793
0.00048813
0.0958164
0.0208154
0.0199217
0.167182
0.242194
0.154118
0.311611
0.340451
0.269744
0.313724
0.374884
0.342342
0.468153
0.410354
0.480738
0.49461
0.502412
0.489893
0.541269
0.582394
0.620517
0.619736
0.625985
0.613217
0.6381
0.622262
0.668725
0.669779
0.693705
0.695444
0.671773
0.675523
0.794277
0.839233
0.739106
0.80172
0.849157
0.812359
0.911978
0.958903
1.0567
1.09725
1.07342
1.16477
1.21894
1.31799
1.3025
1.36079
1.33666
1.43224
1.43687
1.43307
1.46033
1.48674
1.48961
1.5406
1.50645
1.54092
1.51232
1.46885
1.51226
1.48446
1.52019
1.44682
0.000219439
2.76916e-05
0.000784734
0.000266388
0.123266
0.10176
0.100739
0.0894289
0.0935543
0.000484636
0.000137665
0.000469875
0.000338856
0.000115696
0.000454973
0.000233471
0.000111012
0.000141231
0.000508679
1.86816e-05
0.00105947
0.000885163
3.43972e-07
0.000182784
0.000784791
0.00102973
0.000971342
3.98819e-05
0.00112723
0.00112724
0.000977134
0.000995782
0.000992745
3.82214e-05
0.00101
0.000912008
0.0010004
0.000112849
0.00044385
0.000919656
9.91443e-13
0.000297927
0.00219408
8.90493e-12
0.000984734
5.47188e-05
0.0009581
0.000364482
0.00101
0.000172236
0.000989553
0.00220156
0.00097803
0.000134455
0.00096781
0.00100982
0.00131196
0.00037536
0.00100983
0.000979813
0.000465046
0.000983408
0.00101
0.000808151
0.00101051
0.00101063
0.000896998
0.000917093
0.0010107
0.00101068
0.000955402
0.00092137
0.000711032
0.000919589
0.00161013
7.26926e-05
0.00161001
0.000782381
0.00098702
0.000966821
0.00099923
0.00100984
0.00101
0.00100994
0.000799141
0.000805878
0.000827454
1.20946e-05
9.12481e-06
0
0.00090453
0.000799517
0.000430028
0.000844242
0.00131191
0.000898711
0.00100958
0.00100997
0.000786363
0.000998553
0.000946811
0.000914726
0.00101
1.63058
1.61662
1.6246
1.62877
1.66225
1.76854
1.74302
1.74189
1.76928
1.70824
0.855463
0.816605
0.756379
0.771757
0.726225
0.745471
0.673096
0.617816
0.60515
0.572461
0.547603
0.54585
0.458345
0.467494
0.333983
0.379709
0.378412
0.000529692
0.000965684
0.000913493
0.00101
0.000949844
0.000924031
0.000585991
0.162264
0.308751
0.171281
0.000919443
0.000220381
0.000959565
0.000979614
0.0404596
0.000540464
0.00101
0.000973661
0.000736545
0.00102146
0.000849804
0.00099525
0.000944045
0.000847483
0.000249082
0.716741
0.702812
0.744898
0.452976
0.589101
0.59347
0.624065
0.750094
0.825774
0.781868
0.692684
0.773232
0.80655
0.808257
0.71243
0.748818
0.000957717
0.000981514
0.00116187
0.00101
0.000649699
0.000823908
0.00101
0.0011744
0.00095004
0.000997163
0.000160682
0.000986054
0.000875008
0.000936631
0.000510229
0.00102878
0.000979395
0.00102889
0.0010288
0.00101
0.000771965
0.000895476
0.000833864
0.000976221
0.00092185
0.00100577
0
0
0
0.000721434
0.00109055
0.000978791
0.00100563
0.000944429
0.000473953
0.000911195
0.000978965
0.000968087
0.00097325
0.000338297
0.000895901
0.000914242
0.000926795
0.000907471
0.00102883
0.315659
0.324858
0.337999
0.200527
0.226198
0.181017
0.181718
0.113643
0.102107
0.0153599
0.0259258
0.0133111
0.0143901
0.116599
0.115636
0.000841324
0.000828941
0.000242686
0.000582637
0.00220093
0.00101684
0.0191182
0.0783212
0.156436
0.122089
0.181942
0.144233
0.000149409
0.0012026
0.000473174
0.000960392
0.000312228
0.000747328
0.000810412
0.000346646
0.00101
0.000942721
0.000547125
0.00120258
1.49238
1.44298
1.52692
1.47963
1.49555
1.53361
1.51316
1.57927
1.53413
1.60448
1.56395
1.5495
1.61046
1.58017
1.37875
1.38109
1.36988
1.38521
1.39643
1.41008
1.41033
1.42243
1.32585
1.32461
1.34878
1.33295
1.36562
1.37059
0.964525
0.887943
0.803364
0.88161
0.675406
0.769887
0.879315
0.888877
1.11533
1.10905
1.11412
1.04506
1.19935
1.24394
1.15478
1.11391
1.25127
1.25262
1.26735
1.25071
1.28964
1.31248
1.32429
1.32726
1.33363
1.3186
1.32553
1.32361
1.32404
1.31561
0.365787
0.362076
0.530809
0.601503
0.50575
0.431864
0.66016
0.60236
0.337627
0.359632
0.328701
0.247055
1.47644
1.54847
1.53265
1.53805
1.55762
1.55509
1.59274
1.5997
1.57474
1.58966
1.58037
1.59001
1.59518
1.61618
1.64015
1.65526
1.65653
1.7091
1.68626
1.73453
1.74081
1.61346
1.62649
1.74384
1.75158
0.000401184
0.00450788
0.000834202
0.000592709
0.000679761
7.9803e-05
0.000235183
0.000179778
0.00101
8.81757e-06
0.000927799
0.000258474
0.000705117
0.000657476
5.07035e-06
0.000777259
0.019298
0.000623336
0.028002
0.0316587
0.020553
0.0938411
0.236821
0.142132
0.32916
0.329445
0.294631
0.244606
0.370873
0.409267
0.4641
0.458738
0.476606
0.468642
0.587518
0.535168
0.637135
0.629049
0.655423
0.66264
0.634861
0.691546
0.735471
0.709546
0.691305
0.719818
0.770058
0.755435
0.736656
0.779313
0.864928
0.863775
0.859222
0.877397
1.00949
0.923334
1.09519
1.11986
1.12184
1.18645
1.26311
1.33644
1.34767
1.35602
1.40706
1.45265
1.48978
1.4899
1.52895
1.50297
1.55417
1.57116
1.5689
1.56753
1.56187
1.5592
1.55941
1.58238
1.5058
0.000853803
0.000130118
0.00726785
0.00102493
0.000638599
0.000761617
0.000651262
0.000628297
0.000992516
0.000736694
0.000921364
0.00138808
0.00102167
0.00139844
0.0013853
0.00140755
0.00141158
0.000990211
0.00141415
0.00739967
0.000982093
0.000638589
0.000184916
0.00102989
0.000473427
0.00102974
0.00102973
0.000433811
6.2074e-05
0.00100217
0.000993637
0.000687571
0.000856518
0.000696377
0.00101
0.00146074
0.000709618
0.000959982
0.00100986
0.000887496
0.000962023
0.000983483
0.0018675
0.000987835
0.000146754
1.36216e-05
0.000607696
0.00096357
0.000988249
0.000479144
0.000826696
0.000961729
0.00100941
0.00031059
6.2879e-05
0.000987756
0.00100992
0.000817418
0.000560979
0.000686135
0.00101
0.000799183
0.000968463
0.000279366
0.000905419
0.000941315
0.000927141
0.0010008
0.000939674
0.000880492
0.000886752
0.00100949
0.00097168
0.000773375
0.000984106
0.000952799
0.000524827
0.00098992
0.000934564
0.000964099
0.000974876
0.000974485
0.00101
0.00099424
0.000905098
0.000464111
0
0
0
0
0
0
0
0
0
0
0
0
0
0
0
0
0
0
0
0.00099334
0.000887083
0.000937661
0.000812305
0.000918078
0.000434354
0.000930589
0.00106361
0.000325168
0.000811332
0.000633729
0.000885277
1.7949
1.78281
1.80145
1.79235
1.80198
1.79989
1.64145
1.63709
1.7116
1.67594
1.76695
1.79422
1.76313
1.66498
1.62204
0.695115
0.712022
0.694574
0.686435
0.715686
0.639565
0.678492
0.469356
0.52419
0.390813
0.387356
0.337139
0.336765
0.336256
4.53839e-05
0.000757348
0.000495047
0.000982711
0.143186
0.334157
0.16681
0.000948865
0.000967043
0.125006
0.0121304
0.000977274
0.000732592
0.000970402
0.000977458
0.000717645
0.000955985
0.00103766
0.00103776
0.00036581
0.00103768
0.000932938
0.0004632
0.000564851
0.705144
0.70992
0.708428
0.70554
0.71684
0.425603
0.530006
0.480188
0.59781
0.654976
0.681796
0.613732
0.697678
0.648936
0.649861
0.637861
0.000954778
0.00109433
0.000876006
0.000970576
0.000973219
0.000935143
0.000681266
0.00101456
0.000148423
0.000900037
0.00101251
0.000662359
6.92933e-05
0.000748153
0.00101998
0.000508825
0.000763669
0.000845557
0.000952018
0.00094406
0.00094707
0.00099039
0.000740767
0.000908685
0.000621516
0.00100955
0.000627569
0.000973579
0.000348921
2.15212e-05
0
0
0
0
0
0.000852193
0.0010906
0.000978274
0.00109038
0.000988902
0.000872265
0.00078846
0.000950347
0.00098805
0.00100037
0.00093197
0.000953825
0.000956596
0.000997349
0.000778615
0.00101
0
0
0
0
0
0
0.314043
0.245536
0.228296
0.160424
0.152033
0.0693538
0.0533857
0.043013
0.0442344
0.035102
0.0457151
0.00093767
0.000727258
0.000550644
0.00033854
0.0470326
0.0507533
0.000795758
0.000905726
0.000971356
0.000988831
0.116811
0.180292
0.105597
0.00084876
0.000811646
0.0477985
0.000948339
0.0675525
0.00027789
0.000600689
1.31742e-05
0.000467482
0.00184135
0.00184111
0.000619568
0.000959699
0.000281529
0.000798649
0.00100972
0.000818552
1.43432
1.43421
1.45903
1.46011
1.46102
1.47191
1.54264
1.53134
1.52434
1.49689
1.60023
1.5537
1.53979
1.37238
1.36911
1.39767
1.38461
1.40798
1.40854
1.43569
1.41557
1.32633
1.33225
1.35898
1.3401
1.35407
1.36197
1.00307
0.922737
0.845135
0.884821
0.831373
0.735731
0.921046
0.881262
1.11989
1.11511
1.07756
1.12197
1.20696
1.25242
1.12078
1.16428
1.25626
1.2524
1.27903
1.2583
1.29715
1.321
1.31595
1.30467
1.33089
1.30738
1.32105
1.32027
1.3227
1.31738
0.361509
0.419909
0.601374
0.585882
0.51158
0.588245
0.605289
0.679626
0.351478
0.344523
0.342875
0.252582
0.0981076
0.134201
0.224569
1.55464
1.58458
1.59131
1.5952
1.61641
1.62387
1.63317
1.63015
1.66646
1.64361
1.65546
1.62314
1.6526
1.66395
1.68797
1.70733
1.71969
1.71673
1.77032
1.76976
1.79307
1.77199
1.68455
1.68757
1.80589
1.80117
0.00016622
0.000334169
0.00101
7.07774e-06
0.000729054
0.00124843
0.00124756
0.00097364
0.000305007
0.000119978
9.95517e-05
0.00208453
0.00101659
0.000807419
0.000820623
0.000857289
0.00100232
0.000778263
0.0846683
0.0385098
0.000587235
0.128136
0.17468
0.193651
0.174234
0.278716
0.351095
0.225946
0.44898
0.390785
0.459534
0.460026
0.552862
0.493891
0.61465
0.647383
0.646013
0.647053
0.776077
0.736229
0.705671
0.760785
0.788112
0.781427
0.770247
0.763483
0.778391
0.778441
0.859098
0.900777
0.941671
0.89762
0.941344
0.967285
1.10716
1.04161
1.13524
1.11914
1.20287
1.27491
1.3641
1.35672
1.39384
1.42905
1.50627
1.49814
1.51937
1.52475
1.55326
1.56073
1.58007
1.57234
1.58572
1.58126
1.56742
1.58042
1.57251
1.56843
0.000941443
0.000862961
0.00101
0.00067133
0.000947074
0.000657298
0.000566723
0.000789161
0.000642839
0.0013418
0.000378382
0.000934479
0.000295436
0.00135988
0.00138672
0.00139676
0.00140841
0.00141629
0.00141765
0.000329437
0.000371652
0.00100982
0.000631856
0.000938422
0.000788581
0.00100179
0.000663013
0.000997704
0.000180038
0.000954666
0.000624923
0.00101
0.000209386
0.000613088
0.00100863
0.00143691
0.000967441
0.000917136
0.000998822
0.0035917
9.30456e-05
0.000210438
0.00024578
0.00100989
0.000829584
6.4218e-09
0.000997818
0.00100983
0.000224976
0.000848872
0.00100647
0.000131712
0.00100976
0.000959372
0.000161392
0.000986414
0.000975827
0.000986139
0.00359873
0.000980885
0.000679375
0.00098777
0.000776699
0.000659773
0.00126193
0.00126184
0.00126186
0.000900202
0.000946957
0.000832782
0.000987787
0.000948013
0.000941776
0.000961192
0.000871734
0.000897996
0.000947049
0.000951887
0.000925848
1.67713e-05
0.000881191
0.00092376
0.0003855
0.000414352
0.00098456
0
0
0
0
0
0
0
0
0
0
0
0
0
0
0
0
0
0
0
0.000898353
0.000943785
0.00101
0.000948967
0.00145997
0.000679319
0.00110699
0.000915492
0.0011001
0.000947789
0.000799694
0.000991424
1.81421
1.83859
1.84675
1.80098
1.80669
1.79226
1.8012
1.68873
1.7118
1.72684
1.73984
1.74488
1.77789
1.79741
1.63948
1.67355
1.59802
1.64734
1.63934
0.702711
0.692625
0.600584
0.564184
0.662952
0.596414
0.602849
0.474453
0.497042
0.359965
0.339125