/*--------------------------------*- C++ -*----------------------------------*\
  =========                 |
  \\      /  F ield         | OpenFOAM: The Open Source CFD Toolbox
   \\    /   O peration     | Website:  https://openfoam.org
    \\  /    A nd           | Version:  8
     \\/     M anipulation  |
\*---------------------------------------------------------------------------*/
FoamFile
{
    version     2.0;
    format      ascii;
    class       volScalarField;
    location    "15120";
    object      nut;
}
// * * * * * * * * * * * * * * * * * * * * * * * * * * * * * * * * * * * * * //

dimensions      [0 2 -1 0 0 0 0];

internalField   nonuniform List<scalar> 
526318
(
0.000131293
0.000147041
0.000175481
0.000373837
0.000346697
0.000142772
1.78762e-05
0.000312114
9.02142e-05
3.62727e-05
0.000241655
0.000430424
0.00028898
0.000353412
0.000401509
0.000400583
0.000355908
0.000263565
5.93488e-05
0.000344549
0.000205722
0.00029982
0.000168663
0.00012098
6.55545e-05
0.000185423
0.000129342
0.000228643
0.000289443
9.69787e-05
0.000124501
0.000239571
0.000138523
0.000375107
0.000203639
8.46485e-05
0.000254305
0.000445632
5.25581e-05
8.47452e-05
0.000424942
0.000451268
6.17032e-05
0.000169499
0.000221908
0.000143964
0.000108659
0.000278097
0.000279086
0.000331677
0.000303703
0.000325721
0.000361269
0.000445382
0.000117918
0.000347498
0.000142903
0.000254592
0.000285567
0.000199893
0.000104058
0.000134509
0.000242582
0.00020004
9.97672e-05
0.000204563
0.000167051
8.86944e-05
0.000121206
0.000191808
0.000192423
8.03758e-05
0.000291007
9.3267e-05
0.000182908
0.000106259
0.000120358
0.000153653
0.000103713
0.000101993
3.16693e-05
0.000167014
7.8043e-05
8.54017e-05
0.000135222
0.000173307
0.000107504
0.000198664
0.000204354
6.91639e-05
2.71903e-05
0.00019902
0.000184725
0.000107856
0.000213621
0.000186437
0.000120123
0.000210885
0.000158968
0.000248732
1.44411e-05
0
8.09034e-05
6.00924e-05
0.000191566
0
0.000262287
0.000173746
0.000225438
0.000167182
0.000244495
0.000188098
1.01197e-05
0.000430355
0.000193789
5.51974e-05
0.000283949
4.25947e-05
0.000177904
0.000158142
0.000186311
0.000186983
0.000158915
0.000187828
0.000174689
0.000183871
0.000183266
0.000195423
0.000190635
0.000203627
0.000198978
0.000193216
0.000186734
0.000168137
0.000191474
0.000160107
0.000179195
0.000148402
0.000161538
0.000162499
0.00015721
0.000156088
0.000192183
0.000189985
0.000143119
0.000167945
0.000134196
0.000157092
0.000132974
0.000117644
0.000164595
0.000123715
0.000123324
0.000113556
0.000115198
0.000105454
9.17607e-05
0.000119455
0.00011011
8.86713e-05
8.41494e-05
4.70788e-05
8.05072e-05
0.000236998
0.000108638
4.53999e-05
0.000172099
1.65572e-05
0.000127862
5.97232e-05
0.000177596
2.54088e-05
0.000117746
0.000133929
2.47215e-05
2.94504e-05
7.92338e-05
0.000146193
2.97938e-05
4.77457e-05
0.000120745
0.000102326
0.000176732
0.000178052
0.000151001
0.000173549
0.000176497
0.000206396
0.000188631
0.000189594
0.000193458
0.00017697
0.000198692
0.000210527
0.000143435
0.000104216
0.000173869
0.000127411
0.000117486
0.00011132
0.000126962
0.000123309
6.5472e-05
0.000102952
0.00012212
0.000121175
7.48547e-05
0.000115513
0.000118973
8.28518e-05
0.000721401
0.000672544
0.000342057
0.00049284
0.000102938
0.000198351
0.000170487
0.000394461
0.000258617
0.000114918
9.66457e-05
0.000223655
0.0003132
0.000524634
0.000439609
0.00054732
0.00044065
0.000277025
0.00042536
0.000116331
0
0.000142141
0.000449077
0
0
0
0
0
0
0.00014476
9.41914e-05
0.000144423
9.15729e-05
0.000235057
0.000164548
5.43164e-05
0.00025701
5.53022e-05
0.00017267
0.000315603
9.74261e-05
1.96815e-05
0.000230813
0.000100911
0.000211625
0.000234744
0.000215139
0.000195581
0.000207963
0.000181709
0.000232364
0
0
0
0
4.5232e-05
0
4.74775e-05
0.000173035
0.000196029
0.0001922
0.000132192
0.000132311
0.000154242
8.56969e-05
0.000134638
0.000184061
7.3107e-05
7.65917e-05
0.000137191
0.000212502
0.000167778
0.00017245
0.000158378
0.000177902
0.00017233
0.000187612
0.000144365
0.000146905
0.000130758
0.0001434
0.000145905
0.000134866
5.85079e-05
4.18035e-05
0.00010765
8.06435e-05
7.47265e-05
7.43166e-05
5.11721e-05
5.16276e-05
8.49466e-05
5.35547e-05
7.04794e-05
0.000101028
8.13892e-05
0.000119511
0.000153768
0.000125566
9.88381e-05
0.00010991
8.9157e-05
9.31879e-05
8.69461e-05
4.16919e-05
6.66403e-05
0.000110698
6.85783e-05
5.0679e-05
8.00812e-05
0.000160257
0.000197586
8.24239e-05
0.00016857
5.54025e-05
0.000137094
9.75281e-05
0.000168263
5.00914e-05
9.12669e-05
7.69878e-05
5.92145e-05
0.000105391
2.26494e-05
8.70643e-05
2.28821e-05
0.00011226
8.67692e-05
3.92138e-05
0.000147099
0.000130621
0.000167356
0.000182911
0.000184199
0.0001922
0.000188501
0.000189029
0.00016716
0.000146838
0.000194881
0.000109734
0.000177119
0.000119513
0.000141901
0.00016383
0.000159235
0.000141408
0.000135031
0.000126094
0.00010647
0.000119838
0.000121488
0.000101972
0.000111926
0.000109893
0.000105578
0.000103951
0.000111873
6.68419e-05
9.52294e-05
6.43279e-05
6.72314e-05
6.93487e-05
8.1265e-05
7.24955e-05
5.5552e-05
8.83362e-05
0.000237271
0.000165261
0.000161493
0.00025591
0.00020339
8.37285e-05
0.000368866
0.000114665
0.000165567
0.000253948
0.000301691
0.000157042
0.000196612
0.000225178
0.000237417
0.000186721
0.000426718
0.000533259
0.000478332
0.000553052
0.000327038
0.000249776
0
0
0.000153677
0
0.000238199
9.14124e-05
0
0
0
0
0
0
0
0
0
0
0.00019831
0.000219436
0.000148419
0.000219432
0.000154826
0.000213332
0.00026055
0.000214762
9.64373e-05
0.00024592
0.000220716
0.00028792
0.000149219
0.000145848
0.000209262
0.00022282
0.000181228
0.00020744
0.000232316
0.000186005
0.000195779
0.000159058
0
5.05491e-10
3.12692e-11
0
0
0
0
6.05182e-11
4.57454e-10
3.46353e-10
0
0
0
0
0
0
0
0
0
0
8.04142e-06
0
3.57305e-05
6.55949e-05
0.000105085
4.15998e-05
0.000188965
0.00014407
6.54679e-05
0.000149592
0.000254231
0.000165375
0.000151174
0.000120048
0.000217736
0.000115826
0.000139224
0.000177026
0.000140593
0.000141434
0.000151988
0.000160219
0.000168886
0.000152741
0.000141464
0.00012493
0.000127263
0.000113283
9.04725e-05
0.000115835
5.52579e-05
5.66283e-05
5.18585e-05
6.24777e-05
5.89657e-05
5.48721e-05
7.83862e-05
8.78175e-05
7.19108e-05
6.17466e-05
5.95612e-05
5.78563e-05
9.33093e-05
6.10128e-05
6.47231e-05
5.02123e-05
4.5417e-05
7.27148e-05
6.7149e-05
9.04183e-05
0.000100376
0.000108344
9.0996e-05
0.000153791
8.03343e-05
5.73098e-05
5.64885e-05
0.000105384
4.96935e-05
0.000112701
4.62516e-05
2.02227e-05
4.41185e-05
3.66815e-05
0.000205537
0.000106407
0.000165936
5.63438e-05
4.87732e-05
8.60134e-05
0.000117745
3.55758e-05
4.8009e-05
4.12466e-05
7.1686e-05
4.92003e-05
2.79836e-05
2.52083e-05
9.79775e-05
8.47845e-05
6.08227e-05
6.48e-05
8.33407e-05
9.27019e-05
0.000162601
0.000150673
0.000170137
0.000179061
0.000209873
0.000153631
0.000186722
0.000137854
0.000161901
0.000120388
0.000166596
0.00012836
0.000144048
0.000161127
0.000160937
0.000167748
0.000173602
0.000151487
0.000159074
0.000109104
0.0001243
0.000140561
0.000148187
0.000116395
0.000136927
0.000142784
0.000130984
7.11132e-05
9.13469e-05
4.79556e-05
7.23768e-05
1.80148e-05
7.03843e-05
5.31279e-05
5.90576e-05
5.02373e-05
6.64914e-05
5.61991e-05
7.06819e-05
3.24085e-05
0.000216333
0.000357485
0.000198961
0.000352493
0.000212377
0.000161378
0.000182076
0.000111024
0.000102874
9.12732e-06
0.00024695
0.000220844
0.000185275
0.000456205
0.000373433
0.000579062
0.000640063
0.000386242
0.000305508
0.00022126
9.96952e-05
0
0
5.98605e-06
0
8.29184e-05
0.000308987
0
0
0
0
0
0
0
0
0
0
0
0
0
0
0
0
0
0
0
0
1.99244e-09
0
0
0
8.5328e-10
2.29986e-09
0
0
0
0
0
0
0
0
0
0
0
0
0
0
0.000213751
0.000243022
0.000272321
0.000170593
0.000136393
0.000149758
0.000209566
0.000344831
0.00026635
0.000110616
0.000279738
0.000118272
0.000236645
0.000209806
0.000137427
0.000191356
0.000197859
0.000147729
0.000131413
0.000184556
0.000125085
0.000137412
0
0
0
0
0
0
0
0
0
0
0
0
0
0
0
0
0
0
0
0
0
0
0
0
0
0
0
0
0
0
4.5724e-05
0
0.000196275
3.91101e-05
8.37608e-05
0.000134399
5.66757e-05
0.000203092
0.000144774
9.85754e-05
0.000266667
0.000225129
7.68161e-05
0.000102529
5.24217e-05
0.000182471
0.000126295
0.000160618
7.83641e-10
0
0
0
0
0
0
0
0
0
0
0
0
0
0
0
0
0.000139923
0.000116189
0.000165632
0.000117762
0.000145724
0.000142775
0.000120662
9.42262e-05
0.000100652
8.60346e-05
5.98445e-05
6.78351e-05
4.49115e-05
6.51759e-05
2.44139e-05
6.17026e-05
4.42037e-05
5.23713e-05
4.56004e-05
4.75064e-05
4.02464e-05
5.50814e-05
4.59133e-05
5.43899e-05
6.64329e-05
7.1103e-05
5.37434e-05
4.34684e-05
2.33154e-05
4.56e-05
2.6314e-05
5.09184e-05
5.65969e-05
9.74777e-05
9.64468e-05
6.66762e-05
5.17214e-05
0.000123427
5.33617e-05
2.48409e-05
5.33145e-05
7.28967e-05
0.000126506
5.95034e-05
0.000161263
5.81112e-05
4.40851e-05
8.99702e-05
6.83798e-05
0.000117733
3.75803e-05
4.42824e-05
1.02708e-05
3.15369e-05
6.87124e-05
3.177e-05
5.52865e-05
3.14239e-05
3.33423e-05
6.63032e-05
0.000101803
2.68638e-05
5.67267e-05
1.71023e-05
3.44394e-05
2.4641e-05
0.000138803
5.62508e-05
7.31069e-05
3.39448e-05
0.000144935
7.44603e-05
9.50912e-05
0.000139131
0.000129161
0.000173338
0.000158635
0.000128846
0.000134787
0.000155972
0.00016411
0.000138892
0.000138103
0.000162035
0.000154443
0.000159942
0.000178017
0.00018964
0.000195785
0.000172704
0.000159622
0.000151614
0.000125617
0.000129749
0.000130595
0.000135739
0.000108207
7.15341e-05
0.000119881
9.12385e-05
3.61624e-05
6.50037e-05
1.8875e-05
0.000104563
5.26989e-05
9.19137e-05
8.7289e-05
6.02629e-05
4.77797e-05
5.33448e-05
3.50409e-05
4.07411e-05
4.10538e-05
1.81873e-05
9.29206e-05
4.39239e-05
0.000132799
0.00015626
0.000180778
0.00016321
0.000110513
0.000130059
8.17719e-05
0.000127958
0.00012319
0.000127207
7.18578e-05
0.000186114
0.000141331
0.000204433
0.000145166
7.64696e-05
0.000175193
0.000233718
0.000144129
0.000161144
0.000114709
0.000207043
0.000116075
0.000153318
0.00019165
0.000185952
6.95948e-05
0.00021222
7.73533e-05
0.000261958
0.000168198
0.000195973
0.000184119
0.000297202
0.000227795
0.000119479
0.000173216
0.000237892
2.90185e-05
0.000214032
0.000128217
0.000271571
0.000172703
9.45034e-05
3.78143e-05
7.8262e-05
3.70764e-05
5.64785e-05
8.78682e-05
0.000110446
4.35033e-05
0.000294897
0.000566447
0.000748067
0.000505675
0.00043069
0.000249571
9.23215e-05
0.000149144
8.5841e-05
0
0
0
0
0
0
0
0
0
0
0
3.60648e-09
0
0
0
0
0
0
0
0
4.16803e-09
0
0
0
0
0
0
0
0
0
0
0
0
0
0
0
0
1.70703e-09
0
0
0
0
0
0
1.07551e-09
0
7.17186e-10
0
0
0
0
0
0
0
0
0
0
0
0
0
0
0
0
0
0
0
0
0
0
0
0
0
0.000183948
6.35735e-05
2.60183e-05
0.000147641
0.000137939
0.000191981
0.000158897
0.000191492
0.000237424
0.000253402
0.000236895
0.000124562
0.000118917
0.000187978
9.85429e-05
0.000113919
0.000101829
0.000150884
0.000152844
9.01369e-05
0.000152871
0.000124164
0
0
3.18227e-08
2.40855e-08
0
0
0
0
1.36389e-08
0
0
0
0
0
0
0
0
0
0
0
0
0
3.43831e-09
2.92139e-09
0
0
4.70948e-06
7.8356e-05
3.57727e-05
6.51631e-05
0.000130418
3.11336e-05
7.53431e-05
7.66319e-05
0.000171242
0.000108958
0.000397014
0.000181328
0.000296965
7.54484e-05
0.000102096
0.000222197
5.47014e-05
0.000297764
8.37334e-10
0
0
0
0
2.73156e-11
0
0
1.04209e-11
0
0
0
0
0
0
0
0
0
0
0
0
0
0
0
4.99176e-07
6.61034e-07
8.93262e-05
0.000120458
8.83079e-05
0.000129806
9.52995e-05
9.75525e-05
9.13137e-05
9.48236e-05
7.56635e-05
6.5509e-05
6.55222e-05
5.89529e-05
6.01459e-05
2.23158e-05
4.25025e-05
5.26951e-05
1.85286e-05
3.73965e-05
2.43891e-05
2.35493e-05
3.58944e-05
4.28097e-05
2.91729e-05
3.19891e-05
4.89275e-05
1.00646e-05
1.66254e-05
2.42442e-05
1.03044e-05
1.90952e-05
1.63612e-05
2.4216e-05
0.000116077
9.7652e-05
0.000117328
0.000100491
3.15257e-05
0.000126264
9.63453e-05
9.46781e-05
0.000218329
0.000189492
0.000198097
0.00018854
0.000203537
0.000242772
0.000277727
0.000197655
0.000241149
0.00026248
0.000272639
0.000262036
0.000274244
0.000346732
0.000294027
0.000345845
0.000165664
0.000231121
0.0002455
0.000203911
0.000334576
0.000325365
7.99827e-05
0.000109773
0.00015726
7.25671e-05
2.48809e-05
0.000100484
9.56496e-05
0.000129891
2.39893e-05
7.14097e-05
1.76811e-05
6.15208e-05
3.38783e-05
8.21698e-05
2.67862e-05
6.03187e-05
4.21299e-05
0.000100704
9.19396e-05
7.01956e-05
3.64049e-05
3.55798e-05
3.15106e-05
5.65598e-05
0.000117743
0.000134774
5.1567e-05
0.000138393
3.93121e-05
0.000174943
0.00025573
9.67148e-05
0.000117778
0.000110511
0.000135621
0.000136873
0.000149252
0.00014142
0.000124919
0.000153748
0.000144288
0.000132859
0.000152669
0.000176589
0.000195289
0.000156384
0.000148572
0.000152328
0.000128277
0.000134401
0.000124252
0.000120884
0.000132802
0.000119964
7.78694e-05
9.08437e-05
0.000139595
0.000104189
8.13088e-05
9.01014e-05
9.33823e-05
8.08799e-05
7.89204e-05
0.000100603
8.72983e-05
8.82656e-05
7.8725e-05
0.000102159
6.69705e-05
3.17239e-05
1.33054e-05
9.57457e-05
5.6321e-05
6.25674e-05
7.54741e-05
5.12478e-05
4.67488e-05
8.01322e-05
4.57416e-05
0.000106967
6.20616e-05
0.000108622
6.22722e-05
7.96335e-05
9.51938e-05
0.000117687
9.30896e-05
0.000145579
0.000225177
0.000119672
0.000236773
0.000122817
0.000137907
0.0001323
9.10886e-05
0.000110258
0.000105725
5.56113e-05
4.7167e-05
8.36522e-05
0.000116268
2.90019e-05
7.01975e-05
4.6397e-05
0.000274314
1.48102e-05
7.06923e-05
0.000118684
0.000106848
6.25759e-05
5.7854e-05
0.000132433
2.60629e-05
2.75932e-05
2.43329e-05
3.8954e-05
0.000407959
0.000347371
0
1.66212e-06
0.000333018
7.75371e-05
0.000313471
0.000358027
0.00021811
0.000243423
0.000226998
0.000260751
0
0
0
0
1.20178e-09
6.59512e-09
0
0
0
4.26365e-09
0
0
0
0
0
0
0
6.08071e-09
0
0
0
0
0
0
0
0
2.12244e-11
0
0
0
0
0
0
0
0
0
0
0
0
0
0
2.61583e-10
0
0
0
0
0
0
0
0
0
0
0
0
0
0
0
0
0
0
0.00021697
0.000164941
0.000139591
4.85542e-05
0.000231387
0.000187144
0.000201174
0.000232094
2.98217e-05
0.000105354
0.00017032
0.000238718
9.40813e-05
9.51846e-05
7.84232e-05
7.98716e-05
6.3788e-05
8.98649e-05
6.79099e-05
0.000111423
0.000128202
0.000103832
2.72799e-08
0
1.38706e-08
0
0
0
0
0
0
0
0
0
0
0
0
0
0
0
0
0
0
0
0
0
0
0
0.000117357
0.00011282
4.93879e-05
7.66469e-06
7.9744e-05
0.000100944
0.000106765
7.24351e-05
0.000280437
0.000118746
0.000206719
0.0002549
0.000125654
0.000130394
0.000101002
0.000163288
0.000263941
8.04111e-05
0
0
0
0
0
0
0
0
0
0
0
0
0
0
0
0
0
0
0
0
0
0
4.03742e-07
0
0
0
0
0
0
0
0
5.35387e-05
9.21792e-05
5.98648e-05
4.91543e-05
6.44896e-05
7.33018e-05
2.88398e-05
7.16834e-05
4.17657e-05
6.16561e-05
3.48179e-05
4.90817e-05
8.45067e-06
2.41024e-05
7.23738e-06
1.56675e-05
5.15534e-05
5.40868e-05
4.75089e-05
5.22324e-05
1.98553e-05
6.06951e-05
5.45477e-05
2.0833e-05
2.68858e-05
1.90324e-05
2.14964e-05
4.68429e-06
4.26961e-06
1.51834e-05
4.87168e-06
1.65778e-05
1.34049e-05
0
1.70956e-06
0.000207497
0.000152216
0.000159837
0.000205516
0.000144678
0.000167116
0.000167749
0.000164507
0.000157127
0.000140708
0.000228728
0.00015554
0.000169788
0.000171365
5.24957e-05
6.99337e-05
7.1523e-05
6.24714e-05
0.000143639
4.94371e-05
0.000125202
9.7392e-05
0.000165495
0.000131953
7.44408e-05
0.000188838
0.000141852
0.00024185
0.000208284
0.000237615
0.00021432
0.000159444
0.000212204
0.000184187
8.08981e-05
0.000167397
0.000151366
0.000117329
0.000143681
0.000138981
7.75122e-05
0.000139425
0.000185869
0.000254525
0.000295328
0.000263023
0.000279052
0.000312088
0.000275121
0.000344959
0.00028497
0.000346868
0.000324784
0.000304314
0.000390095
0.000374899
0.000363441
0.000374953
0.000373533
0.000312132
0.000303249
0.000341313
0.000397325
5.07335e-05
8.48674e-05
0.000110312
9.93394e-05
6.42218e-05
0.000103429
0.000123064
1.76903e-05
5.5543e-05
4.14854e-05
3.08695e-05
8.89249e-05
5.04463e-05
0.000103826
9.47116e-05
0.00011328
0.00014351
0.000157424
0.00018972
0.000172405
0.000146538
0.000151397
0.00016953
0.000177717
0.000230099
0.000197769
0.000216354
0.000254665
0.000256726
2.47996e-05
1.81221e-05
2.87655e-05
6.26061e-05
0.000100242
4.93611e-05
0.000118529
9.08341e-05
2.93582e-05
4.85996e-05
8.25415e-05
7.37736e-05
0
3.03434e-05
0
0
0.000156865
0
0.000216043
6.23538e-05
0.000141587
5.51932e-05
0.000145385
9.46862e-05
9.33713e-05
0.00010237
0.000107729
0.000101455
0.000126818
0.000114637
0.000153715
0.000157641
0.000184238
0.000175976
0.000149561
0.000164914
0.000130121
0.000118759
0.000148221
0.000115613
0.000149805
0.000129133
0.000138761
0.000178707
0.000104878
0.000120071
0.000123914
0.00011799
0.000100577
9.47888e-05
9.84601e-05
0.000106488
0.000116339
0.000115744
9.93725e-05
0.000129449
6.00518e-05
7.48385e-05
1.02604e-05
6.44199e-05
3.81198e-05
3.31091e-06
2.8912e-05
4.98326e-05
7.34065e-05
1.36631e-05
8.22885e-05
5.23752e-05
8.21102e-05
5.21468e-05
7.24897e-05
8.78747e-05
7.95237e-05
0.000116011
5.70968e-05
9.26763e-05
0.000169697
0.000174149
0.000242414
0.000209468
0.000197876
0.00038217
6.40136e-05
0.000321687
0.000141089
0.000469625
0.000230943
0.00026001
0.000108352
0.000141047
3.92009e-05
0.000122982
0.000141551
8.61523e-05
4.68627e-05
6.92364e-05
4.53987e-05
0
3.99413e-05
1.83989e-05
0
0
0
1.48822e-06
0.000360263
0.000138563
0.000107427
0.000136037
0
0
0
0
0
6.46857e-10
7.55453e-10
1.21186e-08
0
0
0
0
0
0
0
0
0
0
0
2.47845e-09
0
0
0
0
0
0
0
0
2.77081e-07
0
0
0
0
0
0
0
0
0
0
0
0
4.7995e-10
0
0
0
0
9.65774e-10
0
0
0
0
0
0
0
0
0
0
0
0
0
0
0
0
0
0
0
2.27682e-09
0
0
0
0
2.54695e-09
0.000257517
0.000182448
0.000233719
0.000265126
0.000294523
0.000335295
0.000162577
0.000194745
0.000238605
0.000112711
0.000246446
0.000153758
0.000282139
0.000381384
2.43671e-05
8.28732e-05
0.000166296
6.86032e-05
7.21604e-05
8.45004e-05
6.03209e-05
5.24621e-05
4.15064e-05
5.09753e-05
8.92035e-05
0
0
0
0
0
0
0
0
0
0
0
0
0
8.47656e-05
2.83742e-05
3.42947e-05
0
0
0
0
0
0
0
0
0
0
0
2.37023e-05
5.60856e-05
5.4659e-05
7.93222e-05
9.05142e-05
0.000330188
0.000246845
0.000164997
5.90852e-05
0.000207332
9.70915e-05
0.000152961
3.32498e-05
0.000180066
0.0001013
0.000112741
0
2.79438e-10
0
0
0
0
0
0
0
0
0
0
0
0
0
0
0
0
0
0
0
0
0
0
0
0
0
0
0
0
0
0
0
0
0
0
0
2.9806e-05
4.72108e-05
5.5019e-05
3.2854e-05
6.13609e-05
1.08748e-05
6.88441e-05
3.10745e-05
1.87729e-05
2.35973e-05
8.88948e-06
4.29415e-05
3.35872e-05
5.99432e-06
4.92977e-06
4.13409e-06
9.05911e-06
3.82568e-05
1.91504e-05
7.791e-05
2.19846e-05
8.24821e-05
5.95919e-05
9.30701e-05
7.39156e-05
0
0
0
1.648e-05
0
0
0
0
0
0
0
0
0.000201871
0.000170404
0.00016562
0.000172773
0.000196974
0.0001298
0.000144598
0.000262741
3.80857e-05
0.000153174
5.10356e-05
4.46805e-05
0.000147285
2.71691e-05
0.000152023
0.000143872
0.000271269
0.000273661
0.000293981
0.000174993
0.000142294
0.000214928
0.000215413
0.000207639
0.000224067
0.000144303
0.000139685
0.000204193
0.000220032
0.000192804
0.000347902
0.000362551
0.000350507
0.000318395
0.000308993
0.000357395
0.00040443
0.00034936
0.000461835
0.000370629
0.000376727
0.000370773
0.000351997
0.000366166
0.000395546
0.000451388
0.000385498
0.000354266
0.000435418
0.000331794
0.000350967
0.000406192
0.000355311
0.000123708
8.87273e-05
7.41286e-05
7.5016e-05
0.00012052
7.98571e-05
0.000151317
0.000136933
3.17495e-05
8.23152e-05
4.39152e-05
6.17728e-05
7.15028e-05
0.00013651
0.000161157
0.000185507
9.7201e-05
0.000148956
0.000147808
0.000150387
0.000159962
0.000141799
0.000162635
0.000164882
0.000169243
0.000226583
0.000215705
0.000270853
0.000225281
0.000290664
0.00031515
0.00017632
0.000170679
0.000187861
0.000315735
0.000331923
0.00034254
3.85506e-05
9.44526e-05
4.85294e-05
3.19186e-05
7.10193e-05
9.80471e-05
0
5.33382e-06
4.29734e-05
0
0
0
0
0
0
0
0
0
3.4987e-05
4.63973e-06
3.8535e-06
5.43943e-05
7.10089e-05
9.16213e-05
0.000105356
0.000100329
8.44566e-05
0.000106206
0.000118778
0.000133224
0.000146428
0.000156806
0.000149221
0.000143883
0.00013277
0.000110408
0.000108155
0.000166331
0.000153329
0.000228232
0.000143393
0.00013786
0.000181579
0.000135851
9.63302e-05
0.000115325
0.000145172
0.000113497
0.00012223
0.000123903
0.000137046
0.000114965
0.000149738
0.000127066
6.80107e-05
9.24333e-05
4.72208e-05
0.000116754
3.59761e-05
0.000191742
6.0433e-05
0.000112751
4.93771e-05
9.99718e-05
1.09539e-05
3.84985e-05
9.09033e-05
9.2123e-05
8.99764e-05
0.000135484
7.83902e-05
9.64026e-05
0.000152635
0.000124807
0.000188123
0.000194704
0.000183274
0.000256996
0.000411944
0.0002252
0.00060054
0.000406233
0
0
0
0
0.000172294
4.90346e-05
4.19376e-05
7.54637e-05
0.000139471
0
0
0
0
0
0
0
0
0
0
0
2.89216e-06
0
0
0
0
3.77086e-11
0
0
1.85406e-09
5.03301e-10
0
0
0
0
0
0
0
0
0
0
0
0
3.03671e-07
0
0
0
0
0
0
0
0
2.21305e-07
0
0
0
0
1.27583e-09
0
0
0
0
0
0
0
1.49198e-10
1.40153e-10
0
0
7.42356e-10
8.73677e-10
0
0
0
0
3.05963e-09
0
4.07293e-09
0
0
0
0
0
0
0
0
0
0
0
0
0
0
0
0
0
1.41366e-09
0
0
0
0
0
0
0
0
0.000393708
0.000344984
0.000194045
0.00025827
0.000338851
0.000358129
0.000375679
0.000343919
0.000330372
0.000344588
8.76744e-05
0.000190725
6.3655e-05
1.53184e-05
0.000306457
0.0002694
0.000115555
0.000204695
8.94641e-05
3.51419e-05
0.000111519
6.44667e-05
3.84101e-05
3.6826e-05
4.10154e-05
1.85517e-05
6.2076e-05
0
0
0
0
0
0
0
6.50344e-05
5.64621e-05
9.00659e-06
0
0
0
0
2.93504e-05
0
0
0
0
1.58657e-11
0
0
0
0
0
0.000256474
0.000161535
0.000214041
3.12116e-05
5.30684e-05
8.57417e-05
5.54162e-05
0.000234857
0.000239925
2.17124e-05
5.90882e-05
0.000232535
0.000100118
0.000158049
0.00011751
0.000239228
0
0
2.63814e-10
0
0
0
0
1.12718e-10
0
0
0
0
0
0
0
2.02541e-09
0
9.02384e-10
1.53432e-09
0
0
0
0
0
0
0
0
0
0
0
2.60746e-09
0
0
0
0
0
0
0
0
0
0
0
0
0
7.64856e-10
3.64107e-05
1.65049e-05
1.15664e-05
2.36187e-05
4.78589e-05
1.28902e-05
3.69305e-05
4.37924e-05
1.90057e-05
2.11948e-06
7.5982e-06
4.63324e-06
2.87889e-06
2.66217e-05
1.35533e-05
0
0
0
0
1.34845e-06
3.57122e-07
1.84036e-05
5.63356e-05
2.99414e-05
7.51397e-05
0.000119445
0.000101696
0
8.10525e-10
0
0
0
0
0
0
0
0
0
1.05792e-09
0.000266467
0.000159018
8.1618e-05
0.000246307
0.000382131
0.000129007
0.000250141
0.000298975
5.98681e-05
0.000342297
0.000170844
0.000243788
0.000277533
0.000251834
0.000188034
0.000111514
0.000137952
5.70284e-05
8.77399e-05
0.000125704
0.000173611
0.00032417
0.00026407
0.000320318
0.000236652
0.000291371
0.000306424
0.000159827
0.00027391
0.000278211
0.000228672
0.000195384
0.000194727
0.000179638
0.000273916
0.000281902
0.000330002
0.000343655
0.000302474
0.000367871
0.000346542
0.000382478
0.000360214
0.00028582
0.000322207
0.00033032
0.000370987
0.000303009
0.000357069
0.000370506
0.000386996
0.000381494
0.000436325
0.000288823
0.000347257
0.000389789
0.000363503
0.00034783
9.38538e-05
0.000101922
0.000141499
0.000129732
0.000145395
0.000174753
0.000160801
0.000136388
5.58441e-05
7.33896e-05
3.336e-05
3.80478e-05
3.97901e-05
0.000428412
0.000127862
0.000109368
0.000189083
0.000135233
8.99708e-05
0.000223117
0.000256994
0.00019723
0.000179512
0.000189742
0.000202823
0.000195611
0.000179671
0.000272665
0.000227332
0.000243807
0.000284423
0.000254051
0.00032674
0.000219134
0.000182434
0.00032433
0.000339228
0
1.30386e-06
0
0
0
0
0
0
0
0
0
0
0
0
0
0
8.28476e-06
0
4.42271e-06
1.52226e-05
1.04915e-05
2.98661e-05
5.40247e-05
4.1132e-05
0.000109151
0.000101372
0.000107464
7.98428e-05
0.000151857
0.000134975
0.000121997
0.000128053
0.000123349
9.58717e-05
0.000165289
9.30091e-05
0.000137923
0.000210574
0.000257342
0.000217882
0.000149551
0.000147389
0.000176335
0.000186553
0.000140758
0.000132683
0.000168673
0.000186998
0.00015565
0.000132029
9.46358e-05
0.000109556
0.000131706
0.000138966
0.00010097
8.05578e-05
0.000104809
0.000137908
0.000152188
0.000100921
0.000103859
6.78412e-05
0.0001009
6.41277e-05
9.51902e-05
0.000109799
9.21056e-05
0.000148306
0.000170272
0.000105749
0.000118242
0.000126373
0.000150314
0.000152957
0.000203069
0.00017226
0.000127542
0.000309314
0.000668969
0
0
4.67078e-07
3.87506e-11
0
0
0
0
0
0
0
1.55553e-07
6.13273e-08
3.63831e-08
2.96081e-08
3.07786e-08
2.03442e-08
0
1.62886e-08
5.24883e-08
0
0
0
1.0688e-09
0
1.05707e-09
1.94328e-10
0
0
0
0
0
0
0
0
3.69989e-08
0
0
0
0
0
0
5.00608e-07
0
0
0
0
0
0
0
0
0
0
0
0
0
0
0
0
0
0
0
0
0
0
0
0
0
0
0
0
0
0
0
0
0
0
0
0
0
0
0
0
0
0
0
0
0
0
0
0
0
0
0
0
0
0
0
0
0
0
0
0
0
0
0
0
0
0
0
0
0
2.20182e-11
0
0
0
0
0.000321069
0.000285229
0.000345058
0.000382903
0.000330777
0.000388197
0.000209221
0.000305133
0.000304161
0.000303034
0.000346034
0.000378081
0.00030914
0.000272776
0.000360447
6.14229e-05
0.000168504
6.41098e-05
4.8927e-05
0.000127922
0.000128313
6.42693e-05
3.94837e-05
5.10539e-05
3.04626e-05
2.20501e-05
6.51339e-05
7.78e-06
6.62107e-05
0
0
0
0
5.76459e-05
4.17182e-05
3.34805e-05
0
0
2.41194e-05
8.21737e-06
0
0
0
0
0
0
2.7006e-09
1.69437e-09
0
1.55003e-09
0
0
0
0.000298896
0.000115353
7.40911e-05
8.79891e-05
0.000245997
5.18942e-05
7.18599e-05
8.94084e-05
1.51345e-05
0.000134272
0.000160914
0.000134179
2.3885e-05
0.000125587
9.49651e-05
0.000115932
0
8.17672e-10
0
0
0
0
0
2.11367e-11
0
0
6.86193e-11
0
0
0
1.80667e-10
0
0
0
0
0
0
0
0
0
0
0
0
0
0
0
0
0
0
0
0
0
4.07548e-10
0
2.10406e-09
0
0
0
0
0
0
0
0
0
0
0
0
0
0
0
0
0
0
4.80194e-05
7.14561e-06
1.24821e-05
1.51459e-05
2.66228e-05
1.28694e-05
9.65655e-06
1.02349e-05
3.07008e-06
1.25236e-05
5.01291e-06
0
0
0
0
9.1042e-06
1.46379e-05
0
0
0
0
7.03201e-05
3.37813e-05
6.35836e-05
0
0
6.42241e-05
0
2.97435e-05
0
0
0
0
1.74465e-09
2.41666e-09
0
0
0
0
0
0
0.000146683
0.000305404
0.000359261
0.000128906
0.000491966
0.000236644
0.000859999
0.000371668
4.39665e-05
8.21503e-05
0.000337657
0.00039832
0.000346674
0.000174033
0.000212146
0.000164827
0.000175338
0.000207864
0.000139634
0.000120792
0.000243162
0.000371167
0.000295935
0.000295901
0.000305603
0.000322629
0.000272296
0.000350922
0.000376391
0.000237372
0.000266555
0.000268651
0.000228368
0.000351428
0.00031608
0.000312392
0.000280469
0.000448436
0.000317475
0.000222227
0.000284343
0.000206066
0.000214629
0.000207928
0.000200508
0.000259257
0.000213349
0.000230017
0.000453091
0.000449021
0.000349368
0.000489686
0.000227718
0.000337397
0.000433603
0.000379618
0.000443495
0.000115374
0.000128157
0.000169221
0.000172152
0.00019809
0.000193992
0.00018537
0.00023374
9.51089e-05
3.53448e-05
8.50937e-06
3.38111e-05
1.81879e-05
4.55471e-05
6.30232e-05
7.11952e-05
0.000301046
0.000401997
0.000211103
0.000151559
0.000359982
0.000297564
0.000243209
0.000236005
0.000247113
0.000217947
0.000212521
0.000240018
0.000223
0.000235073
0.000223102
0.000296437
0.000213009
0.000316214
0.000255793
0.000303475
0.000245535
0.000250886
0.000285628
0.000297002
0.000247548
0
0
0
0
0
4.39756e-10
5.03056e-09
0
0
0
0
3.60112e-09
1.13195e-09
0
0
0
0
0
3.85478e-05
2.29572e-06
0
5.35818e-05
4.04322e-05
3.97734e-05
5.45472e-05
7.26956e-05
0.000138358
8.10424e-05
0.00011937
0.000121532
0.0001121
0.000122198
0.000150535
0.000105425
0.000127586
0.000153468
0.000174499
0.000176962
0.00022044
0.000233831
0.000196827
0.000202455
0.000209205
0.000213296
0.000153927
0.000164705
0.000176415
0.00019589
0.000144623
0.000144463
0.00013761
0.000128871
0.000161819
0.000162154
0.000150965
0.000133926
0.000122304
0.000140914
0.000117842
0.000112589
0.000120856
0.000110649
0.000101164
0.00014714
0.000167321
0.000116175
0.000190915
0.000155276
0.000152716
0.000151233
0.000157667
0.000152272
0.000160774
0.000212825
0.000152334
0.000176941
0.000502906
0.000264172
0
0
0
0
0
0
0
0
0
1.49163e-07
0
0
0
5.17098e-08
4.98731e-08
3.88901e-08
3.74449e-08
7.36964e-09
3.19074e-08
0
0
0
0
0
0
0
0
0
0
0
0
0
0
0
0
3.80152e-08
0
0
0
5.17992e-08
0
0
0
0
0
0
0
0
0
0
0
0
0
0
0
0
0
0
6.93875e-08
0
0
0
0
0
7.4146e-10
7.16106e-10
1.43276e-09
0
0
0
0
0
0
0
0
0
0
0
0
0
0
0
0
0
0
0
0
0
0
0
0
0
0
0
0
0
0
0
0
0
0
0
0
0
0
0
0
0
2.83619e-09
0
6.92152e-10
0
2.60531e-09
0
0
0
0.000311497
0.000339007
0.000284914
0.000322345
0.000375658
0.000373756
0.000358195
0.00037312
0.000322895
0.000353388
0.000223888
0.000290627
0.000334319
0.00034983
0.000272513
0.00027135
0.000277186
0.00035395
0.000297745
0.000128785
5.31141e-05
5.22911e-05
0.000111484
2.81417e-05
3.79303e-06
7.84017e-05
4.4598e-05
4.36652e-05
6.06386e-05
2.64821e-05
2.49003e-05
7.5202e-05
8.64212e-05
0
0
3.71787e-05
7.35566e-05
5.22621e-05
0
0
2.71578e-05
4.03282e-05
0
0
0
0
0
0
0
0
0
0
0
0
0
0
0
6.58888e-05
9.12417e-05
6.82239e-06
0.000177396
7.72132e-05
6.93631e-05
9.1299e-05
5.73997e-05
9.74957e-05
0.000101721
9.66274e-05
4.98576e-05
8.49366e-05
0
0
0
0
0
0
9.51656e-09
1.17913e-08
0
0
0
0
0
0
0
0
0
3.32136e-09
0
0
0
0
0
0
0
1.36439e-09
0
0
3.92444e-09
0
0
0
0
0
0
0
0
0
0
0
0
0
0
0
0
0
0
0
0
0
0
2.15315e-09
0
0
0
0
0
0
0
0
0
0
0
5.28819e-05
3.88015e-05
3.16435e-05
1.05082e-05
1.25623e-05
3.28097e-05
1.49115e-05
3.97005e-06
1.42372e-05
2.47521e-06
3.93585e-06
0
0
0
0
0
0
0
0
0
0
0
0
4.05677e-05
3.58976e-05
0
0
0
9.53117e-06
7.28789e-05
4.51303e-05
0
0
0
1.19631e-09
0
0
0
0
0
0
0
0
0.00114916
0.0004211
0.000485243
0.000271993
0.000705036
0.00048816
0.000452446
0.000405191
0.000344493
0.000225911
0.000296884
0.000293735
0.000309025
0.000347563
0.00025121
0.000190176
0.000256584
0.00019414
9.49834e-05
0.000194232
0.000349691
0.000129007
0.000384966
0.00034255
0.000418937
0.000329492
0.000302711
0.000304676
0.000420318
0.000427706
0.000286987
0.000352685
0.000235696
0.000333463
0.000335858
0.000418821
0.000220194
0.000351423
0.000344352
0.000482436
0.00012221
0.000125889
0.000122685
0.000223947
4.03486e-05
0.000138376
6.94152e-05
0.000176092
0.000218951
0.000232357
0.00037234
0.000298913
0.000111738
0.000338317
0.000366928
0.000369778
0.000364889
0.000557683
0.000143103
0.000136629
0.000246049
0.000243159
0.000209038
0.000201336
0.000233604
0.000268638
9.82078e-05
9.5289e-05
9.95482e-05
0.00012865
3.92676e-05
8.96828e-05
0.000227456
0.000274527
0.000270392
0.000287581
0.000256997
0.00033035
0.000298616
0.000319596
0.000271179
0.000239397
0.000255984
0.000240741
0.000219067
0.000260104
0.000261776
0.000283255
0.000210805
0.000297204
0.000233353
0.000243751
0.000272836
0.000252514
0.000253824
0.000264872
0.00026374
0
0
0
0
0
0
0
0
0
3.93072e-09
0
0
0
0
0
2.51739e-11
2.05974e-11
0
0
2.18139e-05
0
6.10835e-05
2.81801e-05
7.18043e-05
4.5459e-06
9.27586e-05
0.000122762
8.10862e-05
7.73075e-05
0.000113467
0.000126753
0.000148059
0.000103414
0.000128244
0.000149667
0.00015451
0.000209881
0.000205415
0.000206409
0.000206322
0.000207136
0.000191389
0.000220519
0.00021624
0.000168442
0.000146889
0.000159464
0.000188047
0.000164445
0.0001864
0.000175813
0.000168771
0.000189484
0.000190644
0.00016373