/*--------------------------------*- C++ -*----------------------------------*\
  =========                 |
  \\      /  F ield         | OpenFOAM: The Open Source CFD Toolbox
   \\    /   O peration     | Website:  https://openfoam.org
    \\  /    A nd           | Version:  8
     \\/     M anipulation  |
\*---------------------------------------------------------------------------*/
FoamFile
{
    version     2.0;
    format      ascii;
    class       volScalarField;
    location    "19380";
    object      alpha;
}
// * * * * * * * * * * * * * * * * * * * * * * * * * * * * * * * * * * * * * //

dimensions      [0 0 -1 0 0 0 0];

internalField   nonuniform List<scalar> 
526318
(
7.3696e-05
9.56539e-05
8.19577e-05
0.000146696
8.24029e-05
0.000120902
0.00011311
0.000163709
7.22359e-05
0.000189734
0.000106435
0.000111442
6.68539e-05
0.000131826
0.000139158
0.000132871
0.000119782
0.000101693
0.000115639
0.000111183
0.00018957
8.22826e-05
0.000169175
0.000105769
0.000138429
9.71992e-05
7.7946e-05
0.000112383
5.47935e-05
5.88097e-05
5.66384e-05
6.11227e-05
4.354e-05
9.9045e-05
0.000104343
5.501e-05
0.00013074
9.38709e-05
0.00016986
0.000155477
0.000153415
0.000122869
0.000280661
0.000155224
0.000183409
0.000289651
0.000159829
0.000217521
0.000174855
0.000157469
0.000156249
0.000134023
0.000179105
0.000153641
0.000514839
0.000186963
0.000334274
0.000322603
0.000101902
0.000132558
4.97765e-05
0.000124573
0.00012895
9.60117e-05
9.08675e-05
0.000135099
0.000111642
0.000145032
0.000166179
0.000135351
0.000131333
0.000230824
0.000191706
0.000242231
0.000235433
0.000283835
0.000230916
0.000266175
0.000269883
0.000258271
0.000226705
0.000205154
0.000232787
0.000304208
0.00026302
0.000222896
0.000243173
0.000191449
0.000242979
0.000193446
0.000285271
0.000229042
0.000179419
0.000145463
0.000234371
0.000196018
0.000281098
0.000219543
0.000144913
0.000232355
0.000810808
0.000498944
0.000380872
0.000427817
0.000596102
0.000949342
0.00030012
0.000214841
0.000228675
0.000160679
0.00013528
0.000163321
0.000111573
0.000129942
7.01386e-05
6.6671e-05
6.3636e-05
4.27112e-05
1.1019e-05
4.73031e-05
0.000148181
0.000112381
0.00013962
6.44833e-05
8.5636e-05
5.90452e-05
5.01041e-05
5.07372e-05
2.46826e-05
7.63026e-05
6.55175e-05
5.40309e-05
4.02646e-05
5.91234e-05
1.50296e-05
6.7403e-05
7.23999e-05
4.72935e-05
4.67287e-05
0.00010747
5.47784e-05
6.26884e-05
7.77498e-05
7.13331e-05
6.81707e-05
0.000147785
7.71918e-05
0.000126546
0.000156941
4.04054e-05
9.60061e-05
0.000109089
0.000255964
0.000282747
0.000212891
0.00050734
0.000258111
0.000193676
0.000354349
0.00024187
0.000282469
2.5592e-05
0.000364052
0.000183818
0.000148873
0.00011734
0.00014651
0.000240019
0.000203637
0.000281928
0.000278548
0.000303306
0.000239285
0.000252662
0.000329576
0.00033065
0.000250457
0.000239831
0.000326493
0.000264311
0.0002357
0.000159434
0.000186724
0.000154506
0.000158507
0.000174727
0.000118685
2.73043e-05
9.25826e-05
4.54824e-05
6.42735e-05
3.7439e-05
8.78012e-05
7.67204e-05
6.16714e-05
9.34625e-05
7.81427e-05
6.24475e-05
8.36253e-05
5.15396e-05
6.97391e-05
0.000360447
0.000337594
0.000101714
0.000146659
0.000304252
0.000279091
0.000191756
0.000177793
0.000199826
0.000137202
0.000158047
0.000152641
9.63011e-05
0.000138873
0.000126583
0.000147265
0.000206329
8.57108e-05
0.000350863
0.000241987
0.000257193
0.000270026
0.000223325
0.000186051
0.000200093
0.000198423
0.000156835
0.000164259
0.000586078
0.000723829
0.000363331
0.000330546
0.000720893
0.00286549
0.000756122
0.000817913
0.000736304
0.000591338
8.79531e-05
6.84967e-05
8.2854e-05
4.59396e-05
0.000121694
0.00012253
0.000167858
9.18127e-05
0.000189996
0.000194619
0.000202467
0.000222767
0.000223749
0.000192342
0.000222573
0.000215145
0.000168743
0.00019934
0.000144908
0.000176748
0.000110207
0.00014631
0.00292287
0.00457811
0.00113945
0.00107694
0.000692646
0.000544723
0.000443072
0.000401599
0.000198832
0.000223486
0.000150525
0.000180894
0.000193374
0.000144961
9.89105e-05
9.19189e-05
5.18478e-05
9.63404e-05
5.60851e-05
2.10664e-05
9.52325e-05
7.39889e-05
6.40757e-05
7.64722e-05
8.11566e-05
4.93816e-05
8.33988e-05
5.90643e-05
6.50874e-05
0.00011002
8.44e-05
8.41508e-05
0.000166217
0.000311015
0.000293725
0.000265003
0.000302444
0.000348763
0.000339299
0.000313556
0.000296961
0.000207132
0.000219494
0.000261148
0.000234857
8.7161e-05
0.000123848
0.000280634
0.000224945
7.36336e-05
0.000209891
0.000294755
0.000289947
0.000250685
0.00019808
0.000339046
0.000375432
0.000299048
0.000349995
0.000200169
0.000178039
0.000248653
0.000253635
0.000284036
0.000253606
0.000278259
0.000310023
0.00024204
0.000314892
0.000297092
0.000218939
0.000174859
0.000293226
0.000217808
0.000241461
0.000322947
0.00021025
0.000230375
0.000277652
0.000294674
0.000189991
8.56585e-05
0.000155675
4.74192e-05
0.000125219
0.000136665
2.24388e-05
5.93923e-05
5.26798e-05
7.49803e-05
6.51969e-05
4.71822e-05
4.92798e-05
5.25652e-05
7.80999e-05
7.04601e-05
6.78482e-05
0.00014458
0.000131204
0.000102923
5.91018e-05
0.000211954
0.000242994
0.000207204
0.000220258
0.000270833
0.000273661
0.000351993
0.000356488
0.000344766
0.00031816
0.000312679
0.000340477
0.000321184
0.000326907
0.000327982
0.000161664
0.000133437
8.5722e-05
0.000138634
0.000146028
4.5517e-05
0.000163144
0.000272953
0.000193639
0.000178804
0.000139362
0.000374096
0.00040532
0.000350343
0.000384594
0.00032431
0.000273395
0.000261987
0.000264794
0.000185997
0.000198744
0.000205826
0.000652887
0.000576848
0.000491275
0.000549016
0.000405199
0.000393028
0.00911097
0.0015502
0.00374598
0.00793323
0.179246
0.00655008
0.00335266
0.000767809
0.000905101
0.00031186
6.82859e-05
6.61381e-05
5.11739e-05
3.73142e-05
0.000105208
0.000121516
0.000147919
0.000167217
0.000193737
0.000192362
0.000236442
0.000197521
0.000202648
0.000206307
0.000202249
0.000169444
0.000159752
0.000169085
0.000131449
0.000140292
0.000113534
0.000123799
0
0.000164871
0.000458498
0
0
0
0
0.000327271
0.000464151
0.000575502
0.00850772
0
0
0
0.0245045
0
0.007975
0.00234573
0.000790639
0.00107272
0.00064359
0.000457047
0.000468104
0.000522881
0.00024836
0.000458266
0.000236962
0.000149969
0.000173537
0.000105973
7.25808e-05
0.000133096
0.00012266
8.81996e-05
6.1938e-05
2.1915e-05
1.53355e-05
4.29703e-05
8.17128e-05
0.000116466
0.000109686
6.69458e-05
8.05437e-05
0.000103908
9.42216e-05
8.94045e-05
9.64205e-05
8.59206e-05
0.000121664
0.000112707
0.000268152
0.000246538
0.000206336
0.000288582
0.000270933
0.000354005
0.000333086
0.000324765
0.000251916
0.000318902
0.000237827
0.00015641
7.21042e-05
0.000202543
0.000255507
0.000242724
0.000166313
5.49177e-05
0.000240572
0.000333984
0.000344849
0.000338408
0.000352843
0.00036254
0.000315892
0.000344787
0.000313067
0.000357691
0.000359923
0.000350182
0.00034922
0.000380098
0.000392711
0.000286121
0.000226293
0.000301578
0.000333798
0.000345388
0.000335664
0.000329903
0.00029917
0.00024469
0.000320374
0.000195175
0.000286674
0.000213666
5.62615e-05
0.000150057
0.00014876
0.000293602
0.000136743
0.00030588
0.000245731
0.000425438
0.00034211
0.000308055
0.000212759
8.04093e-05
0.000266351
2.4741e-05
0.000108659
9.93068e-06
7.12157e-05
4.13395e-05
0.000158536
6.00842e-05
4.35302e-05
1.89152e-05
6.33013e-05
4.6209e-05
2.59593e-05
0.000139005
7.57977e-05
0.000171176
0.00020861
0.000153789
0.000216089
0.000212732
0.000290833
0.000239233
0.000240079
0.000312428
0.000263916
0.000304846
0.000282954
0.00027281
0.000292093
0.000275714
0.000297204
0.000283927
0.000262955
0.00029474
0.000262119
0.000251552
0.000172951
5.89274e-05
0.000198128
7.22295e-05
0.000136283
0.000133675
0.000137693
0.000249694
0.000271687
0.000233109
0.000184834
0.000437578
0.000381152
0.000332565
0.000322937
0.000227313
0.000307153
0.000304359
0.0002298
0.000233222
0.000277784
0.000847451
0.000946103
0.000315723
0.000485571
0.000298856
0.000315726
0.0535605
0
0.0591674
0.0438
0.0111255
0
0.00134019
0.00274155
0.0017588
0.00144498
0
0
0
0
0
0
0
0
0
0
0.00662351
0
0
0.00239257
0.00265461
0.00700855
0
0
0
0
0
0
0
0
0
0
0
0
0
0
6.82721e-05
5.2104e-05
2.84997e-05
4.45831e-05
0.000124146
0.000105052
0.000189812
0.000166908
0.000181063
0.00020164
0.000205978
0.000191728
0.00017964
0.000196661
0.000185785
0.000175763
0.000153355
0.000167396
0.000159135
0.000137734
0.000132988
9.84392e-05
0
0
0
0
0
0
0
0
0
0
0
0
0
0
0
0
0
0
0
0
0
0
0
0
0.0593704
0.00747215
0.00012437
0.00240532
0.000893931
0.00076822
0.000434258
0.00049639
0.000475465
0.000366998
0.000161392
0.000355225
0.000121219
0.000190053
0.000168867
0.000104746
0.000142154
8.03298e-05
6.66708e-05
0.000113925
9.12387e-05
1.15134e-05
5.84577e-05
2.49435e-05
0.00244554
0
0
0
0
0
0
0
0
0
0
0
0
0
0
0
0
8.92666e-05
0.000116178
7.8217e-05
0.000102181
9.50268e-05
8.85428e-05
8.86885e-05
0.000116062
8.14828e-05
0.00014207
0.000167822
0.000108437
0.000305879
0.000275319
0.000332681
0.000193424
0.000396424
0.000361045
0.000389362
0.000389725
0.000268996
0.000332882
0.000359952
0.000274027
0.000106944
0.000182804
0.000198511
0.000168936
0.000174338
0.000238817
0.0003191
0.000309729
0.000277954
0.000275651
0.00029611
0.000272497
0.000305053
0.000319438
0.000266631
0.000249415
0.000249331
0.00023497
0.000378091
0.000363196
0.000371246
0.000334262
0.000353376
0.000381223
0.000380023
0.000351079
0.000417969
0.000397225
0.000326871
0.000308908
0.00032002
0.000332943
0.000306674
0.000328789
0.000321639
0.000357166
0.000326858
0.00020247
0.000283001
0.000131085
0.000185367
0.000231122
0.000240524
8.69202e-05
0.000355296
0.000194106
0.000329079
0.000385629
0.000403849
0.000380372
0.000256908
0.000376138
0.000232096
9.60046e-05
8.35242e-06
0.000126178
0.000141315
1.37356e-05
3.58199e-05
4.21745e-05
0.000114012
3.93469e-05
5.39222e-05
4.7426e-05
4.8025e-05
0.00010752
6.51365e-05
0.000116238
0.000131058
0.000231122
0.000234477
0.000106133
0.000273008
0.000291849
0.000144174
0.000286053
0.000265463
0.00030491
0.000263896
0.000290615
0.000254249
0.000274845
0.000263506
0.000255843
0.00023128
0.000236587
0.000226937
0.000253815
0.000226042
0.000218165
0.000235977
0.000207086
0.000217643
0.000241208
0.000229561
0.0002452
0.000208583
0.000229541
0.000213313
0.000216366
0.000230605
0.000244534
0.000221454
0.000249925
0.000251718
0.000280532
0.000262739
0.000245451
0.000257253
0.000271526
0.000260026
0.00025655
0.000246868
0.000259405
0.000247092
0.000240748
0.000250808
0.000230123
0.000229057
0.00022765
0.000210301
0.000209575
0.000207876
0.000209361
0.000191838
0.000190475
0.000190707
0.000177779
0.000191206
0.00021701
0.000313724
0.000159136
0.000142153
7.97646e-05
0.000124642
0.000189855
0.000303632
0.000280477
0.000377613
0.000405179
0.000183762
0.000333376
0.000393918
0.000382721
0.000322676
0.000347488
0.000421926
0.000278801
0.000323483
0.000315252
0.000325531
0.000203628
0.000526806
0.000272162
0.000260551
0.00105798
0.000296751
0.00022631
0
0
0
0
0
0
0.0125289
0.00346212
0.00428034
0.00374921
0
0
0
0
0.00749944
0
0
0
0
0
0
0
0
0
0
0
0
0
0
0
0
0.00106803
0
0.000907853
0
0
0
0
0.00839292
0
0.00647245
0.00494401
0
0.0048574
0.00498281
0.0129803
0
0
0
0
0
0
0
0
0
0
0
0
0
0
0
0
0
0
0
0
5.82957e-05
7.79374e-05
6.97237e-05
6.2494e-05
0.000115336
7.52711e-05
0.000156481
0.000150508
0.000166702
0.000182957
0.000190523
0.000186561
0.000206156
0.0001649
0.000146123
0.000100091
0.0001228
0.000202067
0.000176051
0.000191509
0.000156401
0.000128545
0
0
0.0039175
0.00288398
0
0
0
0
0.00692017
0
0
0
0
0
0
0
0
0
0
0.133333
0.000144232
0.00241315
0.000577643
0.000722292
0.000379155
0.000951197
0.000571932
0.00031666
0.000219311
0.000469146
0.000259634
9.9906e-05
0.000195199
9.95752e-05
0.000174675
0.000104293
8.87536e-05
0.000121732
7.67552e-05
0.000137758
7.31639e-05
8.11894e-05
3.62033e-06
3.78785e-05
0
0
0
0
0
6.36931e-05
0
0
3.55126e-05
0
0
0
0
0
0
0
0
0
0
0
0
0
0
0
0.539815
3.25036
0.000106075
8.2109e-05
9.88385e-05
9.58546e-05
0.000114983
0.000121002
0.000149206
0.000106392
9.89769e-05
0.000148578
0.00011964
0.000165266
0.000278773
0.000380535
0.000412837
0.000362476
0.000360686
0.000438799
0.0004371
0.000400042
0.000419198
0.000350195
0.000313913
0.000449077
0.000155459
0.000186754
0.000220197
0.00021681
0.000277235
0.000287875
0.000363954
0.000362949
0.000251187
0.000249075
0.000289604
0.000298806
0.000323508
0.000323612
0.000245325
0.000262864
0.000247939
0.000249584
0.000249722
0.000259572
0.00028021
0.00026493
0.000279824
0.000280543
0.000276583
0.000259154
0.000254116
0.000248568
0.000218757
0.000218744
0.000195012
0.000199129
0.000164737
0.000176278
0.000174499
0.000173476
0.000187521
0.000182349
0.000394113
0.000423704
0.000374194
0.000351483
0.000358521
0.000411452
0.000400713
0.000365311
0.000459313
0.000428472
0.000467372
0.000323191
0.00035207
0.000345783
0.00029543
0.000311325
0.000223687
0.000314612
0.000319309
0.00024775
0.000350912
0.000312619
0.000241375
0.000380397
0.000467979
0.000354529
0.000484263
0.00051539
0.000393375
0.000422398
0.000470286
0.000405991
0.00022902
0.000368529
6.20795e-05
0.000165545
0.000150534
2.24065e-05
3.4966e-05
8.37433e-05
8.95524e-05
3.52973e-05
4.14804e-05
1.34173e-05
2.81727e-05
7.22825e-05
0.000157643
5.92584e-05
0.000143667
0.000189355
0.00020143
0.00023983
0.000162355
0.000126747
0.000267829
0.000187492
0.000182645
0.000244669
0.000195772
0.000255778
0.000257544
0.000277675
0.000276226
0.000191376
0.000217212
0.000236768
0.000233978
0.000206396
0.000228526
0.000223512
0.000214282
0.000217485
0.000200832
0.000227294
0.000227275
0.000214152
0.00021866
0.000225961
0.000241818
0.000241128
0.000255519
0.000244612
0.00025319
0.000252321
0.000244556
0.000224654
0.000218864
0.000194086
0.00017198
0.000193215
0.00017103
0.000157518
0.000162114
0.000156028
0.000147026
0.000153119
0.000151195
0.00013502
0.000143925
0.000126452
0.000137078
0.000116177
0.000134403
0.000358258
0.000179791
0.000367087
0.000208253
0.000275276
9.34682e-05
0.000204907
0.000318942
0.000203337
0.000296593
0.000364351
0.000393876
0.000331732
0.000174868
0.000330329
0.000312649
0.000279023
0.000273591
0.000179187
0.000185181
0.000195037
2.49175e-05
0.000231072
0.000192575
0.000121501
0.0127828
0.00190981
0.000345853
0.000122469
0.000131029
0.000614306
0
0
0
0
0
0
0.116636
0
0.00360891
0
0
0.0102438
0
0
0
0
0
0
0
0
7.71168e-05
0
0
0
0
0
0
0
0
0
0
0
0
0
0
0
0
0
0
0
0
0
0
0
0
0
0
0
0
0
0
0
0
0
3.06509e-05
9.17575e-05
7.7171e-05
6.70356e-05
0.000134557
7.18283e-05
0.000171064
0.000134519
0.000185083
0.000161096
0.00015823
0.000212804
0.000185927
0.000245195
0.000151911
0.000133912
0.000133589
0.000139779
0.000171599
0.000212921
0.000164217
0.000154173
0.00233722
0
0.00018785
0
0
0
0
0
0
0
0
0
0
0
0
0
0
0
0
0.012963
0.00126087
0.000339029
0.000110993
0.000909987
0.000788436
0.000273936
0.000480257
0.000271781
0.000159361
0.000396359
0.000216911
0.000108181
0.000159507
7.24242e-05
7.8792e-05
0.000151564
0.000134273
0.000116874
0.000109475
0.000107066
4.91074e-05
5.99383e-05
7.33346e-05
7.2483e-05
0
0
0
0
0
0
0
0
0
0
0
0
0
0
0
0
0
0
0
0
0
0
0.500408
0
0
0
0
0
0
0
0
0.000105404
0.000131565
0.000114956
0.000111492
0.000119476
0.000109398
0.000128496
0.000129631
0.00017036
0.000170055
0.000129402
0.000176974
0.0001555
0.000204679
0.000221441
0.000359354
0.00044345
0.000491745
0.000429419
0.000425302
0.000515313
0.00047495
0.000502815
0.00038149
0.000440551
0.000492311
0.000414419
0.000243961
0.000239825
0.00025051
0.000294509
0.00033604
0.000321882
0.000449497
0.000433816
4.07662e-05
6.64262e-05
4.15097e-05
6.03084e-05
7.32891e-05
4.93173e-05
7.12085e-05
5.56283e-05
7.17466e-05
7.82216e-05
0.000110579
7.27474e-05
8.78579e-05
7.67077e-05
9.06532e-05
0.000112752
0.000110857
0.000106758
7.8824e-05
8.7985e-05
9.3721e-05
9.11114e-05
5.11633e-05
7.64366e-05
8.2748e-05
7.92047e-05
3.6471e-05
8.31774e-05
6.45488e-05
0.000162963
0.000162097
0.00014767
0.000146903
0.000125676
0.000124941
0.000239579
0.000250996
0.000281563
0.000300236
0.000327627
0.000326173
0.000257607
0.000244623
0.000256587
0.000268715
0.000251736
0.000242879
0.000286183
0.000285784
0.000279881
0.000272405
0.000262482
0.000256828
0.000233873
0.000225641
0.000201669
0.000203195
0.000189824
0.000196485
0.000172817
0.000174077
0.000184552
0.000185844
0.000395618
0.000414531
0.000402132
0.0004407
0.000405413
0.00035782
0.00036394
0.000428601
0.00030333
0.000424436
0.000524361
0.000109419
0.000103632
9.03478e-05
7.25398e-05
8.89644e-05
7.81998e-05
6.54984e-05
6.63864e-05
6.61891e-05
6.64251e-05
6.7031e-05
6.59883e-05
7.50166e-05
7.39636e-05
7.85337e-05
6.30103e-05
7.09593e-05
0.000100598
0.000475428
0.00032011
0.000481145
0.000321958
0.000268926
0.000233117
0.000329262
0.000265112
0.00041382
0.000391569
0.00046568
0.000333739
0.00065483
0.000381492
0.000650845
0.000803037
0.000672313
0.00063286
0.000413262
0.000493196
0.000633418
0.000328318
0.000201353
0.000136857
6.84543e-05
0.000115201
8.49203e-05
0.000199752
0.000106014
8.68038e-05
5.95651e-05
2.8248e-05
6.49185e-05
9.39381e-05
8.24389e-05
6.58907e-05
0.000157072
7.34289e-05
0.000197784
0.000109638
0.000111073
0.000232211
0.000147468
0.000224951
0.000249168
0.00015637
0.000133565
0.000229697
0.000146726
0.000243828
0.000189459
0.000241835
0.000229256
0.00017763
0.000238853
0.000172739
0.000195395
0.000246707
0.000206661
0.000223334
0.000196432
0.000221203
0.000199502
0.00019953
0.000207285
0.00022022
0.00021213
0.000233542
0.000233981
0.000233008
0.000237341
0.000238416
0.000249646
0.000231495
0.000208747
0.000235146
0.000186582
0.000206698
0.000177432
0.000164661
0.000145296
0.000154139
0.000126895
0.000137547
0.000120616
0.000185675
0.000331382
0.000358986
0.000472793
0.000225176
0.000238237
0.000359452
0.000408885
0.000285304
0.000331757
0.000362849
0.000270353
0.000478137
0.00050228
0.000223778
4.97856e-05
0.000506553
0.000244763
0.000316212
0.000110826
0.000275037
0.000135267
0.000221471
0.000205871
0.000510175
0.00115369
0.000505887
0.00148206
0.0076152
0.0228506
0.000738101
0.00180998
0.000931957
0.000603878
0
0
0
0
0
0
0
0
0.0529296
7.22414
0
0
0
0
0
0
0
0.196921
0
0
0
0
0
0
0
0
0
0
0
0
0.000896454
0
0
0
0
0.0118993
0
0
0
0
0
0
0
0
0
0
0
0
0
0
0
0
0
0
0
0.00202367
0
0
0
0
0.00222072
9.13989e-05
0.00013661
9.07706e-05
6.47271e-05
5.26443e-05
0.000111055
7.48143e-05
9.66548e-05
9.55442e-06
9.04641e-05
0.000121674
9.61225e-05
0.00010741
0.000173776
0.000227831
0.000155422
0.000228483
0.000158681
0.000171992
0.000222595
0.000199373
0.00019781
0.000205559
0.000223586
0.000193526
0
0
0
0
0
0
0
0
0
0
0
0
0
0.000229131
0.000373928
0.000243199
0
0
0
1.46829
0.00137156
0.00680363
0.0015647
0.000415687
0.000337529
0.00115853
0.000502601
0.000273042
0.000134066
0.000122049
0.000204738
0.000112868
3.12114e-05
7.54973e-05
0.00019983
0.000103054
0.000149619
9.6142e-05
0.000118096
0.000133543
0.000111037
6.44768e-05
0.000110272
0
0.000978987
0
0
0
0
0
0
0
0
0
0
0
0
0
0
0
0
0
0
0
0
0
0
0
0
0
0
0
0
0
0
0
0
0
0
0
0.000166556
0.000221612
0.000214425
9.92248e-05
0.000134203
0.000117899
0.000112105
0.000168365
0.000127981
0.000153993
0.000220454
0.00016941
0.000116995
0.000273607
0.000209749
0.000291376
0.000284899
0.000480872
0.000568741
0.000524856
0.000613873
0.000486779
0.000577741
0.000546592
0.000504347
0.000525942
0.000561286
0.00061882
0.000570595
0.000343297
0.000333611
0.000401906
0.000408383
0.000461393
0.000506035
0.000581628
0.000605966
6.59971e-05
4.83703e-05
9.57533e-05
7.38825e-05
5.87005e-05
9.58968e-05
0.000109226
3.48775e-05
0.00010697
0.000108497
9.04109e-05
9.47714e-05
7.98125e-05
7.41623e-05
5.22156e-05
7.38782e-05
0.000157535
0.000161147
0.00014581
0.000139757
0.000119551
0.000124494
0.000261011
0.000245377
0.000296792
0.000269856
0.000325244
0.000334899
0.000261166
0.000266816
0.000268061
0.0002925
0.00029285
0.0002551
0.000264424
0.000282688
0.000303509
0.000310742
0.000305553
0.000279409
0.000263643
0.000245022
0.000240793
0.000215349
0.000219106
0.000203688
0.000202231
0.000190648
0.000195818
0.000169793
0.000175616
0.000185261
0.000178375
0.000419312
0.000428609
0.000428663
0.000370214
0.000479179
0.000445319
0.00037929
0.000363016
0.000404837
0.000463479
0.000526907
0.000479604
9.19721e-05
0.00011082
0.000106722
7.79354e-05
8.91115e-05
8.29122e-05
7.07833e-05
7.37215e-05
6.7885e-05
7.19615e-05
6.82771e-05
6.4933e-05
7.09906e-05
7.94973e-05
8.04545e-05
9.49454e-05
8.77739e-05
9.30763e-05
8.44551e-05
7.75369e-05
7.82214e-05
7.75994e-05
7.2103e-05
9.15529e-05
0.000139455
0.000461384
0.00047981
0.000243551
0.000302097
0.000419611
0.000248493
0.000474041
0.000495751
0.0005752
0.000544239
0.000552112
0.000721035
0.000718413
0.000987358
0.000902629
0.000615613
0.000561626
0.000665206
0.000347663
0.000557739
0.000457366
0.00029684
7.98339e-05
0.000181901
6.66211e-05
0.000145803
0.000120651
0.000215725
2.0815e-05
9.19576e-05
3.76397e-05
3.66667e-05
3.3425e-05
7.93218e-05
0.000182741
9.17985e-05
0.000122407
0.000124364
0.000102977
0.000113785
0.000203185
0.000141943
0.000132884
0.000149282
0.000155511
0.000232604
0.000188579
0.000150021
0.000172391
0.000235254
0.000174378
0.000205091
0.000171513
0.000224143
0.000186609
0.000220461
0.000203828
0.000198488
0.000191603
0.000173297
0.000209191
0.000184966
0.000213962
0.000181818
0.000215802
0.000225485
0.000203162
0.000208161
0.000219975
0.000223963
0.00021953
0.000225771
0.000213164
0.000209035
0.000196824
0.000186176
0.000172593
0.00014639
0.000157103
0.000130316
0.00012872
0.000118201
0.00201587
0.000873795
0.000847341
0.000701824
0.000377514
0.000400544
0.000372774
0.000686903
0.000655196
0.000222302
0.00061346
0.000398449
0.000766289
0.000189597
0.000841648
0.000882847
0.000279145
0.00333477
0.00827324
0.00193873
0.000731142
0.000729118
0.00180737
0.000853996
0.0014664
0.0112997
0.00541866
0.00619736
0.0139713
0.0226271
0.0611823
0.0104923
0.0166028
0.00300939
0.00894409
0.0149061
0
0
0
0
0
0
0.288005
0
0
0.200561
0
0
0
0
0
0.500561
0
0
0
0
0.00318536
0
0
0
0
0
0
0
0.000874943
0.00369978
0
0
0.00543123
0.00658485
0
0
0
0
0.00524893
0
0.00681757
0
0
0
0
0
0
0
0
0
0
0
0
0
0
0
0
0
0.00347375
0
0
0
0
0
0
0
0
0.000201688
0.000205386
9.11203e-05
0.000157633
0.000180988
5.27041e-05
0.000131607
0.000115256
2.23291e-05
0.000163707
1.69765e-05
0.000120153
0.000122926
9.15755e-05
0.000156841
6.92976e-05
0.000109519
0.000180807
0.000127674
0.000206135
0.000244963
0.000182366
0.000241406
0.000224433
0.000251424
0.000253178
0.000259435
0
0
0
0
0
0
0
0.000254781
0.000198823
0.000302237
0
0
0
0
0.000393902
0.000423632
0.0266624
0.472483
0.0184254
0.00983084
0.000267561
0.000718982
0.000676705
0.00075691
0.000751763
4.41407e-05
8.31104e-05
0.000112581
0.000190579
0.000122188
0.000153275
0.000108215
8.59628e-05
0.000143768
0.000131475
0.00014612
0.000119173
0.000107736
0.000171106
0.000124176
0.000100504
0
0
0.000926441
0
0
0
0
0.00210615
0
0
0
0
0
0
0
0
0
0
0
0
0
0
0
0
0
0
0
0
0
0
0
0
0
0
0
0
0
0
0
0
0
0
0
0
0
0.000210317
0.000257159
0.000238115
0.000198189
0.000236337
0.000129419
0.000144722
0.000132814
0.000173098
0.000233308
0.000148304
0.000276175
0.000169035
0.00019966
0.000169382
0.000315974
0.000297917
0.000342487
0.000473606
0.000596095
0.000642416
0.000653514
0.000563173
0.000548813
0.000592404
0.000579235
0.000586635
0.000612565
0.000614449
0.000642007
0.000584155
0.000419183
0.00049891
0.000544651
0.00044151
0.000469596
0.000597677
0.00062069
0.000578142
4.20666e-05
3.44682e-05
0.000105664
0.000130986
0.000167203
0.000233492
0.000166653
0.000173853
0.00010105
0.000146164
0.000227326
0.000124189
0.00011792
8.31628e-05
0.000108462
0.000106449
9.85715e-05
9.53426e-05
7.44302e-05
7.70206e-05
6.17375e-05
4.71497e-05
0.000155357
0.000164215
0.000138816
0.000149306
0.00013077
0.000122466
0.000264625
0.000261843
0.000289251
0.000265082
0.000360366
0.000313567
0.000261543
0.000256968
0.000285651
0.000305437
0.000272773
0.000267465
0.000303557
0.000285386
0.000315046
0.000324482
0.000263777
0.000269409
0.000237222
0.000241959
0.000220471
0.000211098
0.000200688
0.00019531
0.000183555
0.000187007
0.000175342
0.000168008
0.000174791
0.000179122
0.00044362
0.000451372
0.000419319
0.000383971
0.000422341
0.000463431
0.000361743
0.000387419
0.000452563
0.000429751
0.000470265
0.000537336
0.000112349
0.000102018
9.51547e-05
8.05088e-05
8.65033e-05
8.64657e-05
8.1057e-05
8.26753e-05
8.30246e-05
7.55455e-05
7.72835e-05
7.85988e-05
8.38326e-05
8.11306e-05
8.27508e-05
8.24186e-05
8.27228e-05
0.000105698
9.25814e-05
7.80159e-05
0.000106969
8.20886e-05
8.93763e-05
0.000129064
0.000136232
0.000852852
0.000492294
0.00026951
0.00050187
0.000349541
0.000538186
0.00087049
0.000724952
0.000829147
0.000889288
0.00120455
0.00119751
0.0013869
0.00124992
0.000696414
0.0012524
0.000351793
0.000912029
0.000308206
0.000355134
0.000410602
0.000121433
0.000129209
0.000343156
8.91444e-05
0.000160991
0.000238939
0.000409498
0.000105895
5.55799e-05
6.46663e-05
3.89175e-05
9.27964e-05
7.22172e-05
0.000132801
6.22233e-05
0.000115011
0.000146068
0.000103228
0.000140476
0.000128885
0.000132391
0.000164703
0.000156724
0.000217113
0.000150112
0.000118205
0.000194852
0.000153902
0.000219801
0.000165907
0.000210301
0.000156209
0.000186607
0.000213462
0.000178747
0.000174972
0.000193399
0.000182916
0.000200742
0.000184439
0.00018701
0.000191776
0.000203492
0.000202471
0.000207404
0.000200662
0.000208025
0.000202247
0.000208901
0.000203337
0.000191974
0.000192648
0.000170826
0.00017227
0.000146029
0.000123905
0.000145325
0.00010272
0.0135687
0.00342927
0.0118101
0.0381362
0.00192586
0.00134137
0.00209334
0.00023596
0.000670582
0.000587198
0.000860152
0.000834801
0.000377313
0.000553028
0.00109874
0.00143181
0.000272938
0.000539387
0.0016145
0.00284389
0.00796392
0
0.164239
0.0305304
0.190316
0.0208202
0.0259227
0.0407283
0.0296003
0
0
0
0
0
0
0.235786
0
0
0
0
0
0
0.649543
0
0
0
0
0
0
0
0
0
0
0
0
0
0
0
0
0
0
0
0
0
0
0
0
0
0
0
0
0
0
0
0
0
0
0
0
0
0
0
0
0
0
0
0
0
0
0
0
0
0
0
0
0
0
0
0
0
0
0
0
0
0
0
0
0
0
0
0
0
6.90926e-05
0
0
0
0
0.000185838
3.51187e-05
0.000139964
0.000273442
0.000177442
0.000195132
9.69755e-05
0.000180837
0.000140583
8.13814e-05
0.000184189
0.000109136
0.000262209
0.000244978
0.000208964
6.16583e-05
0.000135491
0.000175771
0.000143751
8.18524e-05
0.000183721
0.000103721
0.000214243
0.000160066
0.000263205
0.000240812
0.000276131
0.000264267
0.00027783
0
0
0
0
0.000321027
0.00021336
0.000297352
0
0
0.000288737
0.000405923
0
0.0309342
0
0
0.000749259
0.000410227
0.0122043
0.0045089
0.00355813
0.00725344
0.00034054
0.000941751
0.000471135
0.000111374
0.000101318
0.00010589
0.000129698
0.00012038
0.000217948
0.00016206
0.000200526
0.000125531
0.000124501
0.000110877
0.000154243
0.000119254
0.000131025
0.00017116
0.000130044
0
0
0
0
0
0
0
0
0
0
0
0.265175
0
0
0
0.0213069
0.0189007
0.0950891
0
0
0.0961595
0
0
0
0
0
0
0
0
0
0
0
0
0
0
0
0.0100352
0
0.00373476
0
0
0
0
0
0
0
0
0
0
0
0.0236277
0
0
0
0
0
0
0.000239514
0.000268814
0.00032306
0.000323543
0.000280023
0.000289311
0.000268646
0.000151896
0.000158802
0.000171652
0.000122601
0.00025383
0.000171112
0.000312359
0.000320056
0.000218522
0.00021598
0.000390509
0.000491914
0.000461697
0.000353588
0.000636968
0.000614215
0.000654662
0.000651234
0.000718632
0.000657261
0.000800419
0.000671418
0.00068879
0.000712374
0.000750215
0.000874917
0.000360545
0.000472795
0.000577297
0.000456442
0.000617651
0.000682665
0.000846536
0.000815863
0.000118087
0.000205943
2.86271e-06
0.000457586
0.000271875
0.000342529
0.000353389
0.000510831
0.000206238
0.00026981
0.000223297
0.000163308
0.000175038
0.000108774
0.00011269
9.19348e-05
9.975e-05
8.49783e-05
9.61518e-05
0.000158218
5.7559e-05
0.000166758
0.000154866
0.000139755
0.000150938
0.000130247
0.000125518
0.000266139
0.000250136
0.000306806
0.000272687
0.000296913
0.000350327
0.000256134
0.00027879
0.00029609
0.000317607
0.000272344
0.000296318
0.00030731
0.000276623
0.000337922
0.00031642
0.000267542
0.00024677
0.000221717
0.000238772
0.000211495
0.000201632
0.000190619
0.000188444
0.000184179
0.000177319
0.000166552
0.000172015
0.000180582
0.0001705
0.000450863
0.000425001
0.000387589
0.000419242
0.000428843
0.000387628
0.000408336
0.000355189
0.000457787
0.000450325
0.000476915
0.000534546
0.000681896
0.000621155
0.00059878
0.000122146
9.89255e-05
8.20885e-05
9.28929e-05
8.48569e-05
8.75875e-05
8.06398e-05
9.79126e-05
9.51628e-05
0.000103487
8.25485e-05
9.54177e-05
8.35379e-05
9.11264e-05
9.65384e-05
9.31885e-05
9.70282e-05
9.99876e-05
0.000103197
0.000105626
8.31519e-05
0.000121884
9.15913e-05
9.43812e-05
8.22212e-05
0.000130396
0.00179012
0.00083876
0.00104756
0.000674036
0.000643597
0.000770359
0.000762027
0.00100467
0.00106801
0.00128459
0.00193543
0.00200929
0.00138656
0.00174744
0.001028
0.000754382
0.000923017
0.000397818
0.000329926
8.26247e-05
0.000333532
0.000160568
0.000424351
4.19497e-05
2.87977e-05
0.000298729
0.000197261
0.000387127
2.86249e-05
0.000142008
0.000134762
0.000147301
8.81364e-05
9.65135e-05
9.26741e-05
0.000108243
0.000123355
0.000105139
0.000103577
9.4682e-05
9.49603e-05
0.000113765
0.000115127
0.000182583
0.000181856
0.000149944
0.000168972
0.000145315
0.000174999
0.000169688
0.000193122
0.000166985
0.000173005
0.000171178
0.000187705
0.000181358
0.000184966
0.000196661
0.00019187
0.000179975
0.000183587
0.000171688
0.000194855
0.000182296
0.000186899
0.000193747
0.000194063
0.000198829
0.000199101
0.000189982
0.000190785
0.00018102
0.000181282
0.000160678
0.000136919
0.000164103
0.000114344
0.000140638
0.0895323
0
0.0172245
0.0339811
0.0514098
0.0511452
0.0614694
0.00674123
0.12601
0.00120864
0.000873412
0.0194202
0.00259608
0.000475089
0.00078083
0.000867655
0.000794824
0.000897969
0.00148714
0.00252277
0.00192918
0
0
0
0
0
0.0641086
0
0
0
0
0
0
0
0
1.98791
0
0
0
0.00718974
0
0
0
0
0
0
0
0
0
0
0
0
0
0
0
0
0
0
0.00998458
0
0
0
0
0
0.00184441
0.00243834
0.00397322
0
0
0
0
0
0
0
0
0
0
0
0
0
0
0
0
0
0
0
0
0
0
0
0
0
0
0
0
0
0
0
0
0
0
0
0
0
0
0
0
0
0.00545349
0
0.00285861
0
0.010233
0
0
0
0.000147101
0.000121995
0.000137659
2.09739e-05
7.81779e-05
0.000108176
0.000153523
0.000155323
0.000126083
0.000102989
0.000184071
0.000277351
9.87364e-05
9.96332e-05
5.87488e-05
0.00025956
5.87097e-05
0.00014057
0.000168823
4.99296e-05
7.87301e-05
8.47722e-05
0.000117997
8.68173e-05
0.000133704
7.76755e-05
0.000197621
0.000149868
0.00020666
0.000224277
0.000229086