/*--------------------------------*- C++ -*----------------------------------*\
  =========                 |
  \\      /  F ield         | OpenFOAM: The Open Source CFD Toolbox
   \\    /   O peration     | Website:  https://openfoam.org
    \\  /    A nd           | Version:  8
     \\/     M anipulation  |
\*---------------------------------------------------------------------------*/
FoamFile
{
    version     2.0;
    format      ascii;
    class       volScalarField;
    location    "12120";
    object      alpha;
}
// * * * * * * * * * * * * * * * * * * * * * * * * * * * * * * * * * * * * * //

dimensions      [0 0 -1 0 0 0 0];

internalField   nonuniform List<scalar> 
526318
(
0.000480945
0.000314861
0.000450168
0.000456574
0.00028038
0.000484027
0.000781704
0.000765378
0.000482162
0.000411907
0.000597246
0.000312845
0.000622282
0.000966699
0.0010489
0.000793393
0.000730498
0.000329472
0.000374723
0.000187169
0.000485141
0.000504438
0.00145602
0.000700031
0.000652123
0.00109398
0.000371802
0.00108954
0.000545261
0.000446313
0.000441074
0.000252939
0.000576612
0.000880353
0.000754525
0.000257397
0.0010349
0.000111192
0.000143515
0.000606181
0.000920482
0.000434332
0.000689517
0.000586186
0.00370472
0.00321305
0.00162584
0.000848743
0.000331605
0.00160463
0.00113563
0.000789629
0.000681267
0.000611556
0
0.00549191
0.00213628
0.0205821
0.00035277
0.000488432
0.000440188
0.000342959
0.000625292
0.000507742
0.000356214
0.000235646
0.000518248
0.000282661
0.000694311
0.000559301
0.000445844
0.000351527
0.000852042
0.00145085
0.000514216
0.000889198
0.00131278
0.0016507
0.00177048
0.00161352
0.00110826
0.000956181
0.000774654
0.00199584
0.00124704
0.000328823
0.000298325
0.000643848
0.000133577
0.000566143
0.0002271
0.00107697
0.00120158
0.00103607
0.000930078
0.00112883
0.000291722
0.000600318
0.000624596
0.000821863
0
0
0
0
0
0
0.00338695
0.0615003
0.00213809
0.00104558
0.00145845
0.00109801
0.000742228
0.000713869
0.00056644
0.000501899
0.000342189
0.0005004
0.000367597
0.00128095
0.000711929
0.000920584
0.000684887
0.00161539
0.000857654
0.0021446
0.000765985
0.00216174
0.000641789
0.00288689
0.00163746
0.00166093
0.00371231
0.0025768
0.00247951
0.00683249
0.00437154
0.00528847
0.00449689
0.00943213
0.00209948
0.00230452
0.00458663
0.00819552
0.00830235
0.00806109
0.0115554
0.00514706
0.00473718
0.00648424
0.00559988
0.00318995
0.00179824
0.0122621
0.00572152
0.0282695
0.0051946
0.00598861
0.0160617
0.170666
0.00524154
0.0136837
0.0150633
0.000875662
0.000475913
0.000898879
0.000274466
0.00173762
0.000243716
0.000759561
0.00113651
0.00175679
0.00176048
0.000651155
0.00263431
0.000943199
0.00207392
0.00214913
0.000928856
0.000638563
0.000992758
0.000536206
0.00151673
0.00455534
0.000969674
0.00143394
0.00438084
0.00171231
0.00369699
0.00376622
0.00396817
0.00459905
0.00563044
0.00501765
0.00453826
0.000874258
0.00615382
0.00392886
0.00245548
0.00876216
0.00557062
0.0174416
0.0121192
0.00354978
0.00784768
0.0142749
0.0147398
0.0134342
0.0121243
0.0121009
0.000513572
0.000832474
0.000499715
0.000713716
0.00107868
0.000364638
0.000525575
0.000424917
0.000295436
0.00418353
0.00424393
0.00378168
0.00308049
0.00128066
0.00291489
0.000306599
0.00170367
0.00144099
0.000131663
0
0
0
0.00636358
0
0
0
0
0
0
0.000406485
0.00054911
0.000434215
0.00032638
0.000392676
0.000507337
0.000986344
0.000741695
0.000915891
0.00118537
0.000871387
0.000950064
9.14207e-05
0.000784626
0.000389438
0.000604394
0.000435462
0.000167251
0.000624363
0.000736548
0.00103626
0.00120963
0
0
0
0
0
0
0
0
0.00380557
0.0120147
0.00190802
0.00163436
0.000958656
0.000794345
0.000577829
0.000473479
0.000296351
0.000312769
0.000196471
9.74725e-05
0.000454149
0.000387004
0.00100565
0.00190933
0.00170865
0.00316215
0.000746325
0.00814871
0.00147398
0.0050351
0.00380408
0.00621282
0.155516
0.0209536
0.0208938
0.0146285
0.0113081
0.0152831
0.0181481
0.00873792
0.0847629
0.0599708
0.0270602
0.0104979
0.0288125
0.00561994
0.0056271
0.0130448
0.0193611
0
0.302758
0
0
0
0
0.0150998
0.00854022
0.0086099
0.0103098
0.000159707
0.000960017
0.00201634
0.0015785
0.000869879
0.00196097
0.00207464
0.00143646
0.0014764
0.00268879
0.00481619
0.00370511
0.00503085
0.000957847
0.0012609
0.00085304
0.00103573
0.000302645
0.00189082
0.00379041
0.00184071
0.000400074
0.00120948
0.00183611
0.00236441
0.00370586
0.00527066
0.00199437
0.00339543
0.00252808
0.00222204
0.00357173
0.00376763
0.00357686
0.00673705
0.00585291
0.00627568
0.00280356
0.00335072
0.00553616
0.00678835
0.00349543
0.0103258
0.0123011
0.00972209
0.00263845
0.00331872
0.00343185
0.0038508
0.00466635
0.00124045
0.00371072
0.00117925
0.0023321
0.00219373
0.00217649
0.00129299
0.000698841
0.000488003
0.00157282
0.000662964
0.000720856
0.000781938
0.00102503
0.00093668
8.96164e-05
0.00102247
0.000928981
0.0283991
0.0186976
0.0256668
0.131804
0.0113327
0.00254744
0.00359519
0.00217945
0.0017087
0.000846141
0.00214157
0
0
0
0
0
0
0
0
0
0
0
0
0
0
0
0
0.000339474
0.000401748
0.000240521
0.000183497
0.000545073
0.00041177
0.000521515
0.000957403
0.000391241
0.000644512
0.000123352
0.000753205
0.000445014
0.000232391
0.000385191
0.000465682
3.73241e-05
0.000472752
0.000840788
0.000717216
0.000706568
0.00124264
0
0.003742
0.00124113
0
0
0
0
0.00138863
0.00310431
0.00268945
0
0
0
0
0
0
0
0
0
0
0
0
0
0
0.041545
0
0.00458264
0.00185383
0.00149149
0.000747334
0.000358038
0.000806999
0.000555951
0.000253042
0.000338164
0.000194905
0.000271291
6.47087e-05
0.000700422
0.00250753
0.00276939
0.00229643
0.00460422
0.00412623
0.00610889
0.00520137
0.00164051
0.00545487
0.0159017
0.0153872
0
0
0.0082296
0.053818
0
0.0113724
0.0659204
0.0202508
0
0
0
0
0
0
0
0
0
0
0
0.000657412
0.00364002
0.00197158
0.00365691
0.00188266
0.00114085
0.00109651
0.000777769
0.0051236
0.00240568
0.00511852
0.00132527
0.00404724
0.0429407
0.00291514
0.00157981
0.00400106
0.00336224
0.00676618
0.00471023
0.00295705
0.00441341
0.00335429
0.00359752
0.00467775
0.00663131
0.00916475
0.0091864
0.00678961
0.00480629
0.0152603
0.00334315
0.0176169
0
0
0.00779019
0.00598506
0.00206758
0.00748968
0.00571156
0.00442358
0.00553478
0.00282016
0.00461143
0.00151276
0.00299042
0.00515957
0.00518098
0.00485851
0.00327123
0.00354105
0.00194961
0.000840717
0.00288192
0.00574546
0.0067818
0.00269217
0.00333028
0.00169901
0.00443552
0.00649339
0.00154266
0.00292262
0.00327871
0.00172739
0.00223986
0.00391617
0.00268122
0.00174567
0.00224119
0.00123128
0.0019269
0.000652915
0.00196515
0.000981372
0.000786931
0.0016052
0.000761191
0.00142779
0.00194892
0.00167099
0.00158863
0.00265799
0.00126767
0.00283422
0.00302732
0
1.81029
0.068524
0.0135207
0.00764312
0.0010316
0.0060734
0.00831889
0.0138686
0.0162244
0
0
0
0
0
0
0
0
0
0
0
0
0
0
0
0
0
0
0
0
0
0
0
0
0
0
0.00794001
0
0.00127281
0
0.00329398
0.00858929
0
0
0
0
0
0
0
0
0
0
0
0
0
0
0.00030951
0.000255103
0.000286958
0.000152062
0.000228066
0.000366362
0.000468062
0.000274101
0.000332044
0.000188746
0.000337559
0.000275726
0.000162602
7.9779e-05
3.70791e-05
0.00019135
0.000460067
0.000357322
0.00121527
0.000701109
0.00268272
0.000985619
0
0
0
0
0
0
0
0
0.0241549
0
0
0
0
0
0
0
0
0
0
0
0
0
0
0
0
0
0
0
0
0
0
0
0
0
0.00525685
0.0270938
0.000769879
0.00309376
0.00160893
0.000424703
0.00061832
0.000288224
0.000395546
0.000458064
0.000381493
0.000456692
0.000299328
0.000360778
0.00303521
0
0
0
0
0
0
0
0
0
0
0
0
0
0
0
0
0.000397013
0.00189951
0.0030596
0.00238025
0.00435126
0.00715369
0.0151319
0.0226069
0
0
0
0
0
0
0
0
0
0.180657
0
1.71162
0
0
0
0
0
0
0
0
0
0
0
0
0.001065
0.00135648
0.00111336
0.00167803
0.000381999
0.00219769
0.00151937
0.000756965
0.000694433
0.000809225
0.00758366
0.00536736
0.00174658
0.00117859
0.00631201
0.00969864
0.0063691
0.00771396
0
0.105398
0.0158665
0
0.00622255
0.00917019
0.000318323
0.0104905
0.00989123
0.0059059
0.00883051
0.00729149
0.0579259
0.0374024
0
0.0123247
0.0114621
0.0295704
0
0
0
0
0
0.00489442
0.00609288
0.019218
0.00422915
0.00309134
0.00318889
0.00304625
0.00493445
0.00345617
0.00501078
0.00434852
0.00342245
0.000887309
0.000926944
0.00412469
0.00118282
0.00263679
0.00297605
0.00311147
0.00437592
0.00284101
0.0025434
0.00448294
0.00304222
0.00392599
0.00162533
0.00371976
0.00359421
0.00314716
0.001406
0.00240799
0.00171144
0.00197475
0.00120315
0.00124188
0.00093736
0.00128929
0.000805441
0.00131584
0.000515891
0.000595631
0.00081453
0.00062187
0.000607143
0.00060373
0.000541709
0.000789844
0.00072432
0.000445866
0.000494288
0.000332606
0.000350693
0.000257287
0.000332872
0.000424392
0.000330505
0.000430282
0.000297066
0.000306759
0.000377843
0.000457788
0.000346552
0.00044357
0.000297155
0.000518443
0.000361108
0.000462643
0.0004001
0.000469056
0.000376175
0.000443909
0.000407708
0.000486903
0.000528311
0.000426685
0.000454701
0.000522005
0.000569187
0.000469025
0.000424618
0.00418877
0.000557488
0.00248783
0.00194129
0.00137397
0.00276652
0.00381042
0.0425874
0.00592084
0
0
0
0
0
0
0
0.0239089
0
0
0
0
0
0
0
0
0
0
0
0
0
0
0
0
0
0.00677133
0
0
0
0
0
0
0
0
0.00844745
0
0
0
0
0
0
0
0
0
0
0
0
0
0
0
0
0
0
0
0
0
0
0
0
0.0049942
0.0174106
0
0.00443758
0
0
0
0
0
0
0
0
0
0
0
0
0
0
0
0
0
0
0
0
0
0
0
0.000158241
0.000147122
0.000270744
0.000366542
0.000254805
0.000216962
0.00034504
0.000413143
0.000575918
0.000316875
0.000270187
0.00022566
0.000342845
0.00042186
0.00138565
0.000932939
0.00214987
0.000576549
0.000682993
0.000399204
0.00112645
0.00110095
0
0
0.0236419
0.01758
0
0
0
0
0.0131253
0
0
0
0
0
0
0
0
0
0
0
0
0
0.00961631
0.0079798
0
0
0
0
0.0388028
0
0.000541731
0.00120005
0.00203532
0.00121035
0.00138863
0.000904468
0.000770729
0.00070328
0.000605992
0.00063542
0.000569795
0.000632644
0.000539766
0.000463826
0.0510748
0
0
0
0
0.000119148
0
0
4.42576e-05
0
0
0
0
0
0
0
0
0
0
0
0
0
0
0
0.522109
3.27133
0.00345715
0.00437729
0.00541383
0.00606281
0
0.135104
0
0
0
0.0046612
0
0
0
0
0
0
0
0
0.0466075
0.239459
0
0
0
0
0
0
0
0
0
0
0.00131118
0
0.00073938
0.000841421
0.000934845
0.000132682
0.000585836
0.0019943
0.000468737
0.00113987
0.000620089
0.000335078
0.0005892
0.000686553
0.000403325
0.000588779
0.000543078
0.000411883
0.000500351
0.000527595
0.000529454
0.000590446
0.000584797
0.000518873
0.000609621
0.000534636
0.000483551
0.00056856
0.000524658
0.000439258
0.000559734
0.00065731
0.00190959
0.00818653
0.00182148
0.000219419
0.0125871
0.00719817
0.00347088
0.00619381
0
0.0322782
0
0.0225801
0
0.00555009
0.0214668
0.0155759
0.0200727
0.00828075
0.0474244
2.66834
0
0
0
0
0
0
0
0
0
0
0
0
0.0247891
0
0.00373227
0.0438022
0.01269
0.00436787
0.00394859
0.00724869
0.0015729
0.00110257
0.000474033
0.000680789
0.00184497
0.00129952
0.00130687
0.00252799
0.00380951
0.00299843
0.00310132
0.00273885
0.00251539
0.00351792
0.00228793
0.0022343
0.00135426
0.00156082
0.00195601
0.00135287
0.000958473
0.00119728
0.00145532
0.00177271
0.000697443
0.00121816
0.00102388
0.000660658
0.000691976
0.000530801
0.0006159
0.000469303
0.00066419
0.000365113
0.000427388
0.000604798
0.000483991
0.000388936
0.000480195
0.000424226
0.000384614
0.000409879
0.000355796
0.000447915
0.000387913
0.000411198
0.000378647
0.00035665
0.000356876
0.000365351
0.000368645
0.000400533
0.000457311
0.000375796
0.000463535
0.000488774
0.00050236
0.000508441
0.000434422
0.000493982
0.000523419
0.000514479
0.000539396
0
0
0.00515808
0.0158233
0
0.0367478
0.00871782
0.0106014
0.0070735
0
0
0
0
0.355452
0
0
0
0
0
0.0151106
0.0112187
0
0
0
0
0
0
0
0
0.00566616
0.0196993
0
0
0
0.0081483
0
0
0
0
0
0
0
0.00921387
0
0
0
0
0
0
0
0
0.000116476
0
0
0
0
0
0
0
0
0
0
0
0
0
0
0
0
0
0
0
0
0
0
0
0
0
0
0
0
0
0
0
0
0
0.000309207
7.79649e-05
0.000409114
0.000348918
0.000201002
0.000323126
0.00034047
0.00048762
8.695e-05
0.000333032
0.000262915
0.000364184
0.000154066
0.00109025
0.000781581
0.00485617
0.00880261
0.00075027
0.000372023
0.000604912
0.000589356
0.000130361
0.190903
0
0.0068014
0
0
0
0
0
0
0
0
0
0
0
0
0
0
0
0
0
0
0
0
0
0
0
0
0
0.00914772
0
0.00116213
0.000760845
0.000560853
0.000494762
0.000625898
0.000506411
0.000622357
0.000727625
0.000484984
0.00059293
0.000370108
0.000300038
0.000508288
0.0006441
0
0
0
0
0
0
0
0
0
0
0
0
0
0
0
0
0
0
0
0
0
0
0.474473
0
0
0
0
0
0
0
0
0.0063817
0.0100038
0.0325019
0
0
0
0
0
0.00423141
0.0341363
0.129195
0
0
0
0
0.00128551
0.00206012
0
0
0
0
0
0
0
0
0
0
0
0
0
0
0
0
0
0
0.000212068
0.000276689
0.000265949
0.00025766
0.000353014
0.000273352
0.000375394
0.000376594
0.000348561
0.00027254
0.000328721
0.000275913
0.000304839
0.000296328
0.000413089
0.000512053
0.000477121
0.000451504
0.000344765
0.000460921
0.000465589
0.00039934
0.000288416
0.000404198
0.00038909
0.000335858
0.000330735
0.000300484
0.000269668
0.000507721
0.000542071
0.000539224
0.000488874
0.000507176
0.000491165
0.000726352
0.000730211
0.000815785
0.00115811
0.00209699
0.000939519
0.000415685
0.000402287
0.000631909
0.000513088
0.000570937
0.000599573
0.000667349
0.000531269
0.000577071
0.00053653
0.000610545
0.00062511
0.000647235
0.000621029
0.000661849
0.000492791
0.000657232
0.000524506
0.000646257
0.000612121
0.000684913
0.000641794
0.00378301
0.00153044
0.010399
0.00471317
0.00268153
0.0014738
0.000819653
0.0185741
0.00463379
0
0
0.000416913
0.000407119
0.000347265
0.000254335
0.000321802
0.000276721
0.000234843
0.000279566
0.000208528
0.000303338
0.000345778
0.000355859
0.000306392
0.000285943
0.000204014
0.000220399
0.000143097
0.000133161
0
0
0.00259712
0.0188864
0.503952
0.0226293
0.0698368
1.43716
0.00226729
0
0.00604563
0.00909812
0
0
0
0
0
0
0
0
0
0
0.00702588
0
0.0405475
0
0.00222488
0.0142255
0.00469468
0.00168641
0.00219508
0.00405806
0.00192154
0.00327141
0.000867368
0.00237397
0.00102643
0.00395321
0.00208005
0.00324421
0.00327119
0.00300949
0.00257101
0.0030054
0.000615516
0.00169243
0.00200833
0.00200234
0.001658
0.00130383
0.000810932
0.000919613
0.00119327
0.00176569
0.000850338
0.00108787
0.00151157
0.000479307
0.00079958
0.000571178
0.000714483
0.00055708
0.00056288
0.000747422
0.00060934
0.000467448
0.000502408
0.000453005
0.000442079
0.000432174
0.000433815
0.000377194
0.000365931
0.000407314
0.00032988
0.000334931
0.000314231
0.000308838
0.000330278
0.000341202
0.000391454
0.000325887
0.0004209
0.000369315
0.000401708
1.12728
0
1.57183
0
0
0
0
0
0
0
0
0
0
0
0.00745629
0
0
0
0
0.0231927
0
0
0
0
0
0
0
0
0.00320635
0.0036346
0.0347081
0
0.000477759
0
0
0
0
0
0
0
0
0
0.0119014
0
0
0
0
0
0
0
0
0.207291
0
0
0
0
0
0
0
0
0
0
0
0
0.000234222
0
0
0
0
0.00626842
0
0
0
0
0
0
0
0
0
0
0
0
0
0
0
0
0
0
0
0.00254591
0
0
0
0
0.00289824
0.000219996
0.000400324
0.000264804
3.01347e-05
0.000212892
0.000150817
0.000129456
0.000308312
0.000308583
0.000405775
0.000156625
0.000388382
0.000361782
0.000172376
0.000376786
5.93026e-05
0.00067298
0.000375701
0.000602542
0.000372659
0.000780764
0.00330923
0.00130399
0.000397049
0.000738597
0
0
0
0
0
0
0
0
0
0
0
0
0
0
0
0
0
0
0
0
0
0
0
0
0
0
0
0.00215832
0.00119437
0.000522349
0.00191821
9.05937e-05
0.000424284
0.000288061
0.00140595
0.000233665
0.000291031
0.000206665
0.000433342
0.000411333
0.000192025
7.12476e-05
0.000401624
0
0.00104988
0
0
0
0
0
0
0
0
0
0
0
0
0
0
0
0
0
0
0
0
0
0
0
0
0
0
0
0
0
0
0
0
0
0
0
0.00518565
0.0017792
0.0137404
0.105554
0.150403
0
0
0
0
0
0
0.128553
0.39097
0
0
0
0
0
0
0
0
0
0
0
0
0
0
0
0
0
0
0
0
0
0
0
0
0.000297523
0.000222593
0.000205362
0.000230079
0.000455246
0.000192382
0.000326234
0.000396905
0.000480402
0.000483015
0.000473218
0.000515647
0.000451407
0.000443939
0.00034091
0.000332029
0.000641584
0.000578848
0.000547273
0.000548285
0.0004993
0.000513362
0.000799957
0.000794837
0.00119817
0.000760878
0.000995783
0.00132851
6.88311e-05
0.00038072
0.000691849
0.000650597
0.000707098
0.000638219
0.00065418
0.00062528
0.000694397
0.000667736
0.000803107
0.000611456
0.000661459
0.000702481
0.000667749
0.000711849
0.000581899
0.000541016
0.000605606
0.0004696
0.000598997
0.000660551
0.000697065
0.000657138
0.000608507
0.00991439
0.00884176
0.000972543
0.0018982
0.00346099
0.00452736
0.000753989
0.00172711
0.00488056
0.0459969
4.96155
0.0970011
0.000257786
0.000312745
0.000295348
0.000193838
0.000268923
0.000239471
0.000204067
0.000269153
0.000238969
0.000342887
0.000304868
0.000359165
0.000346455
0.000170967
0.000294098
0.000167374
0.00014862
0.000126485
0.000135556
0.0001631
0.000262241
0.000264948
0.000104478
0.000192385
0.000117685
0.00391043
0.00949704
0.0053377
0
0
0
0
0
0
0
0
0
0
0
0
0
0
0
0
0
0.00389942
0
0
0
0.0329536
0.0173287
0.352761
0.0758127
0.00308236
0.00547974
0.00636218
0.000952429
0.00117372
0.0019766
0.00106889
0.00244634
0.00331161
0.00141902
0.00284015
0.00145936
0.00266347
0.00216864
0.00221166
0.00207721
0.00158138
0.00107999
0.00161743
0.0014307
0.00224544
0.00177743
0.00115219
0.000909963
0.00161207
0.00105426
0.00128321
0.000846863
0.000955398
0.000579979
0.000737195
0.000797679
0.000757101
0.00075733
0.000528838
0.00049645
0.00041942
0.000405748
0.000444824
0.000374012
0.000386178
0.000395005
0.000324446
0.000274922
0.000313278
0.000214736
0.000226257
0.000216506
0.000261077
0.000309283
0.000229634
0.000335827
0.000242972
0.000292631
0
0
0
0
0
0
0
0
0
0
0
0
0
0
0
0
0
0
0
0
0
0
0
0
0
0.00274058
0
0
0.00841066
0.00221395
0
0
0
0
0
0
0
0
0
0
0
0
0.278133
0
0
0
0
0
0
0
0
0.100329
0
0
0
0
0.00392254
0
0
0
0
0
0
0
0.00494679
0.0049874
0
0
0.00476875
0.00712183
0
0
0
0
0.00703365
0
0.00959982
0
0
0
0
0
0
0
0
0
0
0
0
0
0
0
0
0
0.00441037
0
0
0
0
0
0
0
0
0.000284856
0.000178134
0.000170129
0.000211233
0.000176724
8.76094e-05
7.68158e-05
0.000195479
0.000221995
0.000201215
0.000627783
0.000133712
0.000655493
0.000355688
0.000189437
0.000346097
0.000172715
0.000356472
0.000331629
0.000333649
0.00196069
0.000545881
0.00129074
0.00159145
0.00157652
0.00301625
0.00234431
0
0
0
0
0
0
0
0.00172497
0.0234232
0
0
0
0
0
0
0
0
0
0
9.88106e-05
0
0
0
0
0
0.000242086
0.000401899
0.000165645
0.00141764
0.000539941
0.00175914
0.000975293
0.000577655
0.000256729
0.000533971
0.000710499
0.00041757
0.000336772
0.000326573
0.000272045
0.000479832
0
0
0.000989191
0
0
0
0
0.000157117
0
0
0
0
0
0
0
0.0114345
0
0.00442324
0.00852719
0
0
0
0
0
0
0
0
0
0
0
0.00321595
0
0
0
0
0
0
0
0
0
0
0
0
0
0.00400375
0.013159
0.00957622
0.00424759
0
0
0
0
0
0
0.00109928
0
0
0.00125618
0
0
0
0
0
0
0
0.00323658
0
0
0
0
0
0
0
0.00290642
0
0.00463616
0
0
0
0
0
0
0
0.00384994
0.000177875
0.000321358
0.000223555
0.000476122
0.000317501
0.000483553
0.000482707
0.000570814
0.000357246
0.000205664
0.000449718
0.0004336
0.000104431
0.000175463
0.000464766
0.000477411
0.000479171
0.000486213
0.000444563
0.000459448
0.000439681
0.000360274
0.000686327
0.00064999
0.000588706
0.00055119
0.00051324
0.0004918
0.000695137
0.000557037
0.00125776
0.000661148
0.000455398
0.000827555
0.00070139
0.000560107
0.000645748
0.000766663
0.000503441
0.000758497
0.000659611
0.000692427
0.000905631
0.000802427
0.000664672
0.000678378
0.000677895
0.000693383
0.000633447
0.000490476
0.00058379
0.000420114
0.000403899
0.000518839
0.000663848
0.000687253
0.0005253
0.000494671
0.00776385
0.0136115
0.0015015
0.000485081
0.00194571
0.00221255
0.00149151
0.00177795
0.00947185
0.00785258
0.010846
0
0.000186391
0.000160097
0.000128225
0.000131529
0.000173571
0.000200278
0.000130917
0.000234373
0.000237834
0.000310724
0.000296007
0.000304764
0.000312857
0.00024601
0.000207372
0.000206585
0.000117804
8.21205e-05
0.000117013
0.000225957
0.000168921
0.000283389
0.000278981
0.000227692
0.000170243
0
0
0
0
0
0
0
0
0
0
0
0
0
0
0
0
0.00391625
0
0
0
0
0
0
0
0.0140467
0.0344407
0.0153129
0
0.00317746
0.00534688
0.00473272
0.00147791
0.00263973
0.000785479
0.00152351
0.00211079
0.00171621
0.00103361
0.00251703
0.00154149
0.00236038
0.00203605
0.00163629
0.00162209
0.00155685
0.00209182
0.00177924
0.00132669
0.00199614
0.00115917
0.00110923
0.000964348
0.00123729
0.00112925
0.000786576
0.000900506
0.000875638
0.000868813
0.000984999
0.000692943
0.00062817
0.000486846
0.000476065
0.000434501
0.000408536
0.000397776
0.000310272
0.000359959
0.000295316
0.000228831
0.000140818
0.000173615
0.000115103
0.000138754
8.8938e-05
0.000180979
0.000247735
8.17681e-05
7.83656e-05
0
0
0.140962
0.0001993
0
0
0
0
0
0
0
0.0100909
0.0105768
0.00998417
0.0199735
0.00727411
0.00884396
0
0.0073471
0.300171
0
0
0
0.0097804
0
0.00978341
0.00854986
0
0
0
0
0
0
0
0
0.000100105
0
0
0
0
0
0
0.574219
0
0
0
0
0
0
0
0
0
0
0
0
0
0
0
0
0
0
0
0
0
0
0
0
0
0
0
0
0
0
0
0
0
0
0
0
0
0
0
0
0
0
0
0
0
0
0
0
0
0
0
0
0
0
0
0
0
0
0
0
0
0
0
0
0
0
0
0
0
0.000136987
0
0
0
0
0.000143979
0.00017802
0.000149104
8.4362e-05
0.000128401
0.000158862
0.000209447
9.69082e-05
0.000104869
4.15546e-05
6.81758e-05
5.66904e-06
0.000270525
0.00039551
8.77602e-05
0.000461381
0.00123596
0.000443475
0.000437498
0.00033012
0.000709454
0.000105649
0.00143076
0.000764267
0.00216083
0.00441914
0.0072569
0.00492708
0.00934135
0
0
0
0
0
0.0212208
0
0
0
0.0318675
0
0
0
0
0
0
0
0.00623808
0.0114126
0
0.0043878
0
0
0
0.000309335
0.000381987
0.000647676
0.000295946
0.000558263
0.00515726
0.00205823
0.000418669
0.00101408
0.00052073
0.000371308
0.000891584
0.000936433
0.000608761
0.000585394
0.000193028
0
0.00350083
0
0
0
0
0
0.000150299
0
0
0.000170411
0
0
0
0.00104289
0
0
0
0
0
0
0
0
0
0
0
0
0
0
0
0
0
0
0
0
0
0.0166121
0
0.0142612
0
0
0
0
0
0
0
0
0
0
0
0
0
0
0
0
0
0
0.00893762
0
0
0
0
0
0
0
0
0
0
0
0
0
0
0
0
0
0
0
0
0
0
0
0
0
0
0
0
0
0
0
0
0.0104372
0.0109495
0
0
0
0
0
0
0.00019592
0.000181336
0.000357384
0.000760116
0.000426332
0.000765611
0.000187749
0.000793961
0.000540524
0.000550424
0.000363568
7.82646e-05
0.00011947
0.000464146
0.000455505
0.00042254
0.00045622
0.00042403
0.000422505
0.000386626
0.000415463
0.000654782
0.000630146
0.000559142
0.000615847
0.000432367
0.000491349
0.000381525
0.000680117
0.000979057
0.000802305
0.000730554
0.00137081
0.000733932
0.000785641
0.000848828
0.00077973
0.000718982
0.000423252
0.000659257
0.000748808
0.000872773
0.000843515
0.000604476
0.000662264
0.000584354
0.00061748
0.000463695
0.00042886
0.000385602
0.000299154
0.000455763
0.000337601
0.000634608
0.000623275
0.000415609
0.000457335
0.00525136
0.00655676
0.000750741
0.00181983
0.00306497
0.000627183
0.00101952
0.000603825
0.00547402
0.0069087
0.014233
0.275158
0
0
0
0.000182482
6.35399e-05
7.22794e-05
0.00010608
0.000148395
0.00019354
0.000154602
0.000206513
0.00021619
0.000227726
0.000221164
0.000271002
0.000219265
0.000153787
0.000113017
0.000123461
0.000109915
0.000136239
0.000152584
0.000109682
0.000169738
0.000161395
0.000192715
0.00018113
0.000186497
0.000167902
0
0
0
0
0
0.00450089
0.00657477
0
0
0
0
0.00405904
0.00570617
0
0
0
0
0
0
0
0
0
0
0
0
0.0340796
0.0122772
0
0.00452686
0.0118567
0.00185689
0.00581089
0.00307612
0.00147227
0.00202105
0.00196413
0.00215145
0.00225475
0.00152779
0.00213006
0.00215992
0.0021226
0.00149118
0.00140505
0.00128236
0.00187588
0.00184781
0.00136182
0.00153134
0.00105321
0.00130197
0.00109919
0.00150984
0.00110862
0.00111895
0.000932943
0.0009662
0.000987984
0.00077483
0.00070336
0.000541844
0.000563364
0.000492937
0.000471154
0.000394776
0.000375194
0.000278837
0.000229736
6.74312e-05
0.000149407
4.32791e-05
0.00011797
4.97237e-05
0.000106495
0.000127711
0.000135398
0.000138546
0.000140593
0
0
0
0
0
0
0
0
0
0.00782308
0
0
0
0.0165835
0.010926
0.0117007
0.0039935
0.00401558
0.0118147
0
0
0
0
0
0
0
0
0
0
0
0
0
0
0
0
0.000101124
0
0
0
0.000121461
0
0
0
0
0
0
0
0
0
0
0
0
0
0
0
0
0
0
0.00324693
0
0
0
0
0
0.00256815
0.00196625
0.00462504
0
0
0
0
0
0
0
0
0
0
0
0
0
0
0
0
0
0
0
0
0
0
0
0
0
0
0
0
0
0
0
0
0
0
0
0
0
0
0
0
0
0.0070702
0
0.0027729
0
0
0.00228317
0
0
4.82976e-05
5.28194e-05
0.000136645
4.7501e-05
0.000103635
0.000137115
0.000149272
0.000300679
0.00021425
4.53552e-05
0.000475796
0.000598438
0.000213946
0.000224701
0.000276847
0.00017639
8.68151e-05
5.14559e-05
0.000115669
0.000701587
0.000180949
9.05601e-05
0.000739724
0.000749459
0.000354915
0.000791371
0.00158198
0.00133868
0.00417142
0.00719308
0.00480612
0.00554388
0.00957366
0
0
0
0.0107714
0
0
0
0
0
0
0
0
0
0
0
0
0
0
0
0
0.011893
0
0
0
0.000320294
0.000268374
0.000178092
0.000325384
0.00166234
0.00180288
0.00354167
0.00227782
0.000598222
0.00082906
0.000451254
0.00117518
0.000790715
0
0
0
0
0
0
0.047661
0.175116
0
0
0
0
0
0
0
0
0
0.238735
0
0
0
0
0
0
0
0.00374365
0
0
0.0216553
0
0
0
0
0
0
0
0
0
0
0
0
0
0
0
0
0
0
0
0
0
0
0.00245837
0
0
0
0
0
0
0
0
0
0
0
0
0
0
0.0399741
0.031448
0
0
0
0.0401832
0
0
0
0
0
0
0
0
0
0
0
0
0
0
0
0
0
0
0
0
0
0
0
0
0
0.00410621
0
0
0
0
0
0
0
0
0.000208483
0.000839759
0.00124474
0.000630992
0.000669768
0.000289565
0.000422123
0.000172591
0.000379521
0.000226349
0.000246804
7.52435e-05
5.63154e-05
0.000124195
0.000474478
0.000380664
0.000436902
0.000417639
0.000454654
0.000376025
0.000437829
0.000288525
0.00049042
0.000577017
0.000562102
0.000529164
0.000320493
0.000421658
0.000493631
0.000736779
0.000786492
0.00077608
0.000488393
0.00069648
0.000767343
0.000918986
0.000527856
0.000700013
0.000415136
0.000681096
0.000577613
0.00061626
0.000381348
0.000480754
0.000405901
0.000531354
0.000358345
0.000322597
0.000237306
0.000425229
0.000455549
0.000610158
0.000281682
0.000272004
0.00031748
0.000485043
0.000275562
0.000266273
0.00324777
0.00835006
0.00184927
0.000534446
0.00143177
0.00220612
0.00116633
0.00114756
0.00896564
0.00824261
0.00772714
0.083779
0
0.0149963
0.000118917
0.000106663
5.23339e-05
0.000200439
0.000241334
0.000219413
0.000179102
0.00017292
0.000183975
0.000157653
0.000158441
0.000111937
0.000127396
0.000144767
0.000115749
0.000109217
0.000172947
0.000165902
0.000166781
0.000138141
3.44215e-05
0.00018901
0.00015276
9.56618e-05
7.55775e-05
0
0
0
0
0
0
0
0
0
0.00446889
0
0
0
0
0
0.000162934
0.00013547
0
0
0
0
0
0
0
0
0.0530151
0.0454668
0.00702786
0.00895128
0.00741869
0.00504339
0.00375881
0.00303553
0.00597371
0.00282698
0.00268978
0.00296765
0.0018845
0.00186942
0.0014875
0.00230821
0.00196588
0.00126621
0.0015218
0.00103593
0.00163332
0.00197745
0.00129805
0.00116287
0.00136885
0.000894693
0.00116699
0.00119551
0.00127701
0.000695918
0.00108671
0.000848067
0.00078389
0.000650707
0.000611136
0.000559789
0.000543523
0.000451141
0.000410816
0.000272828
0.000270454
6.45283e-05
0.000124651
0.000109807
9.49182e-06
0.000126632
7.8364e-05
0.000171443
0.000117834
5.14617e-05
0.000169319
0.00011975
0.000105056
0
0
0
0
0
0
0
0
0
0.000461301
0
0
0
0
0
0
0
0.0022132
0
0
0.00445999
0.022976
0
0
0.00317627
0
0
0
0
0
0.00131638
0
0
0
0
0
0
0
0
0
0
0
0
0
0
0
0.00398441
0.00438436
0.00642153
0
0
0
0
0.00358673
0
0
0.00425463
0
0
0
0
0.00682326
0
0.00281006
0
0
0
0
0
0
0
0
0
0
0
0
0
0
0
0
0
0
0
0
0
0
0
0
0
0
0
0
0
0
0
0
0
0
0
0
0
0
0
0
0
0
0
0
0
0
0
0
0
0
0
0
0
0.00308196
0
0
0
0.0126152
0
0
6.01977e-05
9.43084e-05
2.93179e-05
0.000164422
5.39865e-05
0.000145083
9.15103e-05
0.000133005
0.000140742
0.000216748
0.000193824
0.000369465
0.000314294
0.000173319
0.000177792
0.00016342
0.000159474
0.000170235
0.000100614
0.000130464
4.92697e-05
2.89517e-05
0.000120673
0.000148582
0.00413615
0.00061889
0.00304184
0.000943445
0.00140326
0.00625583
0.00735093
0.00436343
0.00243752
0.00262345
0.00427054
0.00907295
0.0553701
0
0
0.0127714
0.00103951
0
0
0.015637
0
0
0
0
0
0
0
0.0238432
0
0
0
0
0.0148355
0
0
0
0
0.000629335
0.00152825
0.00261509
0.00147899
0.00300343
0.00338255
0.0016332
0.00151339
0.00110773
0.00125698
0.000226399
0.000552586
0
0
0.000509191
0
0
0.362668
0.369944
0
0
0
0
0
0
0
0
0.0431556
0.134795
0
0
0.0220043
0
0.00232061
0
0
0
0
0.0277726
0
0.00766239
0.0373432
0
0
0
0
0
0
0
0
0
0
0
0
0
0
0
0
0
0
0.0190885
0
0
0
0
0
0
0
0
0
0
0
0
0
0
0
0
0
0
0
0
0
0
0
0
0
0
0.0156946
0.014703
0
0
0
0
0
0
0
0
0.00177981
0
0
0
0
0
0
0.00121101
0
0
0
0
0
0
0
0
0
0
0
0
0
0
0
0
0
0
0
0
0
0
0
0
0.000509521
0.000642159
0.0001791
0.000119499
9.04026e-05
0.000191994
4.5476e-05
8.11668e-05
6.53755e-05
0.000154091
9.2909e-05
3.90799e-05
0.000103469
8.32056e-05
0.00014992
0.000364233
0.000465204
0.000413797
0.000362755
0.000451228
0.000439466
0.000407136
0.000333202
0.000403434
0.000441159
0.000360557
0.000272095
0.000433236
0.00030801
0.000768773
0.000716725
0.000443899
0.000726279
0.000853948
0.000586419
0.001012
0.000888116
0.000474174
0.000272211
0.000527113
0.000655251
0.000202093
0.000208401
0.000108836
0.000208025
0.000207719
7.88355e-05
0.000221561
0.000226648
0.000413692
0.000328461
0.000272659
0.000371501
0.000230282
0.000253477
0.000326233
0.000201508
0.000135712
0.00522016
0.0150801
0.00134401
0.00152551
0.0033064
0.00112077
0.00101553
0.00261861
0.0087751
0.0128015
0.00426758
0.00890063
0.0123681
0.00336751
0.000104744
0.000102282
0.000169208
0.00017937
0.00022999
0.000172591
0.000230404
0.00020281
0.000205239
0.000146506
0.000152893
0.000157139
0.000152472
0.000178667
0.000133991
0.000123453
0.00016038
0.000184525
1.12009e-05
9.08326e-05
0.000227485
0.00015589
6.33217e-05
2.4626e-05
0.0255464
0.00998514
0.0189781
0
0
0
0
0
0
0
0
0
0
0
0
0
0
0
0
0
0
0
0
0
0.185404
0.0114213
0.0199177
0.0112973
0.00791231
0.00193346
0.0123938
0.00773438
0.00265032
0.0019366
0.00263787
0.00405592
0.00341357
0.00208692
0.00253162
0.00243809
0.00232899
0.00226231
0.00194336
0.00161411
0.00132984
0.00108905
0.00172678
0.0011341
0.00133669
0.00140264
0.000801849
0.00102436
0.00106882
0.00113345
0.000778352
0.0010038
0.0007707
0.000752713
0.000628053
0.000621039
0.000582003
0.000480238
0.000364535
0.000292665
0.000125419
0.000122819
3.09674e-05
9.22498e-05
0.000101032
0.000118871
0.000136726
0.000159856
0.00019721
7.79301e-05
3.01587e-05
0.000145478
0.000109132
6.67405e-05
0.0110733
0.00282051
0
0
0
0
0
0
0
0
0
0.00242867
0
0.0035472
0
0.00136504
0.00710559
0
0
0
0
0
0
0
0
0
0
0
0
0.00187092
0
0
0
0
0
0
0
0
0.0082955
0.00523502
0
0
0.00353474
0
0
0
0.00509421
0
0
0
0
0
0
0
0.00992634
0
0
0
0
0
0
0
0
0
0
0.0130634
0
0
0
0
0
0
0
0
0
0.000123859
0
0
0
0
0.000624412
0
0
0
0
0
0
0
0
0
0
0
0
0
0
0
0
0
0
0
0
0
0
0
0
0
0
0
0
0
0
0
0
0
0
0
0
0
0
0
0
0
0
0
0
0
0.00012884
6.33557e-05
0.000199552
0.000106891
3.60833e-05
0.000193129
9.74326e-05
0.000190699
7.06728e-05
0.000117385
9.23337e-05
0.000131719
9.44118e-05
0.000264605
0.000238394
8.72493e-05
0.000118776
0.000180736
0.000190035
0.000139705
0.000289249
0.000196146
0.000169715
0.000136501
0.000119757
0.00013449
9.47349e-05
0.00676092
0.00507285
0.00274176
0.00299444
0.00586618
0.00261769