/*--------------------------------*- C++ -*----------------------------------*\
  =========                 |
  \\      /  F ield         | OpenFOAM: The Open Source CFD Toolbox
   \\    /   O peration     | Website:  https://openfoam.org
    \\  /    A nd           | Version:  8
     \\/     M anipulation  |
\*---------------------------------------------------------------------------*/
FoamFile
{
    version     2.0;
    format      ascii;
    class       volScalarField;
    location    "3060";
    object      alpha;
}
// * * * * * * * * * * * * * * * * * * * * * * * * * * * * * * * * * * * * * //

dimensions      [0 0 -1 0 0 0 0];

internalField   nonuniform List<scalar> 
526318
(
0.000457641
0.00032576
0.000294543
0.000557599
7.70915e-05
0.000192148
0.00023324
0.000121203
0.000628497
0.000477486
0.000506866
0.000454908
0.000621976
3.12235e-05
0.000434714
0.000674044
0.000195652
0.000186271
0.000365519
0.000374283
0.00029137
0.000154029
0.000990976
0.000361506
0.00109391
0.00145423
0.000122082
0.000148531
0.000497479
0.000177639
0.000228037
0.000343045
0.000147936
0.000337182
0.000877427
8.90525e-05
0.00079976
0.000553039
0.000165031
0.000520697
0.000119802
0.000533394
0.00170625
0.00278604
0.00344413
0.00181375
0.000454705
0.000953982
0.000729969
0.000304901
0.000368779
0.000440363
0.000562081
6.03936e-05
0.0256512
0.0058971
0.00702143
0.0381173
0.000434665
0.000140287
2.69241e-05
0.000373024
0.000262411
0.000235671
0.000117384
0.000241209
0.000423123
0.000371655
5.44709e-05
0.000476607
0.000328507
0.000351524
0.000305958
0.000225589
0.000178062
0.000291714
0.000221109
0.000277805
0.00038168
0.000287237
0.000320917
7.01587e-05
0.000175165
0.000251612
4.20845e-05
0.000456482
0.000321025
0.000421445
0.00014198
0.000414655
0.000172425
0.000761154
0.000182807
0.000718244
0.0010963
0.000547369
0.000223209
0.000180262
0.000314135
0.000406183
0
0
0
0.406474
0.0180063
0
0.00177399
0.00405911
0.000476961
0.00102515
0.000853445
0.000771973
0.000305415
0.00049671
7.35565e-05
0.000250343
0.00019237
0.000122103
0.00012636
0.000328523
0.000491688
0.000314016
0.000452184
0.000333909
0.000198932
0.000271834
0.000461401
0.000434177
0.00031283
0.000556318
0.000526391
0.000424626
0.00058314
7.37054e-05
0.000637972
0.000491591
0.000520324
0.000478964
0.000258262
0.00149008
0.000308388
0.000151403
0.000633583
0.000389273
0.000644659
0.0007252
0.000520285
0.000990609
0.000729079
0.000748328
0.00125399
0.000567161
0.0012219
0.000820233
0.00101119
0.00201389
0.00135514
0.00183243
0.00189103
0.00161847
0.000311501
0.000578515
0.00180279
0.000506496
0.000302935
7.89506e-05
0.000305819
0.000386143
0.000667732
0.000581944
0.000307531
0.000248953
0.000448688
0.000559639
0.000135651
0.000242967
0.000810932
0.00112617
0.000336701
0.000292441
0.000505082
0.000405574
0.000175392
0.000262811
0.000661656
0.000771669
0.000311723
0.000632244
0.000897758
0.000199444
0.000288922
0.000238537
0.000169602
0.000161914
4.59016e-05
0.00120968
0.000710842
0.000914221
0.00104888
0.00138758
0.000670191
0.00138568
0.000505663
0.00133989
0.000277128
0.000259772
0.00198198
0.000588817
0.000608851
0.000610382
0.00106471
0.00120694
0.000719884
0.000630475
0.000701734
0.000466817
0.00075502
0.000619611
0.000613316
0.00428464
0.00353848
0.00161947
0.00113414
0.00055285
0.000604633
0.00011987
0.000811666
0.000952515
0.000390192
1.17351
0
0.0492905
0.00796454
0
0
0
0
0
0
0.000202283
0.000377957
0.000221013
5.23016e-05
0.00027154
0.000119573
0.000280745
0.000147388
0.000201938
0.0007067
0.000534062
0.00066765
5.29186e-05
0.000573551
0.000601078
0.000161997
0.000499046
0.000125857
0.000562334
0.000428398
0.000313698
0.00014178
0
0
0
0.0189002
0.0788672
0
0
0.00991084
0.000901013
0.000279273
0.000296686
0.000143065
0.000559364
0.000453796
7.46712e-05
0.000193829
9.94887e-05
0.000278636
0.000209121
9.9807e-05
0.000251329
0.00028733
0.000298523
0.000364423
0.000153566
0.000415946
0.00041667
0.000513542
0.000805467
0.00040758
0.00119694
0.000513954
0.00265732
0.000683403
0.00163048
0.000880629
0.000650677
0.00128999
0.00101951
0.00131019
0.00226925
0.00204302
0.00187099
0.0019304
0.0026512
0.00108708
0.00105147
0.000558392
0.00195541
0.00119586
0.00280252
0.00478422
0.00246165
0.00140546
0.00238008
0.00118468
0.000311731
0.000153715
0.000547233
0.000492344
0.000574236
0.00124487
0.000561268
0.000600487
0.000245616
0.0003447
0.000364485
0.000214121
0.000330795
0.000460455
0.000967731
0.001846
0.000303568
0.00120806
0.000493342
0.000889347
0.000995653
0.00116324
0.000426711
0.00150327
0.00054809
0.0005137
0.00127531
0.000297978
0.000614094
0.000291424
0.000371044
0.000573506
0.000232039
0.000733208
0.00101209
0.00052929
0.000546931
0.00044706
0.000320016
0.0011653
0.0007513
0.00171942
0.000990314
0.000983881
0.00107211
0.000924037
0.00141785
0.00241912
0.00143485
0.000844718
0.000784571
0.000833857
0.000789192
0.000929318
0.000540096
0.000759182
0.00103793
0.000965105
0.00126973
0.000583859
0.000877793
0.000503932
0.000286447
0.000713174
0.000936568
0.000509841
0.000519551
0.00135433
0.00079096
0.000327144
0.000377384
0.00566611
0.0120491
0.00685164
0.00332516
0.000845479
0.00066033
0.0010065
0.00110758
0.00049564
0.000808186
0.000393788
0
7.06975
0.0809729
0
0.00443728
0.122492
0
0.0135151
0
0
0
0
0
0
0
0
0.000217145
0.000203542
0.00010861
0.000232857
0.000268398
0.000135132
0.000166067
0.000447236
0.000457054
0.000379799
0.000784408
0.000623337
0.000525386
0.00019906
0.000306548
0.000263013
0.000283268
0.000210981
0.000259057
9.03704e-05
0.000268766
0.000277044
0
0.177995
0.151397
0
0
0
0
0
0.0128403
0.129104
0
0
0
0
0.00728244
0
0
0
0
0
0
0
0.0499476
0.0343758
0.00437077
0.00915888
0.000659102
0.000684699
0.000413475
0.000134448
9.39039e-05
0.000139076
0.000267921
0.000105588
0.000237927
0.000172899
3.60675e-05
0.000171941
0.000311998
0.00040427
0.000309047
0.000155821
0.000195437
0.000342902
0.000493456
0.000685452
0.000523383
0.000736047
0.000848828
0.000839795
0.00217965
0.000294492
0.00200603
0.00230566
0.00321173
0.00172297
0.00337027
0.00209444
0.00378297
0.00268495
0.00407077
0.0019323
0.00176591
0.00229016
0.00201407
0.00274343
0.00282468
0.00833562
0.00411056
0.000602324
0.00112653
0.00134145
0.00119669
0.0013128
0.000187151
0.0011708
0.00092607
0.000589572
0.000993707
0.000726058
0.0013364
0.00211767
0.00223722
0.000933605
0.000419244
0.000528546
0.000597666
0.000867492
0.000135338
0.000505586
0.000221218
0.000188209
0.000329449
0.000744215
0.000367699
0.000696411
0.00149062
0.00100796
0.00154899
0.00476305
0.00092248
0.00355329
0.0068557
0.001224
0.00115908
0.00234935
0.000390092
0.000745959
0.0011023
0.00123435
0.000981524
0.00141476
0.00154506
0.000627293
0.00107254
0.000548997
0.000664844
0.000730804
0.00134998
0.00121242
0.00117676
0.00141615
0.000850005
0.00124321
0.000226216
0.000878198
0.000765574
0.000791361
0.000553592
0.000291455
0.000420224
0.000934301
0.00080367
0.000437265
0.000883574
0.000534943
0.000649314
0.000280833
0.000830714
0.00083277
0.000225677
0.000616703
0.000456902
0.000398894
0.000784524
0.000485587
0.000875007
0.00112087
0.00115256
0.000359403
0.00033503
0.000888076
0.00072715
0.00092517
0.000525837
0.003771
0.00167104
0.00194347
0.00134499
0.000835491
0.00086363
0.00141734
0.00124118
0.000806646
0.00294906
0
0
6.55438
0
0.131015
0.00485799
0
0
0
0
0
0
0
0
0
0
0
0
0
0
0
0
0
0
0
0
0.00772714
0
0
0.000700973
0.00302535
0.00842397
0
0
0
0
0
0
0
0
0
0
0
0
0
0
0.00026748
0.000173103
0.000208625
9.77311e-05
8.43102e-05
0.000262807
0.000658978
0.000351559
0.000203437
0.000409736
0.000170651
0.000224849
0.000287514
0.000391399
0.000359831
0.00016993
6.83977e-05
0.000320319
0.000325768
0.000309578
0.000663759
0.000256086
0
0
0
0
0
0
0
0
0
0
0
0
0
0
0
0
0
0
0
0
0
0
0
0
0
0
0.0317841
0
0
0
0.00870832
0
0.00865595
0.00507628
0.00122662
0.00106108
0.000319486
0.000287751
0.00070196
0.000300596
0.000265558
4.96156e-05
0.000156379
0.000279067
0.000162933
0.000109693
9.76622e-05
9.84625e-05
0
0
0
0
0
0
0
0
0
0
0
0
0
0
0
0
0
0.00023882
0.000623189
0.00024818
0.000635956
0.00123043
0.000378697
0.0010153
0.00136538
0.0019903
0.000929978
0.00414585
0.000482604
0.00697705
0.00346585
0.00252471
0.00432539
0.00664086
0.00351742
0.00728994
0.0024924
0.00646797
0.00922594
0.0143836
0.00438778
0.00439523
0.00463611
0.00263889
0.00872776
0.0315819
0.0373645
0.0147949
0.0355883
0.000616649
0.00045964
0.000680209
0.00103642
0.000846732
0.000555916
0.000884572
0.000634372
0.000687197
0.000483439
0.00126388
0.00111234
0.00164413
0.000654239
0.00142289
0.00121942
0.000435968
0.00124203
0.00124329
0.00448244
0.00138923
0.0014862
0.000601717
0.000128884
0.00030016
0.000668901
0.000411146
0.000455351
0.000266127
0.000561064
0.000745352
0.0015263
0.00267677
0.000953418
0.000811703
0.00183798
0.0149087
0.00607686
0.0408754
0.0108998
0.00196147
0.00135033
0.00211119
0.00690904
0.00285404
0.00166137
0.00198552
0.00231037
0.00175141
0.0010305
0.000504354
0.00109361
0.000676586
0.00135073
0.000686362
0.000567394
0.000291852
0.000397519
0.000486661
0.000605511
0.000372516
0.000374913
0.000503282
0.000109283
0.00096578
0.000434002
0.000698034
0.00021283
0.00108357
0.000254572
0.000174508
0.000791564
0.000609189
0.00053075
0.000747512
0.000649811
0.000490412
0.000602257
0.000491888
0.000878119
0.000439487
0.000416124
0.000486315
0.000303286
0.000454819
0.000396991
0.000563128
0.000450858
0.000400715
0.000617852
0.000420088
0.000376264
0.000318169
0.000275054
0.000267055
0.000382961
0.000223822
0.000273914
0.000174885
0.000180402
0.000168646
0.00016622
0.000174385
0.000164231
0.000180913
0.000202449
0.000228824
0.000190299
0.000192161
0.000200875
0.000166637
0.000158911
0.000204408
0.000121792
0.00019708
0.000158489
0.000226358
0.000182835
0.000200512
0.000216455
0.000123667
0.00027038
0.001103
0.000364494
0.00041393
0.000434996
0.000698892
0.000407343
0.00188684
0.000424424
0.0132972
0.00305483
0.00136876
0.00194404
0.0365673
0.0135189
0.00943622
0.00157981
0.00216114
0.00472685
0.00526284
0.00173049
0.00967563
0.00393582
0
0.0159601
0
0
0
0
0
0
0
0
0
0.013879
0
0
0
0
0
0
0
0
0.0159385
0
0
0
0
0
0
0
0
0
0
0
0
0
0
0
0
0
0
0.71982
0
0
0.0338599
0
0.00905225
0
0.00517997
0.0076484
0.00869657
0
0.0208563
0.00719842
0
0
0.0137367
0
0
0
0
0
0
0
0
0
0
0
0
0
0
0.0215284
0
0
0.000264317
0.000150355
0.000255617
0.000182426
0.000296965
0.00022028
0.000298616
0.000811606
0.000424633
0.000525674
0.000405858
0.000707119
0.000377388
0.000205248
0.000463129
0.000186768
0.000527358
0.000177763
9.79339e-05
0.000409399
0.000234888
0.000176393
0
0
0.136904
0.109142
0
0
0
0
0
0.0825581
0
0
0
0
0
0
0
0
0
0
0
0
0.0202795
0.0140131
0
0
0
0.0142691
0.000577632
0.0172524
0.00124532
0.000505959
0.000431143
0.000437689
0.00016402
0.000176232
8.254e-05
0.00035632
5.10669e-05
0.000221768
0.000117034
0.000145194
0.00020471
0.000206854
0.0037247
0
0.0163019
0
0
0.000381863
0
0
0.000311324
0
0
0
0
0
0
0
0
0
0
0
0
0
0
0
0.0149786
0
0.000573684
0.00050338
0.000911589
0.000415058
0.00139368
0.00179381
0.0024199
0.00366607
0.00128865
0.00401661
0.00129945
0.0078851
0.0160701
0.000887568
0.019335
0.0173734
0.00230103
0.000566653
0.002324
0.00333188
0
0.0131883
0.0187248
0.0227904
0.0507317
0.0262915
0
0
0
0
0.098965
0
0.000508896
0.000450495
0.000654126
0.000608873
0.000957908
0.000971235
0.000546052
0.00069839
0.000495491
0.000338248
0.000432109
0.000484275
0.000271812
0.000429116
0.000281807
0.000188029
0.00013962
0.000109888
0.000136456
0.000119739
0.000151705
0.000135789
0.000154612
0.000140921
0.000226224
0.000200863
0.000186207
0.000175338
0.000145328
0.000175683
0.000479445
0.00136469
0.00125394
0.00055631
0.00041266
0.00194383
0.00075354
0.00109936
0.00340183
0.0027119
0.00355265
0.00131342
0.00356011
0.000146949
0.000734308
0.000463652
0.000199811
0.000222126
0.000240361
0.00291668
0.0036631
0.000531368
0.00357965
0.00339029
0.00839664
0.0329574
0
0.193902
0.0161496
0.0186927
0.0870763
0.0129057
0.00565547
0.0105716
0.00268699
0.00427989
0.0025095
0.00188052
0.000315469
0.00044326
0.000453384
0.00132914
0.000803373
0.000155138
0.00042847
0.000698544
0.000509152
0.000727551
0.00121249
0.000627647
0.000237667
0.000628682
0.000389125
0.000440053
0.000153964
0.000532364
0.00016073
0.000140661
0.000395223
0.00030821
0.0011032
0.000687806
0.000173294
0.000532615
0.000417422
0.000820341
0.000817116
0.000649518
0.000462229
0.000402857
0.000272457
0.0005078
0.000328341
0.000301602
0.000534896
0.0004535
0.000295763
0.000213706
0.000175934
0.000241326
0.000221537
0.000191368
0.000233022
0.000166047
0.000226713
0.000178009
0.000178642
0.0002204
0.000229094
0.00016435
0.000139106
0.00024309
0.000223691
0.000179035
0.000211259
0.00020255
0.000255771
0.000205024
0.000249029
0.00025476
0.000209238
0.000203248
0.000253426
0.00165756
0.00229258
0.00219106
0.00222299
0.00414796
0.0024022
0.000840088
0.000973241
0.000397106
0.00172956
0.0121997
0.0178183
0.0108194
0.00276678
0.000835257
0
0
0.00774972
0
0.0109172
0.00743561
0.0071421
0.00437426
0.00407351
0.00454122
0
0
0
0
0.0106619
0.00818168
0
0
0
0.0198674
0
0
0
0
0
0
0
0.0163799
0
0
0
0
0
0
0
0
0.000786223
0
0
0
0.00647383
0
0
0
0
0
0
0
0
0
0
0
0
0
0
0
0
0.0131526
0
0.166052
0
0
0
0
0
0
0
0
0
0
0.000338402
0.000304146
0.000313736
0.000232715
0.000170071
0.000112274
8.68134e-05
0.000514037
0.000518674
0.000418627
0.000254774
0.000745761
0.000415803
0.000166527
0.000173975
0.00056634
0.000553014
0.00040311
0.000189149
8.14891e-05
0.000139069
0.00021695
0.103391
0
0.0441923
0
0
0
0
0
0
0
0
0
0
0
0
0
0
0
0
0
0
0
0
0.0267865
0
0
0.0298121
0.00585873
0.00122227
0.00524556
0.00100911
0.0004802
0.00036811
0.000284886
0.000129195
0.000254567
0.000102556
0.000186472
0.000451704
0.000290104
0.000429896
0.000324771
0.000324506
0.000229788
0
0
0
0
0
0
0
0
0
0
0
0
0.00620876
0
0
0
0
0
0
0.00108963
0
0.00105996
0
0
0
0
0
0
0
0
0
0.00147576
0.00107529
0.00174378
0.000862426
0.0026692
0.0025759
0.00791895
0.00605434
0.000868422
0.000785894
0.000726044
0.0146543
0.00733523
0
0
0.00645278
0.00903064
0.0182713
0.00701515
0.00627938
0.00390688
0.00113365
0.0027794
0.0768778
0
0.0318726
0.0168281
0
0
0
0
0
0
0
0
0.000145455
0.000175338
9.97724e-05
0.000153359
0.00018683
0.000158693
0.000128416
0.000185087
9.54693e-05
0.000214801
0.000188592
0.000237086
0.000108138
0.000170044
0.000199932
0.000213194
0.00023184
0.000219487
0.000172201
0.000209531
0.000193838
0.000207638
0.000187072
0.000176492
0.000212983
0.00018407
0.000229657
0.00016749
0.000169551
0.000188518
0.000226568
0.000222619
0.000198779
0.000222378
0.000235298
0.000596556
0.000595302
0.000592491
0.000660673
0.00126517
0.00070596
0.00061311
0.00062822
0.000455032
0.000391882
0.000573574
0.000546265
0.000361469
0.000327536
0.000171848
0.000140165
6.61298e-05
8.458e-05
3.54645e-05
8.84478e-05
0.000104487
6.32846e-05
0.00011806
6.97667e-05
0.000191237
0.000159962
0.000104289
5.74036e-05
0.000464021
0.00100932
0.00156829
0.00210013
0.00131855
0.000649308
0.000644504
0.00233899
0.00133161
0.00277855
0.0074452
0.000190842
0.000252148
0.000197728
0.000189467
0.000209371
0.000179507
0.000158123
0.000163825
0.000165141
0.000140341
0.000183166
0.000135525
0.000202077
0.000151823
0.000215405
0.000166812
0.0001429
0.000158516
0.00946334
0.0167487
0.0132449
0.000579622
0.0027372
0.000207982
0.000704498
0.00219889
0.00957689
0.00757136
0.00136037
0.000863945
0
0.0212084
0
0
0
0
0.0150842
0.0766197
0
0.00352603
0.0160564
0.0115013
0.0059522
0.00674305
0.00148201
0.00125373
0.000702288
0.00149579
0.000902913
0.000627862
0.000284111
0.000192802
5.33195e-05
0.000766787
0.000293168
0.00110702
0.000320625
0.000256581
0.000359931
0.000596311
0.000194479
0.000468056
0.000177354
0.000103286
0.000435281
0.000572301
0.000178061
0.000310791
0.000224882
0.000616711
0.000718639
0.000267787
0.000530196
0.000617473
0.000563188
0.000505096
0.000496181
0.000619953
0.000397923
0.000250036
0.000377637
0.000466972
0.000314097
0.000229475
0.000174801
0.000285694
0.000198852
0.000216029
0.000159172
0.000226614
0.000221385
0.00017517
0.000190737
0.00018588
0.000216171
0.000182705
0.000180497
0.000224842
0.000228483
0.00017901
0.000184714
0.000184658
0.000242517
0.00564502
0.00571265
0.005821
0.00155775
0.0126615
0.00349288
0.00757149
0.000949093
0.00232857
0.0163216
0.0351277
0.137584
0
0.000851985
0.0251236
0
0
0
0
0.0175052
0
0
1.46847
0
0
0
0
0
0.00898769
0.00960433
0.0114471
0
8.06816e-05
0
0
0
0
0
0
0
0
0
0.0328674
0
0
0
0
0
0
0
0
0.213444
0
0
0
0
0
0
0
0
0
0
0
0
0.00573055
0
0
0.00439596
0
0
0
0
0
0
0
0
0
0
0.0272544
0
0
0
0
0
0
0
0
0
0
0.0216072
0
0
0
0
0.0392165
0.000192586
0.000287033
0.000182908
0.000160128
0.000137757
0.00014698
0.000315613
0.00015457
0.00029699
0.000403023
0.000279814
0.000235922
0.000599201
0.00108088
0.000333432
0.000809744
0.000469531
0.000398293
0.000163262
0.000179614
0.000252423
0.000605064
0.000337087
0.000135105
4.48295e-05
0
0
0
0
0
0
0
0
0
0
0
0
0
0.011092
0.00994201
0.00758076
0
0
0
0
0
0
0
0
0
0
0
0.000714507
0.00133724
0.000744458
0.000663925
0.000146241
0.0003416
0.000571339
0.000138799
0.000169763
0.000224669
0.000267253
0.000113245
9.04926e-05
8.2389e-05
0.000170485
0.000126581
0
0.00336185
0
0
0
0
0
0
0
0
0
0
0
0
0
0
0
0.133246
0
0.11134
0
0
0
0
0
0
0
0
0
0
0.00631534
0
0
0
0
0
0
0.000614455
0.000595302
0.000448928
0.000769285
0.000709578
0.00254993
0.000938417
0.0174042
0.0040457
0
0
0.00129847
0.000774324
0
0
0
0.0140757
0.0432445
0
0.0516534
0
0.000412637
0.0271678
0.012673
0.00531406
0
0
0
0
0
0
0
0
0
0
0
0
0.000123809
0.000148307
0.000164703
5.18131e-05
0.000245159
0.000220395
0.000305087
0.000284357
0.000208136
0.00025779
0.000245657
0.000212961
0.000184793
0.000231886
0.000155536
0.000174764
0.000204462
0.000155558
0.000207907
0.000228357
0.000218957
0.000278611
0.000664671
0.0008811
0.000690854
0.000599431
0.000710458
0.000912112
0.000637085
0.000702908
0.000388455
0.000373365
0.000466981
0.000604223
0.00048427
0.000291857
0.000319824
0.000414409
0.000374908
0.000204829
0.000136058
0.000105098
4.4151e-05
3.05748e-05
5.44869e-05
9.29581e-05
6.40924e-05
6.93845e-05
0.00014915
0.000129638
0.000112943
8.64201e-05
4.4985e-05
0.000146341
0.00206558
0.000685846
0.000729434
0.00218338
0.001446
0.00047431
0.00072043
0.00148628
0.00348328
0.00387213
0.00063399
0.000179273
0.000179102
0.000218583
0.000181441
0.000220347
0.000204566
0.00018466
0.000164306
0.000171834
0.000174322
0.000143689
0.000160472
0.000209696
0.000189439
0.000152779
0.00015478
0.000160454
0.000138157
0.000135625
0.000173027
0.000187448
0.000185614
0.000114144
0.0001662
9.0345e-05
0.00805402
0.0115642
0.0298619
0.0618995
0.00822068
0.00793226
0
0
0.368366
0
0
0
0
0.00938727
0
0.00430555
0
0
0.532241
0
0.00263311
0.0438062
0.0109543
0.0258556
0.00297465
0.00117715
0.00133823
0.00359964
0.00136986
0.00178716
0.00104434
0.000691708
0.000450489
0.00073942
0.000957165
0.00035389
0.000678997
0.000381539
0.000770013
0.00033078
0.000413219
0.00026735
0.000175516
1.992e-05
0.000359192
0.00040984
0.000309778
0.000214786
0.0005602
0.000857094
0.000561676
0.000243992
0.000582311
0.000308749
0.000361196
0.000264379
0.000507535
0.000487802
0.000252767
0.000430247
0.000196941
0.000228522
0.000203607
0.000125787
0.000235151
0.000193873
0.000183075
0.000197816
0.000144821
0.000163658
0.000204681
0.000164001
0.000196122
0.000140888
0.000182969
0.000161999
0.000179364
0.000198093
0.000169261
0.000197142
0.000180345
0.000187889
0
0
0
0
0.0540795
0.00489343
0.127323
0.111057
0.0168595
0
0
0
0
0
0
0
0
0
0
0
0
0
0
0
0
0
0
0
0.0137764
0.00529399
0
0
0
0
0
0
0
0
0
0
0
0
0.00117271
0
0
0
0
0
0
0
0
0.107767
0
0
0
0.0170138
0.00552711
0
0
0
0
0
0
0
0.00443931
0.0063453
0
0
0.0278024
0.00253747
0
0
0
0
0.012001
0
0.0197132
0
0
0
0
0
0.00425404
0.00268877
0
0
0
0
0
0
0
0
0
0
0.00672374
0
0
0
0
0
0
0
0
0.000200394
6.58118e-05
0.000231975
0.000152781
0.000116814
0.000147966
0.000160503
0.000116818
0.000163015
0.000153297
0.000444176
0.000294214
0.000320868
0.000277555
0.000410385
0.000730719
0.000385085
0.000788782
0.000519567
0.000236274
0.000168649
0.000372982
0.000224262
0.000142459
0.000487212
0.000211549
0.000245119
0
0
0
0
0
0
0
0.0159737
0.00172417
0.0195241
0
0
0
0
0
0
0
0
0
0.000890231
0
0
0
0
0
0.000506765
0.000746816
0.000662678
0.00114156
0.000736983
0.000514914
0.000363296
0.000593059
0.000199975
0.000226208
0.000148868
0.000140234
0.000135279
0.000109693
0.000112568
0.000468229
0
0
0.00307253
0.0131005
0
0
0.0132378
0.0182707
0
0
0
0.0646356
0
0
0
0.00221719
0.0346094
0.0114787
0
0
0
0.0780873
0
0
0
0.0178859
0
0
0
0
0
0.054479
0
0
0
0
0
0
0
0
0
0
0
0
0
0.000606997
0.00017729
0.00127625
0.00340408
0.00154092
0.00253545
0.00512751
0.00308711
0.0299312
0
0
0.0102392
0.00922496
0.025839
0.0225417
0
0
0
0
0
0
0
0.121813
0.0174487
0.0128754
0.00628265
0.00635838
0
0
0
0.0094056
0
0
0
0
0
0
0
0.00680633
9.79245e-05
0.000240151
0.000142105
0.00026701
0.000164584
0.000195453
0.000318562
0.000354082
0.000423323
0.000211797
0.000353405
0.000158455
0.000221055
0.000207278
0.000263994
0.000205838
0.000269872
0.000238407
0.000226532
0.000227984
0.000246979
0.000213788
0.000233762
0.000188997
0.000234607
0.000231877
0.000290269
0.000217752
0.00056951
0.00078648
0.000683432
0.000550426
0.000407458
0.00057419
0.000623785
0.000614481
0.000487423
0.000404635
0.000419483
0.00066136
0.000282283
0.000207712
0.000294063
0.000441783
0.000151742
0.000207639
4.70416e-05
0.000129877
9.87386e-05
8.88139e-05
7.15552e-05
0.000113213
5.00681e-05
0.000145943
0.000236468
0.000226684
0.000247365
0.000241947
0.00119806
0.000556909
0.000792275
0.00122091
0.000677932
0.00210304
0.000744237
0.000603358
0.00217739
0.000767891
0.00121696
0.00233917
0.0001797
0.000173713
0.000159699
0.000154248
0.000175238
0.000179822
0.000151024
0.000155457
0.000160532
0.000212177
0.00015045
0.000155817
0.000194274
0.00015803
0.000169107
0.000159152
0.000158866
0.000108275
0.000133432
0.000135849
8.32271e-05
0.00019794
0.000142027
0.000114811
0.000127451
0
0
0
0
0
0
0
0
0.0100791
0
0
0
0
0
0
0
0.0070172
0
0
0
0
0.0612127
0.00495268
0.0215436
0.00268604
0.00179867
0.00303961
0.00160084
0.00196341
0.000238374
0.00109318
0.000576634
0.00149283
0.00060166
0.000618459
0.000505937
0.000336441
0.000299785
0.000553728
0.000292778
0.000312299
0.000211414
0.000193445
0.000256781
0.000503428
0.000388109
0.000281766
0.000372289
0.000232954
0.000277408
0.000282906
0.000305364
0.000137571
0.000328106
0.000390989
0.000250224
0.000262582
0.000176952
0.000283189
0.000177353
0.000177051
0.000186424
0.000206648
0.000166101
0.000209081
0.000150772
0.00016105
0.000175648
0.000186058
0.000171246
0.000131451
0.000191241
0.000109367
0.000169509
0.000120375
0.000172028
0.000161035
0.000137863
0.000175338
0
0
0.106991
0.000598829
0
0
0
0
0
0
0
0.00720684
0
0.0023108
0.0123011
0.00316886
0.00409759
0
0.00792468
0.465853
0
0
0
0.00363427
0
0.00231899
0.00374143
0
0
0
0
0
0
0
0.0257293
0.00878819
0
0
0
0
0
0
0.0146573
0
0
0
0
0
0
0
0
0
0
0
0
0
0
0
0
0
0
0
0
0
0
0
0
0
0
0
0
0
0
0
0
0
0
0
0
0
0
0
0.0206806
0
0
0
0
0
0
0
0
0
0
0
0
0
0
0
0
0
0
0
0
0
0
0
0
0
0
0
0
0
0.00480436
0
0
0
0
0.000131275
0.000124033
0.000141971
0.000111371
0.000105974
0.000150297
0.000251583
0.000131147
0.000130437
0.000211989
0.000152907
0.000160302
8.4621e-05
0.000232998
0.000224557
3.40049e-05
0.000331512
0.000715509
0.000160464
0.00055887
0.000369226
0.0003931
2.22016e-05
0.000257847
0.000370869
0.000146581
0.000156925
0.000404552
0.000401829
0
0
0
0.00770574
0.0110877
0.00172911
0.00250678
0.0418071
0
0.00252663
0
0
0
0
0
0
0
0
0.0363204
0
0.0252136
0
0
0
0.000388537
0.000426316
0.00028462
0.000411755
0.000622585
0.000756832
0.000336729
0.000127775
0.000114425
0.000284746
0.000417804
0.000255631
0.000323455
4.84423e-05
2.36865e-05
0.000262249
0
0.00389045
0
0
0
0
0
0.000354226
0
0
0.0186327
0
0
0
0
0
0
0
0
0.000290631
0
0
0
0
0
0
0
0
0
0
0
0
0
0
0
0
0
0
0.0393816
0.024264
0
0
0
0
0
0
0
0
0
0
0
0
0
0
0
0
0
0.000829773
0.00124137
0.000771397
0.00825788
0.0184636
0.230795
0
0
0
0
0.0141534
0
0
0
0
0
0
0
0
0
0
0.0115726
0.00679803
0.00398662
0
0
0
0
0.00901844
0
0
0
0
0.00942549
0.0263453
0
0
0
0
0
0
0.00010162
0.000224466
0.000248998
0.000635461
0.0004465
0.000630134
0.000338089
0.000548569
0.000385801
0.000371567
0.000237986
5.97466e-05
0.000154727
0.000274972
0.000272101
0.000253928
0.000272977
0.000220823
0.000229911
0.00022897
0.000295446
0.00024895
0.000249559
0.000262529
0.000314365
0.000247134
0.000290367
0.000535128
0.000669066
0.000474732
0.000517312
0.000473461
0.000327043
0.000641233
0.000527409
0.000570563
0.00037806
0.000616524
0.000434799
0.000255745
0.000228433
0.000464588
0.000260479
0.000166982
0.000194276
0.000112623
0.000105804
5.61236e-05
7.47577e-05
0.000150763
0.000144653
0.000261954
0.000113168
0.000310003
0.000309512
0.000281544
0.000196979
0.00227158
0.000339655
0.00103521
0.000223512
0.000913992
0.000471137
0.000385978
0.000666537
0.00113134
0.000352594
0.00139926
0.00191085
0.0361864
0.005661
0.00235814
0.000141251
0.000166564
0.000128308
0.000168018
0.000148797
0.000124096
0.000123284
0.000162095
0.000167425
0.000120761
0.000132812
0.000191614
0.000181235
0.000139389
0.000107417
0.000150478
0.000131821
0.00011138
9.64824e-05
0.000105127
9.15302e-05
0.000123754
0.00011137
0.000172026
0.000153655
7.77222e-05
0
0
0
0
0
0.00711167
0.0146461
0
0
0
0
0.00570359
0.00634802
0
0
0
0
0
0.213775
0
0
0.0120991
0.0112671
0.00520666
0.00682021
0.00278475
0.00113692
0.00578343
0.000678539
0.00102647
0.000333944
0.000907478
0.00072692
0.000673404
6.27792e-05
0.000400121
0.000329582
0.000115967
0.000196429
0.000352432
0.000106847
0.000289663
0.000271656
0.000355427
0.00024685
0.000112234
9.37627e-05
0.000236156
0.0001167
0.000338292
0.000427108
0.000150079
0.000323867
0.000120113
0.000209511
0.000262824
0.000330325
0.000203792
0.000264096
0.000224539
0.000212912
0.000143755
0.000218711
0.000157972
0.000142156
0.000139588
0.000162803
0.000110688
0.000130224
0.000166874
0.000115444
0.00019592
8.85634e-05
0.000191369
0.000186584
8.33373e-05
0.000150666
0.00010716
0
0
0.016636
0
0
0
0
0.0363073
0
0.0198393
0
0
0
0.0243469
0.024926
0.0130406
0.00878823
0.00323671
0.0120968
0
0
0
0
0
0
0
0
0
0
0
0
0
0
0
0
0.0220681
0
0
0
0.194825
0
0
0
0
0
0
0
0
0
0
0
0
0
0
0
0
0
0
0.397113
0
0
0
0
0
0.00391699
0.000902777
0.00483188
0
0
0
0
0
0
0
0
0
0
0
0
0
0
0
0
0
0
0
0
0
0
0
0
0
0
0
0
0
0
0
0
0
0
0
0
0
0
0
0.00579479
0
0
0
0.00112283
0
0
0.00517856
0.0188799
0
0.000120019
0.000151897
0.000130111
0.000160853
0.000141749
0.000165825
0.000200539
0.000131821
0.000111028
0.000160362
0.00015808
0.000201668
0.000140753
0.000200531
0.000240091
0.000228254
0.000266678
0.000234992
0.000223553
0.000160056
0.000168828
0.000233862
0.000558179
0.000257349
0.000219311
0.000416828
0.000364317
0.000246751
0.000486036
0.000808588
0.000436481
0.00099734
0.000754899
0
0
0.00292363
0.000912015
0.00269596
0
0
0.0148451
0.00460366
0
0
0
0
0
0
0
0
0.0189195
0
0
0.0892883
0
0
0
0.000143255
0.000352554
0.00011443
0.000214588
0.000470811
0.000958875
0.000356457
8.21013e-05
0.000132185
3.52875e-05
0.000273199
5.53174e-05
0.000240229
0
0
0
0
0
0
0.0169983
0.00906665
0
0
0.00628762
0
0
0
0
0
0
0.31021
0
0
0
0
0
0
0
0
0
0
0.0367488
0
0
0
0
0
0
0
0
0
0
0
0
0
0
0
0
0
0
0
0
0
0
0.0133192
0
0
0
0
0
0
0
0
0
0
0
0.000602561
0.00552225
0.00865539
0.0488291
0.06093
0
0.0218909
0
0.0130313
0
0
0
0
0
0
0
0
0
0
0
0
0
0
0
0.0407054
0
0
0
0.00857938
0.0149262
0.00960931
0
0
0
0.00472221
0
0
0
0
0
0
0
0
0.000377111
0.000601193
0.000745897
0.000493871
0.000689863
0.000230654
0.00039585
0.00020788
0.000175522
0.000169267
0.000183909
0.000136949
0.000202985
0.000131742
0.000294304
0.000275166
0.000249068
0.000240904
0.000265739
0.000237451
0.000391555
0.000167335
0.000209626
0.000262026
0.000325579
0.000279633
0.000196952
0.000268073
0.000570948
0.000550108
0.000345598
0.000556674
0.000387786
0.000481409
0.000497134
0.00066423
0.000422986
0.000599596
0.000528857
0.000544505
0.000200987
0.000239569
0.000213286
0.000514209
0.000131563
0.000147274
7.29341e-05
6.68751e-05
0.000311303
0.000308233
0.000397514
0.00060406
0.000320784
0.000313527
8.07567e-05
0.000236734
0.000149128
0.000112268
0.00117267
0.000724531
0.000685567
0.000147638
0.00102158
0.000545776
0.000752851
0.000467838
0.00201435
0.000433203
0.0023391
0.00113121
0.00324316
0.00192327
0.000130062
0.00015513
0.000174703
0.000142788
0.000153197
0.000138218
0.000144208
0.000156253
0.000102566
0.000110403
0.000141253
0.000125922
0.000110651
0.000100486
0.000122479
0.000113354
9.04812e-05
7.28611e-05
0.000116639
8.65841e-05
0.000127453
9.19082e-05
0.000152631
9.41655e-05
0.000148496
0
0
0
0
0
0
0
0
0
0.00655225
0
0
0
0
0
0
0.0150264
0
0
0
0
0.0281808
0.00121833
0.00574059
0.0100072
0.00140274
0.00137852
0.00178855
0.000400068
0.000848552
0.00053477
0.000367339
0.000440686
0.000844636
0.000339322
0.000337122
0.000333619
0.000426262
4.61587e-05
0.000321447
0.00028077
0.000191357
0.000115697
0.000277957
0.000350698
0.000107927
0.000249481
0.000248967
0.0001219
0.000285088
0.000188086
0.00017328
0.00014785
0.000157914
0.000182702
0.000142336
0.000234316
0.00019767
0.000135678
0.000183052
0.000120536
0.000184938
0.000113538
0.000141842
8.37235e-05
0.00011758
0.00010371
9.11145e-05
0.000114905
0.000124868
0.000177395
0.000123455
8.35394e-05
0.000208038
0.000217435
6.32194e-05
7.23465e-05
0.000175197
0
0
0
0
0
0
0
0
0
0
0
0
0
0
0
0
0
0.0127794
0
0
0.0322305
0.0202327
0
0
0.0030751
0
0
0
0
0
0.000667503
0
0
0
0
0
0
0
0
0
0
0
0
0
0
0
0.0107045
0.0158541
0.0141703
0
0
0
0
0.0048961
0
0
0.00622953
0
0
0
0
0.0171781
0
0.0104372
0
0
0
0
0
0
0
0
0
0
0
0
0
0
0
0
0
0
0
0
0
0
0
0
0
0
0
0
0
0
0
0
0
0
0
0
0
0
0
0
0
0
0
0
0
0
0
0
0
0
0
0
0
0.00360294
0
0
0
0.00977231
0
0
0.000135275
0.000154806
0.000149097
0.000159592
0.000158444
0.000179116
0.00017955
0.000167535
0.000176561
0.000244694
0.000137501
0.000122937
0.000168102
0.000204964
0.000174943
0.000178712
0.000165849
0.000149502
0.000122101
9.48703e-05
0.000191178
0.000198944
0.000247384
0.000245758
0.000514729
0.000323683
0.000619687
0.000315396
0.000794733
0.000933991
0.000744343
0.000610014
0.000502512
0.000301253
0.000706458
0.000251717
0.000981579
0.00495357
0.000850179
0.00170237
0.000682078
0
0
0.0227148
0.0304451
0
0.018497
0
0.0217128
0
0
0
0
0
0
0