/*--------------------------------*- C++ -*----------------------------------*\
  =========                 |
  \\      /  F ield         | OpenFOAM: The Open Source CFD Toolbox
   \\    /   O peration     | Website:  https://openfoam.org
    \\  /    A nd           | Version:  8
     \\/     M anipulation  |
\*---------------------------------------------------------------------------*/
FoamFile
{
    version     2.0;
    format      ascii;
    class       volScalarField;
    location    "3060";
    object      H;
}
// * * * * * * * * * * * * * * * * * * * * * * * * * * * * * * * * * * * * * //

dimensions      [0 1 0 0 0 0 0];

internalField   nonuniform List<scalar> 
526318
(
0.871118
0.837476
0.911765
0.822521
0.877643
0.840259
0.857804
0.782081
0.841765
0.71678
0.704257
0.814976
0.763958
0.80621
0.773454
0.798372
0.760473
0.949928
0.868938
0.91067
0.906124
0.866459
0.625449
0.866678
0.753111
0.618494
0.881354
0.886293
0.890378
0.908105
0.926402
0.976013
0.964755
0.844716
0.848588
0.814461
0.822614
0.919072
0.837595
0.762312
0.836649
0.807778
0.477024
0.532757
0.436008
0.490164
0.463572
0.580774
0.757431
0.666502
0.738578
0.756707
0.70628
0.659241
0.166518
0.402632
0.40668
0.193905
0.921457
0.931955
0.945029
0.89647
0.848603
0.968218
0.976437
0.94093
0.918919
0.90875
0.811635
0.81529
0.927675
0.712078
0.762412
0.651662
0.605614
0.605441
0.702227
0.689642
0.611317
0.653194
0.728454
0.724947
0.688088
0.632759
0.661398
0.737256
0.738297
0.708316
0.660393
0.734839
0.638587
0.587346
0.585914
0.513413
0.506652
0.511559
0.514018
0.510116
0.508435
0.507762
0.000606982
2.16678e-06
0.000813363
0.0067712
0.0682286
0.000840503
0.423449
0.229862
0.544199
0.50879
0.554023
0.671858
0.887717
0.776413
0.895675
0.90111
0.96884
0.928988
0.991051
0.502852
0.506171
0.50735
0.510804
0.466109
0.506146
0.417298
0.459572
0.369493
0.419193
0.367762
0.368634
0.358695
0.330696
0.326744
0.351328
0.295149
0.349716
0.296237
0.318111
0.263595
0.268647
0.291482
0.316585
0.303704
0.263804
0.26222
0.277575
0.267145
0.260619
0.269194
0.28205
0.267917
0.273358
0.275646
0.273496
0.238537
0.27251
0.275463
0.239926
0.194742
0.277419
0.22076
0.281708
0.768562
0.870177
0.813436
0.801574
0.597757
0.66953
0.595009
0.594376
0.599854
0.594991
0.62516
0.601868
0.534135
0.505353
0.469181
0.413513
0.471258
0.512867
0.513852
0.514204
0.401672
0.45423
0.341721
0.350131
0.359013
0.3519
0.353092
0.353094
0.345443
0.343646
0.341275
0.333492
0.312761
0.335734
0.329657
0.299745
0.281636
0.313167
0.291418
0.28382
0.307765
0.292176
0.300663
0.260333
0.280113
0.30311
0.309311
0.742831
0.754482
0.806008
0.800001
0.755949
0.747123
0.758103
0.636423
0.674731
0.420168
0.385794
0.402391
0.517121
0.665387
0.531721
0.565189
0.576988
0.511152
0.491651
0.007094
5.50688e-05
0.121085
0.363039
0.00027704
9.76159e-09
0.000995694
0.000255125
0.000396609
0.000963311
0.979257
0.945582
0.996867
0.98056
0.97141
0.947982
0.859072
0.942974
0.782669
0.731475
0.730207
0.73913
0.727958
0.732056
0.715544
0.724393
0.643175
0.700718
0.515604
0.578008
0.504842
0.519627
0.000986114
4.56871e-11
0.000146911
0.00101038
0.00178077
0.000975058
0.00102125
0.129668
0.513117
0.329333
0.563511
0.566653
0.674681
0.770436
0.904989
0.907773
0.943484
0.904593
0.974563
1.01887
0.484724
0.486728
0.445456
0.418366
0.316036
0.349396
0.279985
0.285746
0.278217
0.270215
0.261479
0.271152
0.191924
0.217845
0.249572
0.290348
0.347868
0.312274
0.274548
0.269362
0.203769
0.199174
0.250542
0.299403
0.223145
0.265119
0.26324
0.233723
0.227372
0.197935
0.194339
0.158007
0.156682
0.159092
0.145653
0.264197
0.309038
0.266895
0.311063
0.658091
0.633433
0.532691
0.611708
0.53972
0.590938
0.606343
0.589142
0.60129
0.593595
0.50886
0.423734
0.352436
0.337722
0.411505
0.354778
0.338831
0.453844
0.342508
0.392716
0.333736
0.331729
0.340633
0.33187
0.346458
0.341306
0.338624
0.343013
0.341884
0.339515
0.350046
0.344292
0.361762
0.354135
0.358061
0.334284
0.355117
0.328804
0.300283
0.307353
0.330495
0.365172
0.359791
0.329131
0.310626
0.340968
0.383329
0.382704
0.392037
0.358414
0.390729
0.406809
0.440623
0.398838
0.398703
0.426503
0.462916
0.581111
0.661594
0.574224
0.597182
0.673336
0.751988
0.648168
0.509554
0.6402
0.529152
0.547184
0.278045
0.232064
0.254546
0.250783
0.371243
0.493079
0.420871
0.491458
0.485931
0.508333
0.487641
0.000528034
0.00126324
0.0693341
5.05657e-05
0.155827
0.0384055
0.000599399
0.00105324
0.000166495
0.00100962
0.000664765
0.00100889
0.000730728
0.000955715
0.000582482
0.000952703
0.994073
0.985732
1.01814
1.00293
0.984826
0.961165
0.887584
0.808895
0.732588
0.740419
0.726282
0.723711
0.704059
0.704262
0.679899
0.68157
0.630525
0.674921
0.599261
0.5391
0.487505
0.443926
0.000978018
0.00111437
0.00108246
0.000663073
0.000354248
0.000731205
0.000565812
0.000490665
0.00114286
0.00114298
0.000701988
0.00100984
0.000760736
0.00100942
0.00132232
0.00017911
0.000296372
0.000496127
0.000981725
0.000982011
5.90019e-05
0.00101
0.0481491
0.0254758
0.215693
0.0663677
0.429342
0.579163
0.611028
0.682154
0.911068
0.814549
0.917895
0.923195
0.943312
0.966233
1.00462
1.02418
0.403549
0.404633
0.357428
0.383177
0.322882
0.287894
0.278346
0.278194
0.269913
0.281577
0.233869
0.223534
0.169832
0.187193
0.245827
0.222442
0.185991
0.23506
0.226593
0.247095
0.157925
0.14839
0.174489
0.18154
0.183997
0.13603
0.146191
0.136091
0.145954
0.130007
0.12392
0.427065
0.403777
0.403513
0.398702
0.423717
0.5302
0.484137
0.464462
0.352075
0.393041
0.38185
0.385075
0.278851
0.212012
0.390932
0.503908
0.398161
0.402086
0.379941
0.46151
0.440898
0.509839
0.546828
0.474569
0.453135
0.48886
0.367098
0.334467
0.33747
0.335736
0.252049
0.307106
0.233475
0.183924
0.163921
0.284288
0.283724
0.331403
0.330438
0.332089
0.333974
0.332413
0.338114
0.332247
0.345747
0.336985
0.360638
0.351164
0.356763
0.358657
0.378882
0.366427
0.390223
0.398711
0.344335
0.329014
0.393725
0.375575
0.366884
0.383507
0.364401
0.353733
0.402122
0.38401
0.489135
0.492202
0.445602
0.486272
0.494284
0.459395
0.555352
0.525895
0.587813
0.61405
0.639089
0.545592
0.549125
0.554072
0.517363
0.498004
0.469451
0.551517
0.409596
0.382816
0.434472
0.450362
0.135345
0.184019
0.266954
0.388327
0.412025
0.456778
0.355608
0.318476
0.278571
0.227718
0.000965631
0.000592166
0.000989628
6.67355e-07
0.0553266
0.130055
0.000993891
0.000234006
0.00100979
0.000545241
0.00024476
0.000470015
0.000926911
0.000208943
0.000711208
0.000986846
0.000766556
0.000551352
0.000138864
0.000388285
0.00097475
0.00101
0.000132535
0.000999776
0.000976923
0.000381719
0.00119036
0.000960582
0.000980315
0.00119013
0.00119013
0.00119015
0.000853149
0.000999494
0.0009727
0.000201819
9.59135e-05
0.000989075
0.000892979
0.0009482
0.00100959
0.000881287
0.00100974
0.00100225
2.6935e-05
0.000890252
1.00027
0.98565
1.01644
1.01194
0.987758
0.906379
0.740536
0.828594
0.6966
0.704986
0.675565
0.691877
0.670362
0.671884
0.668427
0.673316
0.612047
0.581077
0.484399
0.528156
0.384192
0.423098
0.000851104
0.000624444
0.000948563
0.000967574
0.000969466
0.000982262
0.000986514
0.000879074
0.000998153
0.000728338
0.000677989
0.000965569
0.000971308
0.000759356
0.000380116
0.000991326
0.000690401
0.00100737
0.000803925
0.000839513
0.000369052
0.000975289
0.000889611
0.000439439
0.000917861
0.000884918
0.00111934
0.000288482
1.04249e-05
0.000312934
0.0922586
0.000270922
0.107036
0.103765
0.40127
0.235712
0.610213
0.568292
0.629885
0.741905
0.849621
0.925207
0.929356
0.924048
0.981956
1.00303
0.99152
0.976501
0.00101
0.000734461
0.000886173
0.000269084
0.000930954
0.000922867
0.00081396
0.000929266
0.000890554
0.000725685
0.000975785
0.00092383
0.000794854
5.91556e-07
0.000716784
0.00101
0.000170373
0.383387
0.383476
0.384971
0.347138
0.268964
0.305931
0.228173
0.223782
0.187069
0.182364
0.136749
0.136616
0.163666
0.16349
0.124546
0.161866
0.152245
0.212736
0.182585
0.192302
0.11019
0.0754625
0.0808307
0.123633
0.130959
0.126404
0.103799
0.108197
0.0685234
0.0597342
0.020187
0.0295492
0.625238
0.595078
0.631663
0.644817
0.586334
0.550723
0.715212
0.73293
0.801217
0.819056
0.363057
0.399545
0.448385
0.534356
0.361835
0.300153
0.344118
0.338959
0.17277
0.229554
0.275392
0.161395
0.375587
0.38025
0.376693
0.379992
0.401016
0.379762
0.392742
0.407349
0.288713
0.280478
0.181041
0.267792
0.260623
0.217911
0.168853
0.190085
0.131281
0.151123
0.129813
0.218256
0.278199
0.213963
0.280787
0.331742
0.332043
0.328479
0.334224
0.337417
0.35681
0.353587
0.365713
0.36395
0.384874
0.37479
0.400592
0.398585
0.40455
0.399281
0.410335
0.403602
0.442738
0.416715
0.386101
0.38088
0.450989
0.411755
0.421625
0.460572
0.507926
0.506478
0.509251
0.504023
0.537404
0.588896
0.650806
0.668224
0.678492
0.657252
0.804664
0.732253
0.864181
0.906215
0.896341
0.932411
0.988524
0.858976
0.942059
0.963608
1.04016
1.08874
1.11629
1.13651
1.1668
1.10899
1.16434
1.12117
1.2047
1.20526
1.24912
1.21749
1.2817
1.3071
1.30175
1.24564
1.31315
1.33579
1.30485
1.29683
1.36672
1.34457
1.37411
1.3145
1.31273
1.38336
1.34517
1.29827
1.29808
1.33168
1.3678
0.353716
0.317773
0.489845
0.484223
0.454548
0.446328
0.446818
0.209335
0.349084
0.055271
0.0787064
0.185496
0.168706
0.0371613
0.119226
0.105963
0.285335
0.181737
0.187127
0.0989674
0.0916308
0.104617
0.121169
0.000349165
0.00106012
0.000703523
9.79447e-05
0.000548926
3.24071e-05
0.00101
0.000966006
0.000995857
0.000691453
2.21892e-05
0.00129755
0.000842141
0.000928041
0.000844807
0.000818778
0.00020823
0.00069126
0.000943677
0.000831092
0.00112483
0.00076596
0.00012748
0.000146108
0.000949
0.000255762
1.26965e-05
1.61879e-05
0.000990101
0.000818938
0.00100231
0.000803494
0.000911134
0.000410555
0.000489319
0.000846822
0.000762255
0.000945839
0.000973243
0.00101263
0.000993239
0.000995358
0.00130965
0.000916626
0.00118534
0.000936811
0.00118521
0.00118488
0.00118047
0.000979681
0.00118574
0.00118551
0.000315934
0.00084593
0.00103023
0.000885027
0.000917569
0.000377029
0.000991017
0.000960908
0.00100744
0.000997061
0.000136942
0.00100312
0.000950381
0.000921886
0.000915695
0.000919934
0.000875345
0.00129935
0.000857109
0.000968314
0.977819
0.968497
0.93531
0.9503
0.841377
0.927086
0.741316
0.696939
0.671828
0.676686
0.672368
0.678508
0.616122
0.618115
0.463116
0.423797
0.384555
0.552214
0.557079
0.503404
0.506521
0.505411
0.000653985
0.000453748
0.00122464
0.00120823
0.000962471
0.000414864
0.000651542
0.000410365
0.000991015
0.00102805
0.000161511
0.00100893
0.000972717
0.000941946
0.000297472
0.000985833
0.000726155
0.00091818
0.00021426
0.00071546
0.000650448
0.000951565
0.00115092
0.00115127
0.000251755
7.96909e-06
0.000487534
0.103801
0.230973
0.105985
0.402341
0.565909
0.60657
0.61945
0.714577
0.822512
0.89332
0.870355
0.917008
0.842212
0.887979
0.945097
0.88363
0.887925
0.00125018
0.000854964
0.00101409
0.000849207
0.000993546
0.00120529
0.000764068
0.000796892
0.00120526
0.000920789
0.00100237
0.00096781
0.000776524
1.14836e-05
0.000812372
0.000727573
0.000776991
0.000656439
0.00098774
0.000236686
0.000248866
0.000448856
0.00096459
0.000795867
0.00126628
0.000452394
0.355764
0.356176
0.276797
0.29603
0.170495
0.19458
0.135099
0.133822
0.134816
0.132622
0.10726
0.107857
0.0822112
0.086253
0.0607977
0.0968869
0.178858
0.135333
0.181474
0.181795
0.000937414
0.0190658
0.058523
0.0394641
0.0457795
0.0498848
0.000935354
0.000227548
0.000999296
0.000665684
0.00178697
0.000982942
0.844808
0.851711
0.674698
0.591052
0.577041
0.56705
0.845068
0.751232
1.00418
1.07607
0.970986
0.906916
1.0912
1.07596
1.14083
1.18976
1.21923
1.21785
1.2448
1.21724
1.27443
1.29762
1.29447
1.29059
1.31377
1.29914
1.29866
1.34745
1.28618
1.28436
0.409306
0.33757
0.472103
0.555882
0.336267
0.283254
0.339401
0.337361
0.172437
0.21588
0.0532512
0.219699
0.104097
0.379226
0.319791
0.378944
0.371065
0.378127
0.273367
0.174934
0.0946981
0.0828381
0.0975961
0.1369
0.0602434
0.0460445
0.000578666
0.0592854
0.143883
0.140506
0.0590612
0.160739
0.225931
0.175022
0.280517
0.227164
0.268641
0.324429
0.359377
0.341404
0.368676
0.371068
0.385575
0.372748
0.405588
0.419595
0.418201
0.428762
0.431206
0.437524
0.469722
0.481826
0.472988
0.465084
0.467189
0.46076
0.480783
0.498632
0.546066
0.536294
0.50161
0.532217
0.53142
0.558191
0.602473
0.651523
0.685529
0.692628
0.703049
0.768863
0.857668
0.924175
0.94033
1.06894
0.938898
0.990366
1.14215
1.16544
1.16659
1.20085
1.25064
1.29957
1.3092
1.31386
1.34032
1.37145
1.3949
1.39771
1.39458
1.39753
1.39804
1.37867
1.31315
1.37954
1.34655
1.30061
1.29896
1.33358
1.36371
1.37432
1.30119
1.36236
1.31906
0.141614
0.131875
0.205922
0.284271
0.176285
0.236006
0.378514
0.308836
0.336301
0.175883
0.0789289
0.0417837
0.0447859
0.143517
0.1363
8.73112e-09
0.000407597
0.092414
0.000467473
0.0934354
0.0952111
0.103188
0.0931781
0.111967
0.12801
0.000871197
0.000837817
0.000904459
0.000794591
0.00127649
0.00127626
0.00086849
0.000172666
0.000844692
0.00129706
0.000981197
0.000913041
0.000478021
0.000315336
0.000584166
0.00101
0.000653617
0.00112438
0.000934557
0.000984534
0.000978935
0.000660221
0.000998234
0.000701989
0.00100779
0.000868975
0.00105325
0.0009562
0.000856278
0.000744326
0.00116691
0.000104109
0.00099613
0.000976554
0.000281839
0.000821319
0.000544652
0.000936558
0.000765323
0.000969466
0.000958685
0.000929796
0.000978339
0.000943996
0.000974885
0.00092222
0.000267792
0.00146758
0.000945343
0.00106127
0.00088961
0.00100962
0.000641972
0.000367709
0.000916152
0.000960434
0.000955482
0.000892128
0.000742206
0.000479733
0.890741
0.887127
0.868227
0.881596
0.809132
0.858138
0.67005
0.738386
0.644553
0.637511
0.574859
0.55944
0.509596
0.505976
0.421748
0.316398
0.29476
0.463261
0.504711
0.50445
0.505423
0.506823
0.00124335
0.000983829
0.00124662
0.000283097
0.000973634
0.000953788
0.000983979
0.000963159
0.000983712
0.000813892
0.000135327
0.000443538
0.00093376
0.000982119
0.00060297
0.00100999
0.00098232
3.53596e-05
0.000985985
0.000873381
0.000276721
0.00075901
0.000592506
0.00102584
0.000321117
8.37491e-07
0.0736748
0.105941
0.295989
0.132959
0.441954
0.573365
0.546435
0.655795
0.815985
0.731013
0.799703
0.815486
0.788519
0.822135
0.876849
0.876831
0.881352
0.849398
0.000769413
0.000922585
0.000573493
0.000958878
0.000712787
0.000933944
0.000627141
0.000311966
0.000811818
0.000879841
0.000957505
0.000915121
0.0010275
0.000863652
0.000940791
0.000873917
0.00096514
0.000987798
0.000910493
0.00107258
0.000726992
0.00107239
0.00090386
0.000901385
0.00101
0.000860782
0.000668131
0.000529485
0.000136748
0.000756032
0.000938482
0.232637
0.230825
0.19348
0.175094
0.131318
0.152622
0.116492
0.119649
0.276993
0.216745
0.197904
0.0463362
0.0585666
9.39225e-05
0.000890775
0.0596483
0.0589301
0.0522818
0.0924869
0.148285
0.106022
0.141891
0.123459
0.0181919
0.000870536
0.0116558
0.034796
0.000589834
0.000947034
1.30661e-05
0.00052455
0.000737284
0.000689738
0.000594218
0.000846608
1.42143
1.42902
1.45716
1.43473
1.47773
1.46471
1.48486
1.47905
1.53247
1.52013
1.48466
1.53751
1.5069
1.55361
1.38931
1.3406
1.36016
1.41002
1.39101
1.3619
1.36317
1.41786
1.4206
1.39905
1.37809
1.43203
1.41444
1.42086
1.44977
1.29991
1.29948
1.29908
1.29836
1.31838
1.33676
0.894767
0.840924
0.732375
0.63974
0.549455
0.631303
0.82909
0.806274
1.05514
1.06856
0.965216
1.03969
1.08222
1.12676
1.17821
1.21863
1.21814
1.21831
1.21551
1.24379
1.25919
1.28041
1.27124
1.27086
1.27516
1.28563
1.26351
1.26531
0.459274
0.387795
0.329301
0.325312
0.377491
0.553439
0.526598
0.256315
0.313679
0.194385
0.128695
1.40844
1.42716
1.44337
1.44964
1.45692
1.46946
1.46683
1.50011
1.47948
1.5029
1.49709
1.54795
1.56996
1.5913
1.59245
1.59202
1.60878
1.63276
0.0952118
0.0449128
0.0400705
0.302665
0.191735
0.362744
0.26452
0.1838
0.0830105
0.0853306
0.0812283
0.0833304
0.000167475
0.0120239
0.000327472
0.000755941
4.32227e-15
6.10001e-120
0.15074
0.082889
9.43412e-22
0.176527
0.172588
0.176859
0.233348
0.188847
0.311658
0.263096
0.344008
0.309656
0.345927
0.375418
0.400823
0.421386
0.438415
0.445491
0.448976
0.446252
0.507453
0.487221
0.482893
0.481216
0.526597
0.512821
0.578678
0.53581
0.518183
0.564394
0.607895
0.60247
0.625798
0.649565
0.652957
0.603378
0.714849
0.742704
0.714967
0.702134
0.787276
0.865281
0.941343
1.00837
0.954645
0.969622
1.10096
1.15888
1.2049
1.18157
1.24884
1.27856
1.32077
1.33448
1.32737
1.35164
1.40662
1.38529
1.39834
1.40344
1.39475
1.39425
1.39717
1.39453
1.3982
1.39627
1.39535
0.12904
0.123147
0.149862
0.0658275
0.0829135
0.103547
0.0385114
0.183248
0.0839117
0.021654
0.0421686
0.0183557
0.000416007
0.0187115
0.043488
0.00020224
1.02584e-06
1.73116e-09
0.000430599
0.0920047
0.000976489
0.000264579
0.00105345
0.000309446
0.000900462
0.000164142
0.000934225
0.000951296
0.00114149
0.00114135
0.00127601
0.000695991
0.00109794
0.000982366
0.000776109
0.00096702
0.000896738
0.000998449
0.00026155
0.000888291
0.00100984
0.000894905
0.00114111
0.000644723
0.000398457
0.000668916
0.000974692
0.000270015
0.000740386
1.98181e-07
3.27059e-05
0.00238818
0.000308883
0.00101
0.000694792
0.000545923
0.000997667
0.000426985
0.00100993
0.000972649
0.000977525
0.000963111
0.000999516
0.000666739
0.00111023
0.000965618
0.000740224
0.00111995
0.000810563
0.000988976
0.00089779
0.000955844
0.000631827
0.000258775
0.000798096
0.000964465
0.000941166
0.000838222
0.0010252
0.000340886
0.000810332
0.000691147
0.000978177
0.000925692
0.000935309
0.000928797
0.00091709
0.000695524
0.000567275
0.0017457
0.000248687
0.000674617
0.000835469
0.000984389
0.00175014
1.58597
1.55251
1.52373
1.62953
1.66429
1.65516
0.879457
0.857011
0.841559
0.848601
0.773231
0.854764
0.660767
0.593692
0.523093
0.541446
0.506528
0.506181
0.50644
0.504494
0.382358
0.30333
0.392701
0.46804
0.471036
0.00093523
0.000805784
0.000875173
0.000890082
0.000999727
0.000971927
0.000922744
0.000493094
0.000928118
0.000560941
0.00100943
0.000984735
0.000971046
0.0698355
0.104953
0.13141
0.00100998
0.000498781
0.000128694
0.000927014
4.59314e-06
0.000270658
0.000921556
0.000807101
0.000578765
0.000783296
0.000581251
0.272429
0.410767
0.523936
0.529577
0.852866
0.76986
0.780673
0.565902
0.654609
0.739517
0.784914
0.792256
0.801855
0.824563
0.834985
0.841607
0.000759567
0.00110364
0.000626052
0.000982796
0.000841784
0.000869197
0.00100904
0.000845157
0.000736564
0.000835941
0.000817811
0.000932446
0.000763197
0.000997595
0.00100991
0.000999943
0.000929381
0.00103227
0.000964517
0.00101629
0.000911307
0.000824304
0.000770427
0.00097601
0.000953701
0.000887436
0.000425814
0.000801713
0.000962731
0.000992233
0.00108005
0.000984843
0.000980449
0.00100956
0.000818042
0.00101
0.001009
0.232077
0.264965
0.256647
0.198274
0.194475
0.167009
0.186903
0.0595027
0.0853006
0.000427183
0.000393746
0.200209
0.189006
0.000407844
0.000895767
0.000636596
0.00104454
0.0112952
0.000968098
0.0289616
0.0009935
0.100497
0.0502993
0.0973312
0.107795
7.80079e-06
0.000680105
0.000702988
0.000430514
0.000681385
0.000551523
0.000693939
9.93495e-05
0.000358069
0.000994303
8.71897e-06
0.000979051
1.42363
1.4371
1.45875
1.48086
1.48221
1.48716
1.51393
1.49937
1.35071
1.35229
1.33545
1.35655
1.39066
1.35185
1.40016
1.37228
1.28828
1.27569
1.27336
1.30393
1.33256
1.30637
0.901696
0.821028
0.718081
0.804928
0.658631
0.560874
0.814552
0.817507
1.05876
1.05879
1.07163
0.973011
1.05091
1.15943
1.10789
1.05087
1.09097
1.19464
1.20799
1.1975
1.20507
1.21457
1.2371
1.26547
1.2524
1.2629
1.25827
1.26144
1.25744
1.26177
1.2624
0.299411
0.306388
0.450314
0.528567
0.314136
0.389267
0.545987
0.559819
0.295203
0.231159
0.154216
0.219138
1.4393
1.39738
1.41498
1.46132
1.45951
1.4641
1.4699
1.49678
1.51117
1.5238
1.5285
1.53071
1.55304
1.59319
1.57395
1.59256
1.61322
1.66046
1.63343
1.46769
1.48048
1.49273
1.66481
1.66097
1.66403
0.0436066
0.0430449
0.0428095
0.0146802
0.113255
0.126328
0.000505836
0.000681498
0.00402909
0.000969621
0.000987477
0.000948728
0.000694796
0.00135045
0.000581724
0.00135041
0.000969713
5.44707e-06
0.0296839
7.77756e-08
0.00175542
0.107133
0.18084
0.0915017
0.251934
0.274582
0.213321
0.248988
0.313914
0.281335
0.407306
0.346505
0.418726
0.431904
0.440253
0.433112
0.485902
0.520799
0.553934
0.555986
0.564683
0.548417
0.575853
0.552989
0.607175
0.61301
0.631708
0.633632
0.605977
0.610756
0.730545
0.782415
0.672164
0.742998
0.785147
0.750532
0.847016
0.893675
0.99472
1.03013
1.0114
1.10138
1.15447
1.25951
1.23652
1.29658
1.27782
1.37188
1.37382
1.36646
1.39811
1.42464
1.42344
1.47876
1.44153
1.46821
1.43298
1.43113
1.4647
1.3993
1.43472
1.39926
0.000361082
0.000122688
0.000899768
0.000190265
0.0604214
0.0410472
0.0337773
0.0204277
0.0390609
0.000491864
0.000850924
0.000545905
0.000133604
0.000856721
0.000526715
0.00037908
0.000807623
5.25169e-05
0.000302915
2.90507e-05
0.000617348
0.0002543
5.50518e-07
0.000290347
0.000978557
0.000531376
0.000999883
0.000184764
0.00114133
0.0011413
0.000978679
0.000995782
0.000992745
3.82214e-05
0.00101
0.000912008
0.0010004
0.000112849
0.00044385
0.000919656
0.000653801
0.000297927
0.00151183
0.000110051
0.000984734
7.31489e-05
0.0009581
0.000364482
0.00099819
2.55198e-05
0.000993831
0.00219298
0.000973623
0.000134455
0.000947799
0.00130521
0.00111556
0.000470449
0.00100983
0.000979813
0.000465046
0.000983408
0.000969573
0.000835887
0.00111033
0.00111044
0.00093398
0.000963735
0.00111041
0.00111041
0.000955402
0.00082527
0.000711032
0.000919589
0.00125281
0.000119992
0.00125248
0.000950146
0.00098702
0.000966821
0.000954552
0.00100415
0.00104854
0.00104915
0.000882994
0.000805878
0.000827454
1.24245e-05
9.12481e-06
0
0.000997254
0.000799517
0.000430028
0.000896553
0.00111545
0.000923733
0.00100958
0.00100998
0.000991988
0.000998553
0.000946811
0.000914726
0.00101
1.54714
1.56731
1.55884
1.55763
1.59347
1.70745
1.6805
1.68256
1.7076
1.64583
0.782647
0.756404
0.693156
0.70546
0.661247
0.686568
0.601788
0.55267
0.541666
0.504941
0.479607
0.482456
0.38942
0.402102
0.270819
0.312207
0.31158
0.000529692
0.000965684
0.000913493
0.00101
0.000967147
0.000933412
0.000739414
0.103427
0.244896
0.10215
0.000919443
0.000208654
0.000955226
0.000967691
0.00061128
0.000506995
0.00101
0.000964607
0.000952933
0.00102279
0.000849804
0.000989404
0.000944045
0.000847483
0.00025022
0.646455
0.644144
0.672064
0.384303
0.527028
0.521651
0.561567
0.683381
0.762382
0.719304
0.623375
0.705279
0.738559
0.742123
0.647211
0.67493
0.000957717
0.000994662
0.00110367
0.00106564
0.000451132
0.000936548
0.00106692
0.0012304
0.00094751
0.000990984
0.000160682
0.0018279
0.000972027
0.000936631
0.000510229
0.00282054
0.00281663
0.0028179
0.000344084
0.000936002
0.000775127
0.00104177
0.00088513
0.000977282
0.000898796
0.00103322
0
0
0
0.000959356
0.000976732
0.00118967
0.00100136
0.000836671
0.000429196
0.000849409
0.000930546
0.000997229
0.0010054
0.000330773
0.000955468
0.000958008
0.000969942
0.000686934
0.000956112
0.248019
0.256999
0.268926
0.138343
0.160861
0.119276
0.118383
0.0466029
0.0362906
0.000797152
0.000497947
0.0011682
0.00216812
0.0499722
0.045477
0.000406739
0.000517765
0.000242686
0.000584634
0.000392278
0.000720446
0.000787149
0.0134426
0.0963349
0.0592717
0.124285
0.0754865
0.000105983
0.000894716
0.000711075
0.00124706
0.000312228
0.000747328
0.00071994
0.000346646
0.00101
0.000942721
0.000711123
0.00136116
1.42557
1.37934
1.45759
1.4222
1.42486
1.48096
1.46947
1.52212
1.47549
1.54374
1.47716
1.47574
1.54213
1.51965
1.316
1.31812
1.30821
1.32213
1.33621
1.34891
1.34817
1.35634
1.26311
1.2601
1.28795
1.26951
1.30072
1.30664
0.90076
0.819011
0.744712
0.819167
0.610197
0.709047
0.817825
0.822877
1.04971
1.04923
1.05172
0.978168
1.13548
1.18357
1.09522
1.04858
1.19051
1.18956
1.20594
1.1885
1.22553
1.25116
1.25908
1.26557
1.27101
1.25174
1.26151
1.26193
1.26308
1.24434
0.299492
0.299329
0.467255
0.54429
0.445138
0.367911
0.594264
0.541904
0.26849
0.301289
0.265203
0.189467
1.4356
1.47316
1.45559
1.48307
1.50182
1.49113
1.52473
1.53656
1.51342
1.52271
1.51676
1.52527
1.5293
1.55365
1.57675
1.59296
1.59486
1.64816
1.62468
1.67366
1.68106
1.54636
1.56092
1.68178
1.69039
0.000421286
0.000676128
0.000697732
0.000866598
0.000525806
9.99349e-05
0.000222581
0.000225079
0.00102809
1.02296e-05
0.000927799
0.000258474
0.000581916
0.000657476
5.07035e-06
0.000780461
0.00175481
0.000581138
0.00100197
1.24671e-14
0.00056659
0.0342034
0.177674
0.0816293
0.270912
0.269469
0.232914
0.185097
0.305702
0.350778
0.40113
0.39396
0.413755
0.405512
0.520271
0.479632
0.57379
0.565408
0.590674
0.595473
0.575372
0.624543
0.673592
0.644873
0.628468
0.657672
0.706222
0.69267
0.673509
0.718355
0.801137
0.800892
0.798028
0.813298
0.944956
0.861816
1.02907
1.05864
1.05775
1.12228
1.20452
1.26957
1.28806
1.29002
1.34778
1.38674
1.42981
1.42344
1.46044
1.44135
1.49395
1.502
1.50881
1.50253
1.50657
1.50356
1.47307
1.50372
1.47358
0.000846649
8.87523e-05
0.00548892
0.00102595
0.000769673
0.000814499
0.000713904
0.000802993
0.000805824
0.000466089
0.000822713
0.00124639
0.000318075
0.00124628
0.00124623
0.00124631
0.00124685
0.00099788
0.00124717
0.00527163
0.000997212
0.000638589
0.000184916
0.0022323
0.000295133
0.00223222
0.0022327
0.000471929
0.000485452
0.00100217
0.000993637
0.000687571
0.00091136
0.000526372
0.00109371
0.00104535
0.000785737
0.000959982
0.00100986
0.000887496
0.000962023
0.000962263
0.00151358
0.000989728
0.000146754
1.36216e-05
0.000607696
0.00096357
0.000988249
0.000479144
0.000826696
0.000983388
0.00100941
0.00031059
9.65809e-05
0.000987756
0.00100992
0.000817418
0.000560979
0.000890516
0.00101
0.000799183
0.000974516
0.000279366
0.000904827
0.00095865
0.000968031
0.00101
0.000954704
0.000876282
0.000886752
0.00100949
0.00097168
0.000773375
0.000984106
0.000952799
0.000903871
0.00098992
0.000934564
0.000964099
0.000974876
0.000974485
0.00130015
0.000984131
0.000905098
0.000646506
0
0
0
0
0
0
0
0
0
0
0
0
0
0
0
0
0
0
0
0.00099334
0.000901513
0.000937661
0.000812305
0.00097721
0.000436148
0.00094899
0.00110635
0.000325168
0.000811332
0.000317982
0.000878445
1.73501
1.72334
1.74065
1.72986
1.74215
1.74127
1.56908
1.57451
1.64737
1.61641
1.70432
1.7314
1.70206
1.58065
1.54291
0.634428
0.64025
0.635487
0.623417
0.644303
0.571607
0.618114
0.401465
0.458056
0.322618
0.322812
0.268963
0.270697
0.267662
4.53839e-05
0.000924769
0.000502491
0.00130141
0.0783681
0.270839
0.101412
0.00101287
0.000882778
0.0566397
2.11131e-05
0.000976565
0.000946011
0.000961879
0.000988071
0.000717645
0.000362926
0.000983312
0.00102422
0.000206359
0.00103128
0.000932938
0.0004632
0.000724678
0.640148
0.638994
0.64381
0.641455
0.647802
0.350217
0.47313
0.407257
0.535261
0.588124
0.621751
0.543418
0.630747
0.582864
0.582895
0.572696
0.000954778
0.00115043
0.000639654
0.000970576
0.000973219
0.000935143
0.000930868
0.00101892
9.939e-05
0.000755055
0.00101721
0.000552109
6.92933e-05
0.000527482
0.000781949
0.000616055
0.000763669
0.000919235
0.000859172
0.00101595
0.000696216
0.000940127
0.000740767
0.000726241
0.000621516
0.00100951
0.000739043
0.000916121
0.000354107
2.15212e-05
0
0
0
0
0
0.000973716
0.000976565
0.000907267
0.00117608
0.00106599
0.000595782
0.000835369
0.000533782
0.000950777
0.00100911
0.000964926
0.000965413
0.000722883
0.000993559
0.000787048
0.000894828
0
0
0
0
0
0
0.248711
0.177701
0.160408
0.0950493
0.0840673
0.00536986
0.000339103
0.000401196
0.000580795
0.000489483
0.00215402
0.000836704
0.000375808
0.000550644
0.00033854
0.000764154
0.000794763
0.000795758
0.000905726
0.000971356
0.000998835
0.0580848
0.116983
0.0387785
0.000488202
0.000715023
0.000724078
0.000512249
0.0070326
0.00027789
0.000678737
1.31742e-05
0.000467482
0.00182574
0.00182448
0.000734631
0.000959699
0.000281529
0.000798649
0.00100972
0.000818552
1.39428
1.37759
1.38883
1.38935
1.40276
1.39658
1.42496
1.47805
1.45803
1.48034
1.5396
1.49784
1.45695
1.30894
1.30637
1.33489
1.32087
1.34878
1.34771
1.37085
1.35743
1.25942
1.26724
1.29209
1.27411
1.28886
1.2969
0.936284
0.861884
0.783212
0.819681
0.764123
0.670669
0.853875
0.822575
1.05398
1.05392
1.01432
1.05577
1.14249
1.19158
1.05629
1.1007
1.19308
1.18931
1.21446
1.1964
1.23484
1.25361
1.24857
1.24682
1.26645
1.25177
1.25686
1.2539
1.26068
1.25475
0.294557
0.359752
0.543961
0.515919
0.444652
0.523209
0.539773
0.617415
0.291391
0.28177
0.274479
0.204526
0.0355502
0.0762011
0.157929
1.50601
1.50991
1.53856
1.52882
1.55349
1.5645
1.56522
1.56361
1.5984
1.5784
1.59062
1.55678
1.5898
1.5978
1.6257
1.6434
1.65914
1.65663
1.71013
1.70886
1.73503
1.71062
1.61716
1.6239
1.74273
1.74184
0.00016622
0.000334169
0.00101
8.80868e-06
0.000729054
0.00125027
0.00125015
0.000829698
0.000305007
0.000153505
0.000188291
0.00185608
0.00131725
0.000368826
0.000822227
0.000835447
0.00100232
0.000626775
0.0208606
0.000993276
8.95458e-05
0.0722634
0.113326
0.130053
0.114511
0.222477
0.290545
0.166415
0.386552
0.320251
0.398786
0.403397
0.490692
0.430835
0.553539
0.587436
0.578752
0.584883
0.70592
0.676137
0.646383
0.697731
0.717905
0.717418
0.713542
0.702937
0.716004
0.71862
0.798171
0.841254
0.878968
0.83642
0.87751
0.904891
1.04557
0.978982
1.06934
1.0554
1.14171
1.20632
1.3029
1.28877
1.33294
1.36383
1.44027
1.43506
1.45304
1.46131
1.4918
1.49545
1.52067
1.50785
1.52445
1.51528
1.50585
1.5225
1.50762
1.50938
0.000986449
0.000936247
0.00104939
0.000736899
0.000960153
0.000657298
0.000566723
0.00118281
0.000766731
0.00124453
0.000321248
0.000857559
0.000295436
0.00124583
0.00124738
0.00124699
0.00124681
0.00124687
0.00124613
0.000330456
0.000371652
0.00100886
0.000717288
0.000938422
0.000788581
0.00100179
0.000895704
0.000997704
0.000180038
0.000954666
0.000624923
0.00101
0.000209386
0.000747486
0.00100863
0.00104474
0.00069795
0.000881619
0.000916897
0.00374766
6.14578e-05
0.000210438
0.00024578
0.00100978
0.000913563
6.55138e-09
0.000992573
0.00100983
0.000283346
0.000848872
0.00100647
0.000131712
0.00100976
0.000959372
0.000189704
0.000986414
0.000975827
0.000994279
0.0034239
0.000980885
0.000759889
0.00098777
0.00084573
0.000781318
0.00112065
0.0011205
0.00112042
0.000896489
0.000943214
0.000888864
0.000973731
0.000935172
0.000927075
0.000961192
0.000874935
0.000897996
0.000947049
0.000951887
0.000925848
1.67713e-05
0.000881191
0.00092376
0.0003855
0.000414352
0.00098456
0
0
0
0
0
0
0
0
0
0
0
0
0
0
0
0
0
0
0
0.000976953
0.000945213
0.00101117