/*--------------------------------*- C++ -*----------------------------------*\
  =========                 |
  \\      /  F ield         | OpenFOAM: The Open Source CFD Toolbox
   \\    /   O peration     | Website:  https://openfoam.org
    \\  /    A nd           | Version:  8
     \\/     M anipulation  |
\*---------------------------------------------------------------------------*/
FoamFile
{
    version     2.0;
    format      ascii;
    class       volScalarField;
    location    "3060";
    object      nut;
}
// * * * * * * * * * * * * * * * * * * * * * * * * * * * * * * * * * * * * * //

dimensions      [0 2 -1 0 0 0 0];

internalField   nonuniform List<scalar> 
526318
(
0.000212607
0.000138795
0.000150751
0.00022877
3.63474e-05
8.26235e-05
0.000104647
4.4536e-05
0.00027076
0.000145249
0.000148523
0.000182621
0.000217121
1.22464e-05
0.000155733
0.000258837
6.75669e-05
0.000104293
0.000168475
0.000191295
0.000147078
7.06072e-05
0.0002243
0.00016594
0.000370242
0.000321211
5.81118e-05
7.15372e-05
0.000242055
9.01729e-05
0.000120977
0.000203638
8.55944e-05
0.000146234
0.000385034
3.579e-05
0.000328064
0.000288362
7.02364e-05
0.000180971
5.07247e-05
0.000210308
0.000214894
0.000445749
0.000356935
0.00024204
5.37817e-05
0.000183958
0.00025056
7.91115e-05
0.000119718
0.000150824
0.000165548
1.53261e-05
0.000329994
0.000514508
0.000624484
0.000684642
0.000227956
7.53475e-05
1.49206e-05
0.000184112
0.000115096
0.000137648
6.97449e-05
0.00013239
0.000220396
0.000189305
2.16918e-05
0.000191189
0.000174584
0.000105293
0.000106346
5.58149e-05
3.76049e-05
6.15321e-05
6.44302e-05
7.768e-05
8.22975e-05
7.13747e-05
0.000101065
2.18808e-05
4.87843e-05
5.84577e-05
1.07402e-05
0.000147524
0.000104252
0.000124873
3.6113e-05
0.000133227
4.0835e-05
0.000150428
3.58731e-05
0.000106071
0.000157402
8.01473e-05
3.30291e-05
2.62348e-05
4.53883e-05
5.85784e-05
0
0
0
5.10052e-06
3.34855e-05
0
0.000172371
0.000104969
7.984e-05
0.000148399
0.000148657
0.000203986
0.000147603
0.000179776
3.62396e-05
0.000125054
0.000112373
6.51825e-05
7.75689e-05
4.63771e-05
7.03411e-05
4.51829e-05
6.60075e-05
3.99747e-05
2.84716e-05
2.56009e-05
5.3573e-05
3.14204e-05
2.97559e-05
3.98555e-05
3.78909e-05
2.88143e-05
3.31947e-05
4.08691e-06
4.13813e-05
2.18672e-05
3.3435e-05
2.14692e-05
1.35128e-05
5.18799e-05
1.11797e-05
6.55689e-06
3.28122e-05
1.84224e-05
2.24923e-05
2.49717e-05
2.02775e-05
3.55172e-05
2.47854e-05
2.72547e-05
5.05396e-05
2.04417e-05
4.60697e-05
3.14242e-05
3.81379e-05
5.64561e-05
5.07499e-05
7.01481e-05
5.37016e-05
2.92712e-05
1.21206e-05
1.37055e-05
7.23958e-05
0.000179509
0.000140269
3.15487e-05
0.00011857
7.91394e-05
0.000175272
0.00011815
6.23362e-05
5.1417e-05
9.11789e-05
0.000126573
2.82628e-05
3.90821e-05
0.000115638
0.000136761
3.11048e-05
3.58592e-05
7.43944e-05
5.99677e-05
2.5978e-05
2.2785e-05
7.49092e-05
4.71439e-05
2.00723e-05
4.30134e-05
5.84371e-05
1.30836e-05
1.89543e-05
1.49217e-05
1.04907e-05
9.86077e-06
2.66116e-06
6.1042e-05
4.18197e-05
5.16266e-05
4.82466e-05
5.5747e-05
3.38616e-05
5.99759e-05
2.06409e-05
6.53045e-05
1.2068e-05
1.20289e-05
6.72025e-05
2.34e-05
2.87048e-05
3.00679e-05
0.000350225
0.000410647
0.000283118
0.000242475
0.000239632
0.000155628
0.000259118
0.00014553
0.000164093
0.000409963
0.000281296
0.000141071
0.000170221
0.000143008
9.63106e-05
2.17572e-05
0.000154328
0.000139138
5.24184e-05
1.64825e-05
0
0.000318672
0.000555105
0
0
0
0
0
0
0.000121035
0.000209452
0.000137317
3.13611e-05
0.000159323
6.67298e-05
0.000126537
8.1167e-05
7.43989e-05
0.000224408
0.000168714
0.000216997
1.66733e-05
0.000182442
0.000182125
5.03024e-05
0.000119989
3.65021e-05
8.37838e-05
8.16698e-05
4.46399e-05
2.14907e-05
0
0
0
3.82476e-09
5.44891e-08
0
0
7.43355e-05
0.000132732
1.57464e-05
5.35014e-05
2.6151e-05
0.000149224
0.000161346
3.76261e-05
9.82841e-05
5.48765e-05
0.000140316
0.000123771
6.50483e-05
3.27553e-05
3.77751e-05
3.23887e-05
3.45188e-05
7.92276e-06
2.6669e-05
1.65357e-05
2.12932e-05
3.15245e-05
1.49782e-05
4.09469e-05
1.9019e-05
4.65142e-05
1.57293e-05
5.04483e-05
3.78282e-05
4.13237e-05
6.48017e-05
3.87884e-05
4.77745e-05
4.51749e-05
3.87578e-05
5.83543e-05
8.86533e-05
6.44616e-05
3.83184e-05
3.64997e-05
1.49874e-05
4.94306e-05
2.24207e-05
5.04105e-05
5.49314e-05
2.77476e-05
1.63922e-05
2.29294e-05
4.14877e-05
1.53201e-05
5.49897e-06
2.72738e-05
0.000124682
0.000133168
0.000198617
0.000121296
9.87331e-05
4.9243e-05
7.29966e-05
7.25203e-05
4.45e-05
6.6872e-05
6.66367e-05
9.42124e-05
0.000120581
1.80777e-05
0.000110434
3.27187e-05
5.33274e-05
0.0001125
7.14163e-05
3.5236e-05
8.72626e-05
3.14043e-05
3.11853e-05
7.31415e-05
1.87692e-05
3.74231e-05
1.74545e-05
2.28574e-05
3.50906e-05
1.39747e-05
4.71661e-05
6.28703e-05
3.65606e-05
3.60896e-05
3.02327e-05
1.8665e-05
7.74075e-05
4.22433e-05
7.94598e-05
4.81562e-05
5.58999e-05
7.57058e-05
6.30723e-05
7.99384e-05
0.000120078
8.72518e-05
6.61784e-05
6.12768e-05
6.86906e-05
5.34538e-05
7.59128e-05
4.81487e-05
8.04985e-05
8.86945e-05
8.23586e-05
0.000125344
6.88244e-05
0.000169498
0.00012847
5.38003e-05
0.000146447
0.000248331
0.000172137
0.000126951
0.000197102
0.000188609
5.15807e-05
6.38626e-05
0.000221407
0.000318549
0.000220545
0.000104078
6.18573e-05
8.93599e-05
9.65208e-05
0.000148679
6.49132e-05
0.000116722
5.19886e-05
0
2.32656e-06
0.00015708
0
4.95274e-05
6.54588e-05
0
2.99262e-09
0
0
0
0
0
0
0
0
0.000134103
0.000123498
7.06456e-05
0.000146649
0.000162407
7.76387e-05
8.03199e-05
0.00017665
0.000146086
0.000123672
0.00024566
0.000193603
0.000153826
5.82231e-05
8.32437e-05
7.16954e-05
6.52539e-05
5.62908e-05
5.3463e-05
1.48283e-05
3.54594e-05
2.98422e-05
0
4.45378e-08
3.55692e-08
0
0
0
0
0
3.3936e-09
3.41293e-08
0
0
0
0
2.63993e-09
0
0
0
0
0
0
0
4.37945e-05
7.54896e-06
9.85824e-05
1.60813e-05
6.60364e-05
0.00013124
8.89802e-05
3.67722e-05
4.79944e-05
5.57649e-05
0.000139304
5.5599e-05
0.000131114
0.000100447
2.28007e-05
0.00011331
2.7326e-05
3.56298e-05
2.08142e-05
1.21994e-05
1.05581e-05
1.44515e-05
1.93275e-05
2.68091e-05
1.9185e-05
2.95597e-05
2.27985e-05
2.04465e-05
2.92689e-05
4.88422e-06
5.99615e-05
5.55882e-05
5.24408e-05
4.68892e-05
8.45284e-05
6.34143e-05
4.33896e-05
2.69302e-05
5.80035e-05
2.99731e-05
2.8208e-05
1.90229e-05
1.95385e-05
2.28149e-05
2.73223e-05
6.28141e-05
2.78793e-05
5.96596e-05
9.88546e-05
0.000117455
0.000102186
0.00012783
2.96126e-05
0.000152002
0.000110088
3.83731e-05
8.2247e-05
5.63887e-05
0.000105768
8.31882e-05
4.85183e-05
7.64434e-05
5.93392e-05
4.49629e-05
5.18981e-05
6.67385e-05
1.58351e-05
5.36562e-05
3.21504e-05
3.1845e-05
4.09924e-05
8.38228e-05
4.87891e-05
4.96973e-05
8.6957e-05
5.99665e-05
9.10746e-05
0.0001505
4.4723e-05
9.51038e-05
0.000109466
1.52145e-05
4.75224e-05
9.59691e-05
2.23064e-05
4.23919e-05
6.32975e-05
7.17553e-05
5.65006e-05
8.44303e-05
8.88343e-05
3.93091e-05
6.35644e-05
3.77002e-05
4.30799e-05
4.90854e-05
9.16728e-05
9.26578e-05
8.36172e-05
0.000115365
7.24714e-05
7.72407e-05
1.27183e-05
7.29152e-05
5.7347e-05
5.63786e-05
4.339e-05
2.04517e-05
2.76703e-05
8.12464e-05
6.32378e-05
5.80698e-05
0.000119039
5.80136e-05
8.51866e-05
3.81963e-05
9.63449e-05
0.000145629
3.50892e-05
0.000122051
9.9399e-05
9.46642e-05
0.000132194
8.30119e-05
0.000152364
0.000168225
0.000159548
4.36878e-05
5.78029e-05
8.03167e-05
5.67829e-05
9.51428e-05
5.84321e-05
3.09572e-05
2.66667e-05
6.94242e-05
0.000108347
7.65206e-05
9.89345e-05
9.43838e-05
6.50867e-05
3.16801e-05
7.48121e-05
0
0
1.2901e-06
0
0.000155733
3.65158e-05
0
0
0
0
0
0
0
0
0
0
0
0
0
0
0
0
0
0
0
0
2.23055e-09
0
0
2.02261e-10
8.72941e-10
2.43074e-09
0
0
0
0
0
0
0
0
0
0
0
0
0
0
0.000167385
0.000105081
0.000135312
6.27673e-05
5.14107e-05
0.000132795
0.000215268
0.000146228
5.80661e-05
0.000120457
4.56551e-05
6.33626e-05
7.56279e-05
0.00010351
9.40833e-05
4.50969e-05
1.47884e-05
6.1794e-05
4.23995e-05
4.85675e-05
5.22891e-05
2.48549e-05
0
0
0
0
0
0
0
0
0
0
0
0
0
0
0
0
0
0
0
0
0
0
0
0
0
0
8.02994e-09
0
0
0
3.11739e-05
0
4.27342e-05
2.34329e-05
0.000106128
2.90096e-05
6.84789e-05
5.2934e-05
0.000161454
9.84951e-05
0.000116811
2.62448e-05
8.35942e-05
0.000147171
9.79856e-05
6.90652e-05
6.00147e-05
5.8554e-05
0
0
0
0
0
0
0
0
0
0
0
0
0
0
0
0
0
1.87255e-05
4.88829e-05
1.96312e-05
4.02073e-05
4.47198e-05
1.82055e-05
2.58563e-05
3.33521e-05
3.29486e-05
1.4573e-05
3.4848e-05
4.04506e-06
8.64821e-05
4.29141e-05
1.73666e-05
5.2313e-05
7.01605e-05
7.69882e-05
0.000114731
4.38387e-05
3.40148e-05
2.13833e-05
3.86435e-05
2.96707e-05
3.3628e-05
3.28369e-05
1.21819e-05
4.40812e-05
5.94027e-05
5.20838e-05
1.96993e-06
1.07873e-05
0.00013956
9.33943e-05
0.000157461
0.000250688
0.000166634
9.55927e-05
0.000267838
0.000202295
0.000265827
0.000196187
8.81382e-05
9.54055e-05
0.000181039
0.000105172
9.83932e-05
5.62391e-05
2.70489e-05
7.46171e-05
1.7393e-05
0.000115635
5.32262e-05
1.79056e-05
4.51073e-05
9.92183e-06
2.26643e-05
5.14742e-05
3.55384e-05
3.49696e-05
2.19733e-05
5.01829e-05
3.16029e-05
6.08147e-05
4.13137e-05
3.43291e-05
2.75813e-05
4.23757e-05
0.000197724
0.000104077
0.000314299
0.000113547
1.4713e-05
3.12404e-05
8.26151e-05
0.000153062
0.000113943
9.51968e-05
0.000113957
0.000129637
0.000101909
6.12491e-05
3.38367e-05
7.19487e-05
4.79443e-05
9.45789e-05
5.42437e-05
4.23447e-05
2.51658e-05
3.38809e-05
4.285e-05
5.18304e-05
3.38313e-05
3.28279e-05
5.39156e-05
1.02668e-05
7.68666e-05
3.35832e-05
7.78591e-05
1.94941e-05
0.000104385
2.96965e-05
2.51629e-05
0.000113479
8.82909e-05
7.53495e-05
0.000121818
0.000129199
0.00012107
0.000157402
0.000132886
0.000221338
0.000171639
0.00013244
0.000221903
0.000153411
0.000224514
0.000213576
0.000343883
0.000202995
0.000220466
0.000356894
0.000286156
0.000282972
0.000252703
0.000227077
0.000233453
0.000299898
0.000194759
0.000219606
0.000163844
0.000169193
0.000170901
0.000159321
0.000186891
0.000183594
0.00020049
0.000203915
0.000258413
0.000222901
0.000214018
0.000220746
0.000205197
0.000188863
0.000254615
0.000137827
0.000222327
0.000200344
0.000269234
0.000201416
0.000220856
0.000252006
0.000152529
1.78132e-05
5.75986e-05
4.85722e-05
5.37577e-05
4.93588e-05
7.62284e-05
4.44913e-05
3.98806e-05
2.71512e-05
1.56742e-05
7.7641e-06
2.22363e-05
2.57264e-05
1.82738e-05
8.44272e-05
4.57175e-05
6.526e-05
3.3676e-05
7.8351e-05
2.19565e-05
6.10704e-06
4.54888e-05
2.54207e-05
0
3.58425e-09
0
0
0
0
0
0
0
0
0
4.82927e-09
0
0
0
0
0
0
0
0
4.06961e-09
0
0
0
0
0
0
0
0
0
0
0
0
0
0
0
0
0
0
1.46371e-07
0
0
1.20212e-08
0
2.58922e-09
0
1.48129e-09
2.18585e-09
2.46543e-09
0
5.96993e-09
2.05964e-09
0
0
2.89955e-09
0
0
0
0
0
0
0
0
0
0
0
0
0
0
7.51345e-09
0
0
0.000157611
8.77381e-05
0.000138456
0.000102124
0.000127919
0.000116933
9.77192e-05
0.000232168
0.000112042
0.000141326
0.000107401
0.000190915
8.26611e-05
4.53643e-05
5.46703e-05
1.81989e-05
4.15993e-05
3.0717e-05
1.72426e-05
5.79002e-05
3.36781e-05
2.51684e-05
0
0
4.20267e-08
3.25375e-08
0
0
0
0
0
1.73464e-08
0
0
0
0
0
0
0
0
0
0
0
0
5.44175e-09
3.76271e-09
0
0
0
6.6005e-05
1.50845e-05
8.3305e-05
0.000108454
9.22488e-05
9.13229e-05
9.71606e-05
4.95354e-05
7.21855e-05
4.04816e-05
0.000165034
2.64747e-05
9.56628e-05
5.66388e-05
8.03988e-05
9.79253e-05
0.000100048
1.19569e-09
0
3.32522e-09
0
0
1.13248e-10
0
0
9.23225e-11
0
0
0
0
0
0
0
0
0
0
0
0
0
0
0
4.9436e-09
0
3.82554e-05
3.36501e-05
3.52847e-05
1.85779e-05
1.88793e-05
3.23566e-05
1.9801e-05
2.93779e-05
1.04963e-05
3.16042e-05
6.45072e-06
3.96118e-05
4.47931e-05
2.74252e-06
2.80617e-05
6.92332e-05
3.45502e-05
4.66512e-06
3.59955e-05
5.18485e-05
0
1.54822e-06
2.50213e-05
1.29468e-05
3.98853e-05
2.48186e-05
0
0
0
0
6.88914e-08
0
0.000220984
0.000199107
0.000174716
0.000121887
0.000182006
0.000177911
0.00023707
0.000235186
0.000312951
0.000248049
0.000253719
0.0002452
0.000205497
0.000314658
0.000234546
0.00017145
0.000134272
0.000105406
0.000137275
0.000114731
0.000160574
0.000149456
0.000169254
0.000153296
0.000255752
0.000221587
0.000205259
0.000209373
0.000156911
0.000189059
4.33459e-05
8.11814e-05
0.000154292
9.74917e-05
2.43502e-05
7.90366e-05
4.53871e-05
6.52898e-05
4.7267e-05
6.13569e-05
3.86393e-06
3.08195e-05
1.65513e-05
1.12555e-05
3.88414e-05
3.54359e-05
1.45949e-05
1.68992e-05
9.05253e-06
4.17671e-05
1.38823e-05
1.50587e-06
1.44724e-05
2.85381e-05
1.19444e-05
2.61972e-05
0
0.000266371
0.000151452
0.000166558
0.000118568
0.000153835
0.000140972
0.000151611
0.000107092
0.000108024
9.1001e-05
0.000102662
2.15082e-05
2.70545e-05
3.26715e-05
9.7031e-05
6.37513e-05
1.14318e-05
3.79434e-05
6.65777e-05
4.82698e-05
7.26244e-05
0.000122639
6.55282e-05
2.89208e-05
8.08352e-05
4.80866e-05
5.2415e-05
1.85075e-05
6.21515e-05
2.05849e-05
1.94839e-05
6.66948e-05
5.00165e-05
0.000154812
0.000109717
2.75316e-05
9.42746e-05
8.71147e-05
0.00020294
0.000225615
0.000183304
0.000134767
0.000142623
0.000122327
0.000267905
0.000179819
0.000218024
0.000292098
0.000277752
0.000246901
0.00018634
0.000153788
0.000224585
0.000225071
0.00021128
0.00026139
0.000187686
0.00026762
0.000220779
0.00022998
0.000284895
0.000294708
0.000212419
0.000179931
0.000305112
0.000252558
0.000224927
0.000251972
0.000224047
0.000282088
0.00023939
0.000305163
0.000317476
0.000231644
0.000248527
0.000288964
1.50272e-05
1.78111e-05
4.46115e-05
9.10311e-05
6.03656e-05
6.57662e-05
6.40467e-05
4.77884e-05
2.34313e-05
2.50687e-05
3.11324e-05
1.14529e-05
8.08806e-06
2.57965e-05
6.96787e-06
0
0
2.78221e-05
0
4.01654e-05
2.85279e-05
3.26069e-05
1.60103e-05
2.21858e-05
3.30683e-05
0
0
0
0
3.58064e-09
2.74665e-09
0
0
0
6.90733e-09
0
0
0
0
0
0
0
4.17873e-09
0
0
0
0
0
0
0
0
1.74094e-10
0
0
0
1.78991e-09
0
0
0
0
0
0
0
0
0
0
0
0
0
0
0
0
5.45455e-09
0
3.7379e-08
0
0
0
0
0
0
0
0
0
0
0.000164634
0.000146952
0.000144538
0.000110795
6.72904e-05
5.04498e-05
2.28273e-05
0.000166802
0.000125237
9.8915e-05
4.79879e-05
0.000132629
6.04245e-05
2.38084e-05
1.67666e-05
2.92848e-05
2.45232e-05
4.76378e-05
2.68993e-05
1.15776e-05
1.98409e-05
3.11478e-05
3.27992e-08
0
1.40994e-08
0
0
0
0
0
0
0
0
0
0
0
0
0
0
0
0
0
0
0
0
5.60207e-09
0
0
6.56156e-05
2.83801e-05
5.46846e-05
4.15026e-05
0.000107661
8.99885e-05
6.22224e-05
7.14313e-05
5.20499e-05
8.07777e-05
3.95218e-05
7.49601e-05
0.000168936
0.00011876
0.000202482
0.00015263
0.000154558
0.000100923
0
0
0
0
0
0
0
0
0
0
0
0
1.30304e-09
0
0
0
0
0
0
2.50977e-10
0
2.44048e-10
0
0
0
0
0
0
0
0
0
3.91945e-05
2.80911e-05
3.10824e-05
1.23815e-05
2.05382e-05
2.74417e-05
4.6971e-05
3.80994e-05
3.36734e-05
1.79167e-05
1.35889e-05
1.17933e-05
9.80936e-06
0
0
8.97634e-06
1.22562e-05
1.9116e-05
2.52558e-05
6.29042e-05
1.88677e-05
1.03073e-05
1.87304e-05
8.1725e-06
0
1.28897e-06
7.27723e-06
0
0
0
0
0
0
0
0
0.000195015
0.000237758
0.000141167
0.000209798
0.000272399
0.000227121
0.000189219
0.000270473
0.000150726
0.000333173
0.000277832
0.000376721
0.000164555
0.000276459
0.000255087
0.000251762
0.000282515
0.000289146
0.000220258
0.000256008
0.000237366
0.000276808
0.000250458
0.000228657
0.000267014
0.000250804
0.000304591
0.000224289
0.000237255
0.000208278
0.000250141
0.000245628
0.000219006
0.000253317
0.000276219
0.000293323
0.000255902
0.000188913
0.000157081
0.000216395
0.000162949
0.000255383
0.000246526
0.000319832
0.000283214
0.000332468
0.000372035
0.000268424
0.000265449
0.000153375
0.000134621
6.34598e-05
8.11899e-05
3.38889e-05
8.88204e-05
0.000107723
6.76704e-05
0.000124284
7.33872e-05
0.000202609
0.000172495
0.000108337
5.98087e-05
5.38392e-05
8.10716e-05
8.8373e-05
0.000115229
0.000100037
0.00011284
0.000100424
7.65658e-05
6.75834e-05
5.01127e-05
5.47901e-05
0.000250821
0.000341031
0.000273962
0.00026501
0.000296087
0.000258597
0.00022692
0.000246856
0.000241439
0.00021234
0.000274812
0.000218578
0.000336055
0.000259954
0.00036937
0.000285791
0.00025047
0.000287015
3.62798e-05
1.26196e-05
7.78249e-06
2.72471e-05
4.77576e-05
1.44616e-05
2.46999e-05
3.50598e-05
2.72578e-05
2.29086e-05
3.69765e-06
2.48314e-06
0
9.18399e-07
0
0
0
0
0.000156429
0.000217452
0
5.15254e-05
0.000223225
0.000168531
0.000159169
0.000113978
7.416e-05
4.34845e-05
4.35348e-05
7.38831e-05
5.66241e-05
4.70267e-05
2.45426e-05
1.85417e-05
5.5965e-06
8.32742e-05
3.23314e-05
0.000120588
4.61475e-05
3.38199e-05
4.65246e-05
7.65475e-05
3.03213e-05
6.8916e-05
3.39214e-05
1.67323e-05
6.55318e-05
0.000103737
3.79011e-05
6.48573e-05
5.10201e-05
0.000151623
0.00017873
5.61374e-05
0.000160213
0.000202643
0.000170339
0.000146895
0.000184976
0.000283744
0.000218351
0.000159279
0.00021377
0.000273227
0.000242111
0.000197612
0.00016386
0.000256739
0.000201367
0.000230286
0.000181997
0.00026492
0.000255866
0.000210574
0.000250007
0.000235687
0.000279725
0.000238302
0.000232257
0.000289105
0.000295115
0.000230262
0.000239007
0.00023812
0.000312354
4.18128e-05
3.82519e-05
5.96084e-05
2.68969e-06
3.59524e-05
1.60729e-05
4.08321e-06
1.50367e-05
6.78901e-06
2.5212e-06
2.30304e-05
1.49319e-05
0
9.59384e-08
1.76366e-05
0
0
0
0
6.23371e-05
0
0
3.25379e-07
0
0
0
0
0
2.36914e-09
2.53101e-09
3.84118e-09
0
1.95486e-11
0
0
0
0
0
0
0
0
0
8.65752e-09
0
0
0
0
0
0
0
0
2.78559e-07
0
0
0
0
0
0
0
0
0
0
0
0
1.42236e-09
0
0
1.11192e-09
0
0
0
0
0
0
0
0
0
0
5.08229e-09
0
0
0
0
0
0
0
0
0
0
1.42981e-08
0
0
0
0
2.60951e-08
0.000327224
0.000465975
0.00028559
0.000288529
0.000260039
0.000274035
0.000149483
6.9287e-05
0.000128155
0.000176665
0.000100155
0.000105044
0.000152632
0.000218834
5.12533e-05
0.000134181
6.73026e-05
5.69965e-05
2.33918e-05
2.55272e-05
1.96774e-05
2.85425e-05
2.78394e-05
1.632e-05
5.49081e-06
0
0
0
0
0
0
0
0
0
0
0
0
0
2.16846e-05
4.70751e-05
5.84887e-05
0
0
0
0
0
0
0
0
0
0
0
2.67182e-05
0.000121786
0.000114839
0.000104751
6.48219e-05
0.000121306
0.000209165
2.5287e-05
4.24155e-05
7.31704e-05
9.90232e-05
4.28128e-05
3.50801e-05
3.39403e-05
7.22145e-05
5.45241e-05
0
8.23739e-10
0
0
0
0
0
0
0
0
0
0
0
0
0
0
0
2.522e-08
0
2.0373e-08
0
0
0
0
0
0
0
0
0
0
1.47666e-09
0
0
0
0
0
0
1.62313e-05
2.09736e-05
1.47489e-05
1.44499e-05
1.27759e-05
3.30369e-05
1.55061e-05
2.40939e-05
1.22221e-05
0
0
2.49183e-05
1.31136e-05
0
0
0
3.0612e-09
1.6342e-06
0
1.5022e-05
0
1.7745e-06
2.61676e-05
5.09322e-05
2.66873e-05
0
0
0
0
0
0
0
0
0
0
0
0
0.000166525
0.000203614
0.000233488
7.5959e-05
0.000360289
0.000326109
0.000468683
0.000427536
0.000249827
0.000310211
0.000287704
0.000258014
0.00023625
0.000278815
0.000201953
0.000217119
0.000221523
0.000164962
0.000219579
0.000254027
0.000255207
0.000311067
0.000332363
0.000359515
0.000211012
0.000234468
0.00017977
0.000163069
0.000255647
0.000284299
0.000275157
0.000264481
0.000339553
0.000356441
0.000337449
0.000251595
0.000249875
0.000288844
0.000283342
0.000188456
0.000128204
9.71786e-05
4.13831e-05
2.91517e-05
5.40561e-05
9.68867e-05
6.53147e-05
7.20316e-05
0.000153537
0.000134198
0.000116114
8.95055e-05
4.6635e-05
6.71634e-06
9.94937e-05
7.62175e-05
0.000114739
0.000111178
0.000117158
7.98921e-05
0.000128375
6.60702e-05
9.13282e-05
4.22127e-05
1.48089e-05
0.000246948
0.000231413
0.000290181
0.000258258
0.000312831
0.000292423
0.000266197
0.000246401
0.000263056
0.000271756
0.000225511
0.00025266
0.000340578
0.000325176
0.000255422
0.000265397
0.000282952
0.000259328
0.000245686
0.000248669
0.000274528
0.000276676
0.00021545
0.000312207
0.000170388
5.68415e-06
7.94162e-06
2.02608e-05
4.13432e-06
4.58755e-05
5.6193e-05
0
0
1.49341e-06
0
0
0
0
3.56174e-09
0
1.63353e-09
0
0
0.00016348
0
1.76353e-09
0.000216947
0.000168649
9.08819e-05
9.39174e-05
4.47621e-05
2.94706e-05
0.00011076
6.96668e-05
7.15729e-05
9.3334e-05
4.35426e-05
4.27693e-05
7.50484e-05
0.000101115
3.6107e-05
8.90692e-05
5.81396e-05
0.000133998
5.80348e-05
7.49575e-05
4.55021e-05
3.32202e-05
3.4536e-06
7.62277e-05
8.88485e-05
7.16547e-05
5.0002e-05
0.000118467
0.00018443
0.000177878
8.96655e-05
0.000153894
0.000101475
0.000133916
8.88251e-05
0.000221767
0.000239346
0.000156333
0.000287113
0.00012626
0.000176282
0.000173863
0.000129767
0.000233134
0.000213052
0.000194827
0.000245502
0.00018039
0.000201442
0.000264709
0.00022096
0.000263792
0.000205743
0.000252927
0.000232931
0.000244725
0.00026951
0.00024216
0.000255445
0.00024668
0.000243428
0
0
0
0
7.74371e-05
3.02542e-06
5.16163e-05
1.51459e-05
9.37063e-06
0
0
0
0
0
0
0
0
0
0
0
0
0
0
0
0
0
0
0
3.63035e-09
1.395e-09
0
0
0
0
0
0
0
0
0
0
0
0
5.68242e-10
0
0
0
0
0
0
0
0
1.16885e-07
0
0
0
5.996e-09
1.38618e-09
0
0
0
0
0
0
0
1.10209e-09
1.57559e-09
0
0
6.90318e-09
6.30048e-10
0
0
0
0
3.45546e-09
0
5.67279e-09
0
0
0
0
0
8.32927e-10
5.27114e-10
0
0
0
0
0
0
0
0
0
0
1.68595e-09
0
0
0
0
0
0
0
0
0.0003221
0.000109079
0.000379901
0.000249605
0.000200534
0.000294954
0.000309294
0.000225809
0.000325237
0.000282422
0.000163384
0.000100613
9.0828e-05
8.1405e-05
0.000104851
0.000202662
8.00922e-05
0.000136542
8.6153e-05
3.36486e-05
2.14731e-05
4.81028e-05
1.81865e-05
1.23835e-05
1.79801e-05
1.0632e-05
1.2258e-05
0
0
0
0
0
0
0
7.31473e-05
5.11821e-05
8.71778e-05
0
0
0
0
0
0
0
0
0
1.84982e-10
0
0
0
0
0
0.000122954
0.000180504
0.000175553
8.99433e-05
0.000115181
7.8624e-05
6.51339e-05
0.000162511
6.94185e-05
6.93129e-05
3.34401e-05
4.11531e-05
4.38857e-05
3.59742e-05
2.74503e-05
0.000125013
0
0
7.52895e-10
2.97529e-09
0
0
3.01431e-09
5.66604e-09
0
0
0
4.72551e-08
0
0
0
4.14908e-09
6.45682e-08
2.14368e-08
0
0
0
1.50765e-08
0
0
0
3.3921e-09
0
0
0
0
0
1.42435e-08
0
0
0
0
0
0
0
0
0
0
0
0
0
1.85167e-05
5.84809e-06
4.6392e-05
2.9312e-05
1.83865e-05
1.58516e-05
3.14909e-05
2.51654e-06
1.41973e-05
0
0
2.83777e-09
9.76264e-09
2.45454e-05
1.74315e-05
0
0
0
0
0
0
0
6.72741e-06
6.86466e-05
1.7635e-05
4.2889e-05
1.47777e-05
0
0
0
3.00307e-09
0
0
0
0
0
0
0
2.62708e-09
0.000132065
0.000301721
0.000200905
0.000358391
0.000221738
0.000286067
0.000460497
0.000551072
0.000616696
0.000339634
0.000515624
0.000230194
0.0003536
0.000321246
0.000299475
0.000234332
0.000302324
0.000273163
0.000265676
0.000272918
0.000295242
0.00025879
0.000242625
0.000195197
0.000254059
0.000243321
0.000321063
0.000243232
0.000284115
0.000319295
0.000225935
0.000223617
8.73932e-05
0.000170559
0.000252496
0.000252109
0.000338979
0.000280975
0.000292724
0.000394529
0.000232665
0.000187268
0.000224111
0.000306455
0.000138532
0.000189207
4.41652e-05
0.000118153
9.59597e-05
9.03348e-05
7.37535e-05
0.000117961
5.26669e-05
0.000148574
0.000244756
0.000234787
0.000256869
0.000243271
5.49265e-05
2.55725e-05
9.54549e-05
0.000204491
7.3528e-05
0.000150747
0.000150883
0.000100118
7.8921e-05
3.56575e-05
4.29884e-05
3.97529e-05
0.000246118
0.000251637
0.000225414
0.000226731
0.000264671
0.000267459
0.000235751
0.000246763
0.00024657
0.000330246
0.000232215
0.000243343
0.000305203
0.000256883
0.000283845
0.000273129
0.000273274
0.000199985
0.000238893
0.000259524
0.000160496
0.000318547
0.000233295
0.000221526
0.000248759
0
0
0
0
0
0
0
0
2.11794e-09
0
0
0
0
0
0
0
4.69626e-09
0
0
0
0
2.55045e-05
7.33097e-05
5.9153e-05
9.91787e-05
6.56274e-05
8.09323e-05
2.59486e-05
9.43495e-05
1.54214e-05
9.46265e-05
4.78986e-05
0.00013802
5.3201e-05
9.39952e-05
6.45345e-05
6.31738e-05
5.4488e-05
0.00011077
5.95836e-05
5.90083e-05
4.77154e-05
5.14329e-05
6.21361e-05
0.00011513
9.80061e-05
8.3022e-05
0.000105078
6.18812e-05
8.47343e-05
0.000109574
0.000118085
5.28478e-05
0.00013117
0.000216447
0.000113504
0.000174817
0.000125258
0.000200169
0.000142491
0.000165823
0.000195723
0.00022376
0.000180497
0.000249763
0.000191612
0.000218716
0.00023626
0.000264514
0.000236639
0.000196289
0.000288945
0.000166807
0.000256334
0.000183035
0.00026052
0.000233267
0.00020876
0.000254158
0
0
8.46938e-07
1.25264e-10
0
0
0
0
0
0
0
2.29835e-09
0
7.36806e-10
3.92193e-09
1.01045e-09
1.3078e-09
0
2.53072e-09
3.38117e-06
0
0
0
4.09705e-09
0
2.61407e-09
4.21949e-09
0
0
0
0
0
0
0
6.18209e-09
1.91451e-09
0
0
0
0
0
0
7.12012e-09
0
0
0
0
0
0
0
0
0
0
0
0
0
0
0
0
0
0
0
0
0
0
0
0
0
0
0
0
0
0
0
0
0
0
0
0
0
0
0
6.4529e-09
0
0
0
0
0
0
0
0
0
0
0
0
0
0
0
0
0
0
0
0
0
0
0
0
0
0
0
0
0
1.18346e-09
0
0
0
0
0.000270991
0.000252388
0.000295181
0.000228452
0.000220863
0.000312874
0.000417943
0.000219645
0.000240706
0.000375492
0.000303733
0.000329616
0.000167614
0.000392627
0.000359019
7.94053e-06
7.8857e-05
0.000167761
3.60986e-05
0.000134908
6.8745e-05
8.67165e-05
1.92299e-06
2.97317e-05
2.00027e-05
7.91803e-06
5.70601e-06
1.49204e-05
1.4465e-05
0
0
0
2.69858e-09
2.79108e-05
6.38754e-05
1.10258e-05
8.50562e-09
0
3.14016e-06
0
0
0
0
0
0
0
0
7.57001e-09
0
5.3338e-09
0
0
0
9.25402e-05
0.000101218
6.85713e-05
9.84139e-05
0.000151996
4.87532e-05
4.16678e-05
1.1415e-05
1.84896e-05
5.64841e-05
9.3441e-05
4.26833e-05
7.4598e-05
9.41406e-06
4.6038e-06
4.90343e-05
0
1.04301e-09
0
0
0
0
0
7.30033e-11
0
0
3.82607e-09
0
0
0
0
0
0
0
0
5.95189e-11
0
0
0
0
0
0
0
0
0
0
0
0
0
0
0
0
0
0
9.88799e-09
5.51467e-09
0
0
0
0
0
0
0
0
0
0
0
0
0
0
0
0
0
2.54751e-05
1.83815e-05
9.15447e-06
3.15376e-05
5.41163e-05
1.74612e-06
0
0
0
0
1.47682e-08
0
0
0
0
0
0
0
0
0
0
1.51963e-05
4.06664e-05
2.18629e-06
0
0
0
0
1.21585e-07
0
0
0
0
6.87348e-09
1.91834e-08
0
0
0
0
0
0
0.000131078
0.000281048
0.000318003
0.000812143
0.000581321
0.000815715
0.000452898
0.000797344
0.000546647
0.000546328
0.000379455
8.98119e-05
0.000218539
0.000308338
0.000303916
0.00029708
0.0003122
0.000264334
0.000274649
0.00028372
0.000358503
0.000256731
0.00026089
0.000286142
0.000332512
0.000268005
0.000319222
0.000290383
0.000303372
0.000174979
0.000210445
0.000165438
8.60917e-05
0.000285027
0.000216157
0.000400138
0.000265078
0.000397793
0.000306024
0.000213651
0.000209012
0.000327351
0.000200689
0.000153169
0.000176999
0.000107338
9.76652e-05
5.54843e-05
7.63579e-05
0.000152508
0.000146164
0.00027316
0.000115206
0.000318251
0.000316478
0.000290892
0.000201548
0.00010061
2.31939e-05
0.000173167
3.33535e-05
9.87789e-05
7.25089e-05
6.35965e-05
0.000146652
4.90047e-05
1.41782e-05
5.32334e-05
3.84139e-05
1.64081e-05
1.3419e-05
2.70731e-05
0.000214647
0.000254569
0.000204212
0.00026373
0.000241882
0.000204765
0.00020367
0.000267174
0.000289453
0.000203205
0.000227185
0.000312867
0.000309688
0.000240747
0.000192608
0.000276136
0.000247017
0.000208039
0.000193093
0.000210039
0.00018903
0.000247775
0.000197465
0.000307783
0.000320478
0.000161909
0
0
0
0
0
2.28334e-09
4.70139e-09
0
0
0
0
4.31052e-09
2.28213e-09
0
0
0
0
0
3.06174e-05
0
0
2.5547e-05
6.29736e-05
3.92434e-05
3.89845e-05
6.70285e-05
4.89719e-05
7.41944e-05
5.41386e-05
5.45293e-05
2.84952e-05
7.9399e-05
9.71864e-05
6.80254e-05
1.09055e-05
7.90664e-05
6.30554e-05
2.27005e-05
5.77602e-05
9.44493e-05
2.59898e-05
8.31088e-05
8.29082e-05
0.000108294
7.43402e-05
3.27118e-05
2.84473e-05
7.22252e-05
4.48303e-05
0.000145563
0.000202119
6.37782e-05
0.000152737
6.05371e-05
0.000144441
0.000157
0.000239078
0.000143333
0.000220317
0.000211035
0.000236345
0.000155869
0.000255128
0.0001936
0.000196072
0.000191081
0.000228918
0.000157615
0.000193891
0.000249706
0.000179161
0.00029846
0.000138159
0.000294679
0.000283473
0.00012963
0.000229495
0.000163575
0
0
3.65451e-09
0
0
0
0
1.03372e-08
0
6.30652e-09
0
0
0
7.75698e-09
7.96285e-09
4.16314e-09
2.80471e-09
1.03308e-09
3.85607e-09
0
0
0
0
0
0
0
0
0
0
0
0
0
0
0
0
4.80141e-09
0
0
0
6.74732e-07
0
0
0
0
0
0
0
0
0
0
0
0
0
0
0
0
0
0
1.13108e-06
0
0
0
0
0
9.92114e-10
2.28593e-10
1.2233e-09
0
0
0
0
0
0
0
0
0
0
0
0
0
0
0
0
0
0
0
0
0
0
0
0
0
0
0
0
0
0
0
0
0
0
0
0
0
0
0
1.17467e-09
0
0
0
3.26158e-10
0
0
1.23463e-09
4.4174e-09
0
0.000253866
0.000330505
0.000285011
0.000333882
0.000297047
0.000341089
0.000415802
0.000235987
0.000203972
0.000301783
0.000303685
0.000387649
0.000283633
0.000416989
0.000408051
0.000406101
0.00042239
0.000389527
0.000367838
3.76909e-05
3.91714e-05
3.80921e-05
7.71981e-05
5.30639e-05
3.45587e-05
6.80109e-05
3.26903e-05
2.51202e-05
2.17834e-05
2.97425e-05
1.57268e-05
3.74214e-05
2.3465e-05
0
0
4.76748e-05
4.25013e-05
6.9999e-06
0
0
4.70621e-06
1.06975e-06
0
0
0
0
0
0
0
0
5.34506e-09
0
0
2.11687e-08
0
0
0
2.93639e-05
8.39018e-05
2.54078e-05
4.29539e-05
3.31339e-05
6.41527e-05
2.75462e-05
9.38393e-06
2.43086e-05
6.54329e-06
4.16861e-05
1.02481e-05
4.41834e-05
0
0
0
0
0
0
6.03157e-09
3.21754e-09
0
0
1.33717e-09
0
0
0
0
0
0
2.07785e-07
0
0
0
0
0
0
0
0
0
0
1.48175e-08
0
0
0
0
0
0
0
0
0
0
0
0
0
0
0
0
0
0
0
0
0
0
7.59388e-09
0
0
0
0
0
0
0
0
0
0
0
6.99745e-06
1.63937e-05
2.34215e-05
7.81025e-06
9.57792e-06
0
1.06913e-06
0
2.05991e-06
0
0
0
0
0
0
0
0
0
0
0
0
0
0
0
8.33531e-06
0
0
0
1.54253e-06
4.11098e-05
5.81187e-06
0
0
0
2.09642e-09
0
0
0
0
0
0
0
0
0.00047807
0.0007503
0.00102354
0.000639771
0.000913133
0.000311193
0.000552508
0.000281
0.000244917
0.000255475
0.000258932
0.000215325
0.00030297
0.000217519
0.000320481
0.000310657
0.000279343
0.000279616
0.000300101
0.000278621
0.000486155
0.000194786
0.000215302
0.000271249
0.000345056
0.000298553
0.000207759
0.000285908
0.000349148
0.000285426
0.000134513
0.000224804
0.000119791
0.000191505
0.000209346
0.000316063
0.000299576
0.000423896
0.000372539
0.000369837
0.00017058
0.000220643
0.000169165
0.000373548
0.000122251
0.000135287
6.79233e-05
6.41999e-05
0.00032143
0.000313714
0.000413794
0.000605954
0.00031859
0.000323548
8.20817e-05
0.000239337
0.000152805
0.000116406
8.93916e-05
2.91069e-05
0.000117158
2.46834e-05
0.000123946
9.56695e-05
0.000130691
0.000116955
7.76155e-05
1.72034e-05
7.93783e-05
3.13337e-05
4.94297e-05
7.50889e-05
0.000201815
0.000247989
0.000285923
0.000244881
0.000261401
0.000241605
0.000256804
0.000280908
0.000186448
0.000197454
0.000255981
0.000234591
0.000212376
0.000196151
0.000237933
0.000224409
0.000183516
0.000152013
0.000245041
0.000182921
0.000272336
0.000166822
0.000273742
0.000205973
0.000332708
0
0
0
0
0
0
0
0
0
4.95101e-09
0
0
0
0
0
0
4.63816e-09
0
0
0
0
4.5987e-05
1.29795e-05
5.36925e-05
1.41409e-05
3.33869e-05
3.22237e-05
8.13805e-05
2.92072e-05
5.06526e-05
4.9929e-05
2.45769e-05
7.70333e-05
0.000102462
6.49803e-05
6.67802e-05
6.83848e-05
0.000108738
1.74787e-05
0.000121391
9.03523e-05
6.74542e-05
4.38272e-05
9.04151e-05
0.000155614
3.92583e-05
8.5013e-05
9.40314e-05
6.43288e-05
0.000154862
0.000116804
0.000121779
7.92413e-05
0.000105502
0.000159475
0.000113824
0.00021173
0.000169742
0.000162372
0.000208178
0.000151947
0.00023921
0.000163233
0.000207596
0.000133695
0.000179323
0.000168987
0.00014553
0.000188773
0.000214077
0.00029308
0.000212513
0.000145751
0.00034149
0.000351381
0.000109192
0.000124401
0.000288114
0
0
0
0
0
0
0