/*--------------------------------*- C++ -*----------------------------------*\
  =========                 |
  \\      /  F ield         | OpenFOAM: The Open Source CFD Toolbox
   \\    /   O peration     | Website:  https://openfoam.org
    \\  /    A nd           | Version:  8
     \\/     M anipulation  |
\*---------------------------------------------------------------------------*/
FoamFile
{
    version     2.0;
    format      ascii;
    class       volScalarField;
    location    "6000";
    object      alpha;
}
// * * * * * * * * * * * * * * * * * * * * * * * * * * * * * * * * * * * * * //

dimensions      [0 0 -1 0 0 0 0];

internalField   nonuniform List<scalar> 
526318
(
0.000457811
0.000806305
0.000571874
0.00067217
0.000596209
0.000623805
0.000889889
0.00107022
0.000258588
0.0012149
0.000358046
0.000720312
0.000335516
0.000935715
0.00117867
0.000830859
0.000525918
0.000493644
0.000621146
0.000363746
0.000651857
0.000517031
0.00147848
0.000834483
0.000379511
0.000659708
0.000644099
0.00104897
0.000532372
0.000537936
0.000462327
0.00043668
0.000456419
0.000420739
0.000716953
0.000327413
0.000487109
0.000432396
0.000728283
0.000265908
0.000585793
0.000659498
0.00324268
0.00109266
0.0026935
0.00345995
0.00225653
0.00177109
0.00091394
0.00125643
0.000848689
0.000372484
0.000240463
0.000172218
0.111612
0.00457282
0.00643972
0.100006
0.000470102
0.000624897
0.000261278
0.000219356
0.000482116
0.000425119
0.000441705
0.000281801
0.000475373
0.000271866
0.000524402
0.000516641
0.000328281
0.000515583
0.000388938
0.000389398
0.000420497
0.0004066
0.000965743
0.00021661
0.000104995
0.00136204
0.000100552
0.000782725
0.000850346
0.000203171
0.00034926
0.000969476
0.000645105
0.000933255
0.000493066
0.00108513
0.000648821
0.000338236
0.00101755
0.000905726
0.00266162
0.000482349
0.00220103
0.00088313
0.000673191
0.00130335
0
0
0
0
0
0
0.0042529
0.0157217
0.00169161
0.00207049
0.00140519
0.00106444
0.000676062
0.000754656
0.000453532
0.000589162
0.00062378
0.000204723
0.000226193
0.00147487
0.001138
0.00225749
0.00199939
0.00156211
0.00152628
0.00220688
0.00181935
0.00189744
0.00146876
0.00236327
0.00282048
0.0040846
0.00200603
0.00317594
0.00354993
0.00666141
0.00493804
0.00383967
0.00501904
0.0127493
0.00669968
0.0039163
0.00722748
0.00239718
0.00964661
0.0058209
0.00218753
0.00462041
0.0135531
0.00466227
0.00154348
0.0120029
0.00246537
0.00475091
0.00471366
0.0137646
0.00569256
0.0071739
0.00665911
0.00958144
0.00221538
0.0207548
0.00573837
0.00044546
0.000361426
0.000101148
0.000370995
0.00071494
0.00057534
0.000454287
0.00102638
0.000204867
0.00102757
0.000942407
0.00074334
0.000707311
0.00161178
0.0028785
0.00225773
0.00428279
0.00190987
0.00258956
0.00263243
0.0025879
0.00206099
0.00352727
0.00293341
0.00313704
0.00415406
0.00248738
0.00413991
0.0010794
0.00317035
0.00210199
0.00254037
0.00687776
0.00411018
0.00560165
0.00616585
0.00858256
0.00467918
0.0098023
0.00572724
0.00492017
0.00493471
0.00114931
0.00816544
0.00337974
0.00601859
0.00438766
8.82762e-05
0.000890815
0.000432337
0.000523402
0.000508133
0.000742166
0.000266401
0.000574375
0.000394124
0.00473881
0.00585872
0.00722365
0.00106931
0.000229303
0.00198345
0.00090245
3.63793e-05
0.000843832
0.000635588
0
0
0.613998
0.00115637
0
0
0
0
0
0
0.000232933
0.000486176
0.000285811
0.000361354
0.000357167
0.000212622
0.0001502
0.000451718
0.000765547
0.00029136
0.000884384
0.000123693
0.000355762
0.00049727
0.000504978
0.000575948
0.000681233
0.00031656
0.000670531
0.000901506
0.000749085
0.000266886
0
0
0
0
0
0
0
0.686237
0.00340321
0.0114459
0.00120863
0.00178775
0.00103742
0.000699095
0.000550386
0.000598323
0.00043302
0.000144087
6.87261e-05
0.000273194
0.00137038
0.000775985
0.00111479
0.00165247
0.00222457
0.00198278
0.00459063
0.00209541
0.00136437
0.00758984
0.00666023
0.00503007
0.0225045
0.0045078
0.0110308
0.00930999
4.06281e-05
0.00552754
0.00999008
0.00991736
0.0148153
0.0207843
0.00603988
0.00552607
0.0134849
0.00160825
0.0078799
0.0139361
0.00615857
0.0125964
0.0150284
0.0678137
0.0180234
0.0164551
0.0495787
0.0048069
0.00616134
0.00857448
0.00164325
0.000667306
0.000940544
0.00125023
0.000171571
0.0010736
0.000721206
0.00102747
0.000400639
0.000936878
8.2281e-05
0.00129981
0.00270827
0.00757521
0.00206594
0.000760548
0.00254374
0.00766003
0.00319325
0.0162224
0.00221446
0.00343791
0.00124914
0.000998829
0.00172338
0.000672506
0.00221452
0.00112816
0.00134619
0.00313089
0.00251673
0.00370867
0.00390398
0.00260565
0.00376203
0.00373721
0.00299784
0.00220338
0.00275477
0.0053924
0.00427623
0.00446031
0.00279031
0.00212831
0.00645446
0.00292012
0.00149545
0.000176604
0.00328897
0.00247125
0.00441961
0.00348298
0.00167801
0.00114063
0.00324127
0.00256806
0.00168655
0.00239997
0.00141705
0.000324936
0.00111864
0.00084421
0.000583004
0.000296896
0.000585016
0.000995232
0.000706267
0.000891401
0.00079691
0.0109708
0.0167969
0.0115156
0.00680136
0.00604094
0.00138453
0.00336222
0.00176426
0.00192906
0.00214383
0.00117888
0
0
0
0
0.06359
0
0
0
0
0
0
0
0
0
0
0
0.000324435
9.71946e-05
0.000165862
6.81224e-05
0.000511285
3.8456e-05
0.000590238
3.35774e-05
0.000270135
0.000845558
0.000768997
0.000230093
0.000285818
0.00088195
0.000387694
0.000331948
0.000371396
0.000281631
0.00054905
0.000272296
0.000147882
0.00102958
0
0.005135
0.0105871
0
0
0
0
0
0.00127017
0.00411405
0
0
0
0
0.00692978
0
0
0
0
0
0
0
0
0
0.045399
0
0.00709067
0.00135915
0.00201577
0.000787559
0.00044707
0.000778433
0.000345696
0.000529809
0.000221709
0.000272895
0.000198122
9.45228e-05
0.000602109
0.00175356
0.00148179
0.00125275
0.00144386
0.00244024
0.00522013
0.00510627
0.00684961
0.00461845
0.0122925
0.00128752
0.00833333
0.0192074
0.012738
0.0214832
0.0033534
0.0166015
0.020432
0.0123074
0.082096
0.111214
0.0348081
0.0130896
0.00369467
0.31865
0.0623806
0.202057
0.0588679
0
0
0.00149633
0.000150686
0.000348616
0.00352667
0.00416889
0.000887594
0.00275447
0.00114951
0.00449919
0.000916271
0.00231653
0.0040768
0.00417081
0.0125296
0.00167353
0.00147926
0.00185832
0.00119435
0.000590405
0.00146239
0.00140422
0.00133819
0.000780906
0.00101467
0.00220498
0.000976735
0.00171054
0.0100732
0.00705308
0.0112225
0.0225912
0.00993293
0.0186541
0.103655
0.0845539
0.00807012
0.00118195
0.00341661
0.002008
0.000688756
0.00230478
0.00318812
0.00300178
0.00386535
0.00300985
0.00322088
0.00273089
0.0031147
0.0030555
0.00145124
0.00215196
0.00121851
0.0026142
0.00204127
0.00233938
0.00149784
0.00177346
0.00141361
0.00183425
0.00241409
0.00174877
0.000227828
0.00222885
0.00153613
0.000764897
0.00141091
0.00215557
0.00131617
0.00315631
0.00196745
0.000606894
0.00106985
0.00129128
0.00135212
0.00103098
0.0013077
0.000226133
0.00165876
0.000766924
0.00107645
0.00143743
0.000852685
0.0011488
0.00238871
0.00135666
0.00192896
0.450546
0.0716178
0.0160255
0.000771714
0.000801906
0.00117004
0.00419504
0.0016883
0.00531574
0.00489274
0
0
0
0
0
1.69372
0
0
0
0
0
0
0
0
0
0
0
0
0
0
0
0
0
0
0
0
0.00047289
0
0
0.000414206
0.00024174
0.00018475
0
0
0
0
0
0
0
0
0
0
0
0
0
0
0.000149069
0.000437608
0.000290225
0.000228235
0.00052256
0.000336359
0.0004834
0.000452927
0.000373501
5.7237e-05
0.00041226
0.000454992
0.0003704
0.000343461
0.000408514
0.000397266
0.000243182
0.000368722
0.000577634
0.000247741
0.000864863
0.000809629
0
0
0
0
0
0
0
0
0
0
0
0
0
0
0
0
0
0
0
0
0
0
0
0
0
0
0
0
0
0
0
0
0.0842371
0
0.00266727
0.00487982
0.000676324
0.00282722
0.00181147
0.000747584
0.00081112
0.000544568
0.000489436
0.000405927
0.000526291
0.000318422
0.000414251
0.000422388
0
0
0
0
0
0
0
0
0
0
0
0
0
0
0
0
0
0.000298163
0.00131134
0.0005654
0.000606613
0.00603588
0.00297569
0.0026726
0.00825717
0.0299009
0.0164634
0.198824
0.0881122
0.0454862
0.0216933
0
0.121991
0.175832
0.0575993
0.0462544
0.00808117
0
0
0
0
0
0
0
0
0
0
0
0
0.00132466
0.00122266
0.00100994
0.00124804
0.00162875
0.00128371
0.000540896
0.000975441
0.000606114
0.000972721
0.00699843
0.00762079
0.00499276
0.00290686
0.00165209
0.0128164
0.0060177
0.00359473
0.0739889
0.0101307
0.00371086
0.0637731
0.00194158
0.000992697
0.00109223
0.00176161
0.00163093
0.00284743
0.000724933
0.0008366
0.00386339
0.0114615
0.0791256
0.0271158
0.0481836
0.00966046
0.2249
0.382863
0
0.0193119
0
0.00719557
0.00792931
0.00561966
0.00315673
0.000641011
0.00116674
0.00321429
0.00177166
0.00208207
0.0012668
0.00186068
0.00212587
0.000363905
0.0031319
0.00315122
0.00391177
0.00162427
0.000744986
0.00213626
0.00251327
0.00192475
0.000585111
0.0023811
0.000742336
0.00154494
0.000445647
0.00154067
0.0021038
0.00234705
0.0025099
0.00188755
0.000789075
0.000366144
0.00149796
0.0020913
0.00105767
0.00188175
0.00102392
0.00169004
0.00135968
0.000987211
0.000615755
0.000552185
0.00070397
0.000411426
0.000607977
0.000757783
0.000383295
0.000645225
0.000448865
0.000299564
0.000393645
0.000315905
0.000338505
0.000330565
0.000245096
0.000139881
0.000290619
0.000303634
0.0001669
0.000137651
0.000243695
0.000155555
0.000263877
0.000166542
0.000208936
0.000130972
0.000187713
0.000207663
0.000158065
0.000125865
0.000162856
0.000260368
0.00016668
0.000193292
0.000175769
0.00016406
0.000116065
0.000139821
0.000172402
0.00126419
0.00400825
0.00232598
0.00136461
0.00101882
0.00199793
0.00105682
0.00876811
0.00723397
0
0
0.0115995
0.0674312
0
0
0
0.00585181
0.00879259
0.0145042
0
0
0
0
0
0.0143025
0
0
0
0
0
0
0
0
0
0.0104181
0
0
0
0
0
0
0
0
0.0134243
0
0
0
0
0
0
0
0
0
0
0
0
0
0
0.010168
0.00734353
0
0
0.00894134
0
0
0.016568
0
0
0
0.00778515
0.00456127
0.0048236
0
0.01688
0.0131078
0
0
0
0
0
0
0
0
0
0
0
0
0
0
0
0
0
0.0119062
0
0
0.00045779
0.000532262
0.000604423
0.000481631
0.000603253
0.00043257
0.000624863
0.000753534
0.000496913
0.000531499
0.000591152
0.000252754
0.000567197
0.000195123
0.000574474
0.00098522
0.00190559
0.000549758
0.000297352
0.000365704
0.000482693
0.000717969
0
0
0.0072739
0.00547291
0
0
0
0
0.0108401
0
0
0
0
0
0
0
0
0
0
0
0
0
0.0142713
0.0109133
0
0
0
0.0284951
0.0189058
0
0.0025434
0.000719224
0.00113964
0.00111202
0.00126159
0.000854014
0.000739413
0.000743277
0.000617176
0.000810404
0.000815127
0.000519038
0.00065796
0.000678498
0.00846706
0
0
0
0
7.11859e-05
0
0
0.000266424
0
0
0
0
0
0
0
0
0
0
0
0
0
0
0
0.34847
3.3431
0.00111584
0.000536706
0.00355069
0.00390233
0.0174217
0.00459796
0.380992
0.770821
0.388465
0.445488
0
0
0
0
0
0
0.0110645
0.429763
0.0440105
0.0197003
0
0
0
0
0
0
0
0
0
0
0.001726
0
0.000643139
0.000589813
0.000971489
0.00124996
0.0015638
0.00118284
0.00061002
0.000627384
0.000419891
0.000365755
0.000504646
0.000547685
0.000343593
0.000187804
0.000111902
0.000301388
0.00026088
8.99463e-05
0.000252944
0.000206374
0.000197343
0.000242258
0.000152243
0.000192751
0.000107209
0.00010325
0.000203307
0.00023798
0.000123552
9.65127e-05
0.00663083
0.00830904
0.00394644
0.00232404
0.00402481
0.0159803
0.00260573
0.00205221
0.0570933
0.0163884
0
0.0176177
0
0.00292107
0.00381168
0.00053328
0.00147762
0.0023584
0.00606294
0.0446043
0
0
0
0.719343
0
0
0
0
0.113145
0.206772
0
0.0449993
0.00932624
0.0192543
0.00609426
0.010355
0.00688589
0.00239546
0.00165839
0.00137865
0.00344537
0.00092936
0.000227713
0.00255888
0.001149
0.00194405
0.00318876
0.00262866
0.00247772
0.00173925
0.00237713
0.000995135
0.00141549
0.00129467
0.00106643
0.00198511
0.00161375
0.00138493
0.000230116
0.00019313
0.00132096
0.00348911
0.000969248
0.000634485
0.00172698
0.00184118
0.00138741
0.00120138
0.000910563
0.0012994
0.000578189
0.000702605
0.0005097
0.000498946
0.000745318
0.00073126
0.000477953
0.000321017
0.000377869
0.000246503
0.000316246
0.000234709
0.000259901
0.000136639
0.000185576
0.000170932
0.000193448
9.19708e-05
0.000161879
8.61722e-05
0.000356876
9.54082e-05
0.000132482
0.000197979
9.16907e-05
9.07735e-05
6.0872e-05
6.81611e-05
0.000130815
0.000113154
1.23918e-05
4.15849e-05
1.32827e-05
0.16133
0.255507
0.0197588
0.00521435
0.0404217
0.00425366
0.0025479
0.0150353
0.0109169
0.147562
0
0
0
0.154057
0.266242
0
0
0
0
0.00738446
0.00383704
0
0
0
0
0
0
0.067005
0
0.0244933
0.0248122
0
0
0
0.0135441
0
0
0
0
0
0
0
0.0156944
0
0.0307077
0
0
0
0
0
0
0.000252017
0
0
0
0.00628544
0
0
0
0
0
0
0
0
0
0
0
0
0
0
0
0
0.0132226
0
0.00697761
0
0
0
0
0
0
0
0
0
0
0.000463697
0.00063147
0.000544055
0.000626922
0.000333262
0.000265765
0.000485267
0.000347144
0.000332683
0.000334793
0.00065209
0.00036642
0.000321808
0.000450413
0.00144377
0.00324185
0.00367218
0.001135
0.000343691
0.000249257
0.000150611
0.00073837
0.00512853
0
0.00131096
0
0
0
0
0
0
0
0
0
0
0
0
0
0
0
0
0
0
0
0
0
0
0
0
0
0.00847741
0.195811
0.000950644
0.000789866
0.000587082
0.00074209
0.000816473
0.00100258
0.000799186
0.000984778
0.00101065
0.000748459
0.000683231
0.000578454
0.000536929
0.000865035
0
0
0
0
0
0
0
0
0
0
0
0.00643836
0
0
0
0
0
0
0
0.0526707
0
0.0995886
0.211911
0
0
0
0
0
0
0
0
0.00744977
0.00673122
0.011854
0.0308324
0.475565
0.0291413
0
0
0.00264935
0.00683171
0.0115169
0
0
0
0
0.00116809
0.00172127
0
0
0.107992
0
0.2358
0
0
0
0
0
0
0
0
0
0
0
0
0
0.000230438
8.32061e-05
0.000143642
0.000273586
8.24721e-05
0.000149997
0.000103037
0.000150206
0.000168313
0.000143742
8.89801e-05
0.000114729
0.000169951
0.000139351
1.80465e-05
0.0001046
5.79319e-05
9.50835e-05
6.17916e-05
6.45749e-05
4.30519e-05
9.92483e-05
0.000113646
6.40073e-05
0.000136865
9.55029e-05
8.40667e-05
6.74349e-05
7.62319e-05
0.000142722
7.4874e-05
5.8685e-05
8.09383e-05
1.2332e-05
8.68013e-05
0.00068736
0.000579503
0.000983895
0.00091745
0.00180291
0.000934108
0.000893764
0.000870618
0.000143173
0.000553644
0.000370667
0.000585923
0.000238934
0.000269928
0.000126785
0.000251226
0.000204656
0.000329516
0.000245636
0.000267198
0.00021252
0.00028344
0.000171602
0.000171961
2.43106e-05
0.00012923
0.000213824
6.52719e-05
0.00278998
0.00564525
0.00636875
0.00772121
0.00335832
0.00164902
0.00250561
0.0150949
0.00534118
0.0829386
0
6.81704e-05
0.000145773
7.39954e-05
6.14204e-05
0.000127309
0.000101076
0.000116703
0.000143485
0.000108155
0.000150863
0.000176455
8.47543e-06
6.84345e-05
4.13361e-05
9.76523e-05
0.000177096
0.000132334
0.000102802
0
0
0.0036377
0.00541005
0.00501848
0.00301308
0.00354979
0.0340621
0.0021191
0
0.00994704
0.0166954
0
0
0
0
0
0
0.00744673
0
0
0.0411506
0.015322
0.019923
0.00943315
0.0708617
0.0076581
0.0151728
0.000738866
0.00322938
0.00147141
0.00214795
0.00184217
0.00152097
0.00172701
0.00276083
0.00428604
0.00170709
0.00207239
0.00221695
0.00141651
0.00148262
0.00155219
0.00122604
0.000561007
0.000782317
0.0016553
0.000181939
0.000405546
0.00048428
0.0011489
0.000396157
0.000772915
0.00111737
0.000703954
0.00158821
0.00155649
0.000834008
0.00071775
0.000650692
0.000671718
0.000704621
0.000954034
0.000964167
0.000627214
0.000373745
0.000463624
0.000362449
0.000379832
0.00030494
0.000172971
0.000304017
0.000268667
0.000177424
0.000102007
0.000184252
9.83751e-05
6.93967e-05
0.000385353
5.03341e-05
9.80171e-05
0.000308407
5.89984e-05
0.000404714
7.58559e-05
1.20745
0
0.358678
0
0
0
0
0.0322098
0
0
0
0
0
0
0.0157919
0
0
0
0
0.0350173
0
0
0
0
0
0
0
0
0.00833329
0
0.0212391
0
0.00389332
0
0
0
0
0
0
0
0
0
0.021027
0
0
0
0
0
0
0
0
0.203685
0
0.00288014
0
0
0
0
0
0
0
0
0
0
0.0118292
0
0
0
0
0.00150747
0
0
0
0
0
0
0
0
0
0
0
0
0
0
0
0
0
0
0
0.00389156
0
0
0
0
0.00201207
0.000156372
0.000134397
0.000187306
0.000192313
0.000140394
8.57349e-05
0.000407768
0.000279266
0.000472031
0.000357218
0.000513589
0.000255077
0.000455438
0.000217839
0.00039345
0.00056042
0.000315196
0.00052279
0.000368122
0.000218054
0.000726617
0.00245731
0.00189077
0.000214243
0.000565855
0
0
0
0
0
0
0
0
0
0
0
0.00389428
0
0
0
0.879187
0
0
0
0
0
0
0
0
0
0
0
0.0127721
0.00142876
0.00112273
0.000384458
0.000211929
0.000431549
0.000379815
0.000272991
0.000447761
0.000644369
0.000774375
0.000730563
0.000639668
0.000754929
0.000425928
0.000610132
0
0.00176867
0
0
0
0
0
0
0
0
0
0
0
0
0
0
0
0.000563493
0
0
0
0
0
0
0
0
0
0
0
0
0
0
0
0
0
0.0475501
0
0.00350054
0.00165037
0.00115751
0.00722447
0.0134172
0.0451004
0.0185398
0
0
0
0
0.0218187
0.0167824
0
0
0
0
0
0
0
0
0
0
0
0
0
0
0
0
0
0
0
0
0
0
0
0
8.97285e-05
0.000137803
0.000226582
0.000166096
0.000224328
0.00024148
0.000339707
0.000275493
6.17013e-05
0.000135244
0.000149552
7.55097e-05
3.88089e-05
0.000194548
8.81374e-05
0.000140364
0.000136152
0.000162517
0.00019791
8.83902e-05
0.000104031
4.80336e-05
0.000692068
0.000748438
0.00123426
0.000919822
0.000936078
0.00209552
0.000919535
0.0010169
0.000227137
0.000551248
0.000570358
0.000375935
0.000370157
0.000242919
0.000280973
0.0001713
0.000192069
0.000189138
0.000223349
0.000213427
0.000263681
0.000230232
0.000281714
0.000215282
0.00026239
0.000177126
0.000241474
0.000117641
0.000125094
0.000139665
2.86474e-05
0.0107721
0.00548937
0.0036523
0.00145357
0.00945844
0.00300831
0.00207755
0.0014473
0.00456983
0.0159056
0.0551572
0.0318593
5.84204e-06
1.52116e-05
0.000240037
8.52054e-05
4.20923e-05
0.000108117
8.63075e-05
9.11041e-05
0.000104711
8.43204e-05
6.68337e-05
0.000146187
5.03839e-05
6.3948e-05
0.000124475
8.77185e-05
3.16583e-05
7.93419e-05
7.93213e-05
3.22149e-05
2.19165e-05
6.5913e-05
0.000109939
9.5775e-05
0.000151736
0.00943653
0.0253348
0.0105522
0
0
0
0
0
0
0
0
0
0
0.00976838
0
0.00450571
0
0
0
0
0.00473415
0
0.0711668
0
0.0223402
0.00672439
0.0818053
0.0155461
0.00795613
0.00860867
0.00206234
0.0046197
0.00347843
0.00202966
0.00502411
0.00142802
0.00342136
0.00243536
0.00109054
0.00172687
0.00114414
0.0014098
0.00159272
0.000825601
0.000544665
0.000829363
0.00128632
0.00134988
0.00127208
0.00166575
0.00148372
0.000967844
0.00143108
0.00150963
0.00172884
0.00111205
0.00156855
0.000513608
0.000515074
0.00108998
0.00100906
0.000624667
0.000515147
0.00047478
0.000388143
0.000295969
0.000434272
0.000363845
0.000208043
0.000214313
0.000300041
0.000241676
0.000146797
0.000154714
0.000108663
0.000257342
0.000143176
0.000110501
0.000237869
0.000135876
0.000656157
0.000383715
0
0
0
0
0
0
0
0
0
0
0
0
0
0
0
0
0
0
0
0
0
0
0
0
0
0
0
0
0.00928002
0.00498099
0
0
0
0
0
0
0
0
0
0
0
0
0.240112
0
0
0
0
0
0
0
0
0.11134
0
0
0
0.0105258
0.00487882
0
0
0
0
0
0
0
0.0110616
0.00816943
0
0
0.00380512
0.00524394
0
0
0
0
0.00980237
0
0.0146673
0
0
0
0
0.0184595
0.00520933
0.00425527
0
0
0
0
0
0
0
0
0
0
0.00573316
0
0
0
0
0
0
0
0
0.000154415
0.000121959
7.82124e-05
5.77839e-05
0.000135978
0.000123349
2.81024e-05
9.92334e-06
0.000153436
5.89654e-05
0.000271105
0.000587337
0.000359772
0.000234057
0.000662772
7.25417e-05
0.000142493
0.000372637
0.000384583
0.00026064
0.00111533
0.000749335
0.00101842
0.000673593
0.00282772
0.00267209
0.0032058
0
0
0
0
0
0
0
0.00735574
0.014639
0
0
0
0
0
0
0
0
0
0
0.000246212
0
0
0
0
0
0.000416629
8.60658e-05
0.000331622
0.0015055
0.000921538
0.000612925
0.000866511
0.000411378
9.25724e-05
0.000151138
0.00026703
0.000240304
0.000176355
0.000289128
0.000468278
0.000564622
0
0
0.00164742
0.012073
0
0
0.0119648
0.00209519
0
0
0
0.420771
0
0
0
0.479532
0.356797
0.560691
0
0
0
0.00719173
0
0
0
0
0
0
0
0
0.0460554
0
0
0
0
0
0.149688
0
0
0
0
0
0
0.12034
0
0.00496061
0.00333934
0.0049552
0.187367
0.0454274
0
0
0
0
0
0
0.00462385
0.00147119
0
0
0
0
0
0
0
0
0
0
0
0
0.402394
0
0
0.00350171
0
0.00872335
0
0
0
0
0
0
0
0.00133365
0.000263461
0.000122067
0.000308253
0.000148128
0.000188697
0.000164773
8.17272e-05
0.00042131
0.000117238
0.000200611
0.000334321
0.000224369
0.000212736
0.000150933
6.23684e-05
0.000155718
0.000202508
0.000199844
0.000165634
0.000163132
5.29778e-05
0.00010784
0.000180211
6.57353e-05
0.000100825
0.000177805
9.6913e-05
0.000141176
0.000642798
0.000783024
0.00137584
0.00103959
0.00163785
0.00110756
0.000951712
0.00107
0.000246706
0.000145558
0.000315834
0.000494192
4.0618e-05
6.69042e-05
2.78366e-05
0.000143308
0.00017744
0.000117408
0.000150465
0.00015312
0.000224334
0.000273856
0.000310135
0.000309419
0.00024976
0.000411073
7.34415e-05
0.000142329
0.000204926
0.000293723
0.00458569
0.00954867
0.00230309
0.00168646
0.00254112
0.00762365
0.00178294
0.00186648
0.0148462
0.0023509
0.02395
0.0179672
4.97687e-05
0.000339192
9.67269e-05
0.000118308
0.000252582
6.47635e-05
0.000101266
0.000111065
9.18588e-05
2.53549e-05
3.92811e-05
4.8083e-05
5.12913e-05
2.84728e-05
5.27272e-05
5.59368e-05
5.21018e-05
3.12288e-05
6.37232e-05
7.26121e-05
5.71433e-05
8.96821e-05
3.27802e-05
1.80659e-05
0.000125808
0
0
0
0
0
0
0
0
0
0
0
0
0
0
0
0
0.00491352
0
0
0
0
0
0.500079
0
0.0194275
0.00535368
0.0302447
0.161503
0.00251472
0.00310262
0.00120962
0.00115548
0.0027351
0.0037326
0.00179667
0.00116776
0.00172627
0.000649183
0.0023256
0.0016473
0.000857347
0.000936248
0.000893302
0.000845584
0.00125045
0.00109333
0.000977382
0.000497086
0.000850807
0.00149385
0.00122952
0.00122756
0.000694827
0.000970745
0.00067923
0.00115959
0.000888473
0.000504611
0.000702712
0.000519949
0.000527448
0.000398232
0.000464458
0.000331291
0.00040677
0.000216835
0.000355672
0.000163917
0.000181451
0.000264381
0.00021426
7.92386e-05
0.000144663
5.36555e-05
0.000193975
8.82146e-05
0.000408727
0.00035871
0.000658701
0
0
0.0233711
0.000300016
0
0
0
0
0
0
0
0.00418036
0
0.017435
0.0138757
0.041599
0.0212918
0
0.0463376
0.0359606
0
0
0
0.000804118
0
0.00405183
0.00506211
0
0
0
0
0
0
0
0
0.00080415
0
0
0
0
0
0
0.398678
0
0
0
0
0
0
0
0
0
0
0
0
0
0
0
0
0
0
0
0
0
0
0
0
0
0
0
0
0
0
0
0
0
0
0
0
0
0
0
0.0147084
0
0
0
0
0
0
0
0
0
0
0
0
0
0
0
0
0
0
0
0
0
0
0
0
0
0
0
0
0
0.000832904
0
0
0
0
8.87683e-05
7.72587e-05
0.000157336
0.000214789
0.000121318
7.10334e-05
0.000274227
0.00011431
0.000228433
1.40078e-05
0.000116804
9.16123e-05
0.000287601
0.000299465
0.000123076
0.000656277
0.000258262
0.00112211
0.000236234
0.000181068
0.000309526
0.000263724
0.00203026
0.000643417
0.00214306
0.00106367
0.0046378
0.00468125
0.00299422
0
0
0
0
0
0.0133092
0
0
0
0
0
0
0
0
0
0
0
0
0
0
0
0
0
0
0.000570714
0.00038085
0.000148178
0.000444545
0.00037904
0.00412849
0.00117052
0.00150705
0.00065388
0.000424103
0.000497154
0.000991329
0.000636414
8.88779e-05
0.000329969
0.000358243
0
0.00374792
0
0
0
0
0
0.00194923
0
0
0.00190303
0
0
0
0
0
0
0
0
0.000150293
0
0
0
0
0
0
0
0
0
0
0
0
0
0
0
0
0
0.0747755
0.0270545
0
0
0
0
0
0
0
0
0
0
0
0
0
0
0
0
0
0
0.00463612
0.0165372
0.0154993
0
0
0
0
0
0
0
0
0
0
0
0
0
0
0
0
0
0
0
0
0
0
0
0
0
0
0
0
0
0
0.0862746
0.0320753
0
0
0
0
0
0
0.000310769
0.000414982
0.000427578
0.0009447
0.000477338
0.000696484
0.000741749
0.000896844
0.000499795
0.000341639
0.000350378
0.000251795
0.00030156
0.000188146
0.000101594
0.000210669
0.000191204
0.000200959
0.00024163
0.000188987
0.000160569
4.00861e-05
0.000181172
4.63485e-05
0.000121707
0.000157824
2.7311e-05
0.000717398
0.000739627
0.000941474
0.00111794
0.00135787
0.00109905
0.000921084
0.00085662
0.000273125
7.12883e-05
0.000557026
0.000313131
9.48307e-05
5.64525e-05
0.000108654
0.000173521
4.34341e-05
0.000110764
0.000184007
0.000141555
0.000284679
0.000264639
0.000302642
0.000148059
0.000269106
0.000332449
0.000121597
0.000157395
0.000134488
0.000181214
0.00649229
0.00564045
0.00227532
0.00142286
0.00386252
0.00262478
0.00110558
0.00199743
0.00379372
0.0119091
0.014524
0.0466577
0
0
0.174495
0.00011593
0.000237008
0.000252459
0.000221086
7.65798e-05
0.00016104
4.16889e-05
0.000129537
6.30128e-05
9.49088e-05
4.86984e-05
3.29055e-05
5.65644e-05
5.41657e-05
1.23864e-05
5.66635e-05
1.38988e-05
6.49396e-05
1.40924e-05
0.000120632
3.41664e-05
0.000103624
9.48107e-05
4.40053e-05
4.57436e-05
5.75745e-05
0
0
0
0
0
0.0066656
0.0112642
0
0
0
0
0.00504185
0.0061271
0
0
0
0
0
0
0
0
0
0
0
0
0.0261575
0.00829761
0.0603993
0.003235
0.00565845
0.00315303
0.00391504
0.00161158
0.0036022
0.00103691
0.000338303
0.000237448
0.0010842
0.000308984
0.000842731
0.000959976
0.000630058
0.00044668
0.000575564
0.000770371
0.000866565
0.000938287
0.000449607
0.000704901
0.000692484
0.000596748
0.00093431
0.000650333
0.000713387
0.000364122
0.000725668
0.000704832
0.000564926
0.000586169
0.000418408
0.000430294
0.000321048
0.000412142
0.000217392
0.000155201
0.000334777
0.000127943
0.000328557
0.000242248
0.000123411
0.000172286
1.66061e-05
0.00013291
0.000124148
0.000125928
0.000128621
0.000362788
0.000159111
0
0
0
0
0
0
0
0
0
0.0170216
0
0
0
0.0231149
0.0195915
0.0457525
0.0473786
0.042037
0.122818
0
0
0
0
0
0
0
0
0
0
0
0
0
0
0
0
8.65435e-05
0
0
0
0.15328
0
0
0
0
0
0
0
0
0
0
0
0
0
0
0
0
0
0
0.486675
0
0
0
0
0
0.00308667
0.00109918
0.00469294
0
0
0
0
0
0
0
0
0
0
0
0
0
0
0
0
0
0
0
0
0
0
0
0
0
0
0
0
0
0
0
0
0
0
0
0
0
0
0
0
0
0.0090507
0
0.00105419
0
0
0.00554926
0
0.0296234
0.000145497
0.000101903
6.80116e-05
0.00014137
7.66128e-05
0.000155623
7.04841e-05
0.000314275
8.34173e-05
8.93771e-05
0.000499967
0.000344375
0.000212319
0.000155283
0.000132666
0.000236951
7.9867e-05
7.21089e-05
0.000127058
0.000347458
0.000329787
0.000658592
0.000554279
0.000132261
0.000831923
0.000232098
0.00268448
0.00092587
0.00333637
0.00438997
0.00318693
0.00548657
0.0107328
0
0
0.0301197
0.0127927
0
0
0
0
0
0
0
0
0.0256544
0
0
0
0
0.018405
0
0
0.0144945
0
0
0
0.000388435
0.000318182
0.000546055
0.000846898
0.00178901
0.000390747
0.00194285
0.000866782
0.000694512
0.000193261
0.000692688
0.000731076
0.000347195
0
0
0
0
0
0
0.00191645
0.00454914
0
0
0.00598801
0
0
0
0
0
0
0.654516
0
0
0
0
0
0
0
0
0
0
0.0376764
0
0
0
0
0
0
0
0
0
0
0
0
0
0
0
0
0
0
0
0
0
0
0.00993403
0
0
0
0
0
0
0
0
0
0
0
0.0438476
0
0
0
0
0
0
0
0.00718524
0
0
0
0
0
0
0
0
0
0
0
0
0
0
0
0
0
0
0
0
0
0
0
0
0
0.00447504
0
0
0
0
0
0
0
0
0.000938241
0.000548261
0.00100725
0.000690964
0.000435863
0.000290555
0.000457054
0.000296435
0.000159453
0.000171272
3.44473e-06
0.000181073
7.42325e-05
9.42886e-05
0.000137212
0.000101377
0.000152529
0.000221143
0.000226327
0.000216521
0.000220344
0.00042049
0.000182935
5.22079e-05
0.0001473
5.22278e-05
0.000140584
0.000141343
0.000603094
0.000764246
0.000815367
0.00100675
0.000780004
0.00110791
0.000928928
0.000791942
2.71645e-05
0.000359263
0.000341229
0.000550536
6.93877e-05
8.30682e-05
0.000121902
8.3629e-05
0.000101537
9.96489e-05
0.000113199
0.000118806
0.000648242
0.000562336
0.000464044
0.000837639
0.000487357
0.000350768
0.0002589
0.000133302
0.000159594
0.000197424
0.00717765
0.00769461
0.0022419
0.000489646
0.00195744
0.0025046
0.000892909
0.00137145
0.0161784
0.00732881
0.0205358
0.0293957
0.0349135
0.0175756
0.000142832
0.000166592
7.12564e-05
0.000143765
8.52706e-05
6.04198e-05
0.000122387
7.61068e-05
8.50726e-05
6.0574e-05
5.54874e-05
2.91757e-05
2.56861e-05
6.228e-05
4.46329e-05
1.69164e-05
6.29832e-05
4.62795e-05
8.95379e-05
6.23831e-05
0.0001001
0.000111107
4.53627e-05
1.43394e-05
2.96009e-05
0
0
0
0
0
0
0
0
0
0.00568705
0
0
0
0
0
0.00104829
0.00127985
0
0
0
0
0
0.166539
0.232874
0
0.00639386
0.0172104
0.00568038
0.0046192
0.0092846
0.00571513
0.00899558
0.00281038
0.00163332
0.0016176
0.00185636
0.00192051
0.000943108
0.00136653
0.000496058
0.00182363
0.00129941
0.000530324
0.00065029
0.000357147
0.000931129
0.00128723
0.000490488
0.00083795
0.000598328
0.000639081
0.000307545
0.000809555
0.000450618
0.000531472
0.000251417
0.000389062
0.00055288
0.00024497
0.000395144
0.000235256
0.000315731
0.000310558
0.000134839
0.000286304
9.36706e-05
0.000279274
6.9662e-05
4.66214e-05
0.000177324
5.55866e-05
0.000115332
0.00010469
0.000132736
9.83702e-05
0.000145423
0.000175831
0.000118542
0
0
0
0
0
0
0
0
0
0
0
0
0
0
0
0
0
0.145295
0
0
0.145431
0
0
0
0.00332236
0
0
0
0
0
0.0604488
0
0
0
0
0
0
0
0
0
0
0
0
0
0
0
0.00811988
0.0123954
0.0118137
0
0
0
0
0.00437216
0
0
0.00540756
0
0
0
0
0.0090021
0
0.00549599
0
0
0
0
0
0
0
0
0
0
0
0
0
0
0
0
0
0
0
0
0
0
0
0
0
0
0
0
0
0
0
0
0
0
0
0
0
0
0
0
0
0
0
0
0
0
0
0
0
0
0
0
0
0.0035188
0
0
0
0.0133344
0
0
9.11739e-05
8.04474e-05
3.45659e-05
0.00028048
0.000166181
5.89979e-05
1.20086e-05
7.0516e-05
4.84478e-05
0.000128538
9.96192e-05
0.000187697
0.000135196
0.000167319
0.000307098
3.71457e-05
0.000147395
0.000226506
3.75519e-05
0.000162861
0.000131299
0.000142983
0.000111791
0.000101898
0.000180739
0.000671371
0.000507964
0.00150848
0.00182265
0.000664313
0.00172486
0.00197144
0.00205746
0.0013443
0.00151205
0.00898343
0.0146857
0.436538
0.332106
0.0153895
0.00142645
0
0
0.0143012
0
0
0.0176765
0
0
0
0
0
0.000160893
0
0
0
0.00165229
0
0.0175961
0
0
0.000297049
0.00119765
0.001936
0.000832068
0.000920232
0.00138897
0.000821133
0.000443789
0.00129002
0.000769468
0.000360309
0.00131776
0
0
0.00104721
0
0
0.00321539
0.000666104
0
0
0
0
0
0
0
0
0.172409
0.337725
0
0
0.0975784
0
0.00927476
0
0
0
0
0.0368617
0
0.00578614
0.129055
0
0
0
0
0
0
0
0
0
0
0
0
0
0
0
0
0
0
0
0
0
0
0.0218952
0
0
0
0
0
0
0
0
0
0
0
0
0
0
0
0
0
0
0
0
0
0
0.00753668
0.00221342
0
0
0
0
0
0
0
0
0.00211294
0
0
0
0
0
0
0.00139948
0
0
0
0
0
0
0
0
0
0
0.0984527
0
0
0
0.00633992
0
0.00053034
0
0
0
0
0
0
0
0.000420142
0.000708156
0.000399179
0.000151184
6.51396e-05
0.00022947
9.77216e-05
0.000129638
5.83597e-05
0.000103935
8.81866e-05
7.72903e-05
0.000167337
0.000104816
0.000157669
5.57784e-05
8.74332e-05
0.000162006
0.000200596
0.000262752
0.000217575
0.000254624
9.65539e-05
0.000170673
0.000279915
0.000305735
0.000140295
0.000176752
0.00014027
0.000783031
0.000581238
0.000749392
0.000803156
0.00094191
0.000800801
0.00071382
0.000940498
0.000322769
0.000100532
0.000470929
0.000587886
5.14398e-05
0.000123523
0.000119466
3.66037e-05
0.00012583
0.000126787
0.000336072
0.000312825
0.000343879
0.000155052
0.000555174
0.000429944
9.91453e-05
8.16266e-05
0.00026787
0.000333537
5.56123e-05
0.00610754
0.00473195
0.00233293
0.00115467
0.00223355
0.00252407
0.00119576
0.0017051
0.00399185
0.0144404
0.00986087
0.00282762
0.00627129
0.00588507
9.75839e-05
5.57573e-05
3.7291e-05
0.00010627
8.11834e-05
9.51175e-05
0.000115245
4.25013e-05
5.96458e-05
2.9871e-05
4.4903e-05
5.39356e-05
4.23504e-05
8.24785e-05
0.000106036
2.96338e-05
3.85933e-05
1.04822e-05
8.37096e-05
6.8647e-05
3.92062e-05
1.37425e-05
0.000112563
0.000131904
0.0120726
0.00809884
0.0145384
0
0
0
0
0
0
0
0
0
0
0
0
0
0
0
0
0
0.0127097
0
0.121396
0
0.0298862
0.00730867
0.00858545
0.00592054
0.00444631
0.00254092
0.0169279
0.00684811
0.00137921
0.000986943
0.00087216
0.00173348
0.00175642
0.00058529
0.0015098
0.00161827
0.000749817
0.00139038
0.000884444
0.00105188
0.00109589
0.00058559
0.00126388
0.000812773
0.000955496
0.000734499
0.000547215
0.00024519
0.000724238
0.000478915
0.000469674