/*--------------------------------*- C++ -*----------------------------------*\
  =========                 |
  \\      /  F ield         | OpenFOAM: The Open Source CFD Toolbox
   \\    /   O peration     | Website:  https://openfoam.org
    \\  /    A nd           | Version:  8
     \\/     M anipulation  |
\*---------------------------------------------------------------------------*/
FoamFile
{
    version     2.0;
    format      ascii;
    class       surfaceScalarField;
    location    "6000";
    object      phi;
}
// * * * * * * * * * * * * * * * * * * * * * * * * * * * * * * * * * * * * * //

dimensions      [0 3 -1 0 0 0 0];

internalField   nonuniform List<scalar> 
788991
(
-0.0610998
0.0108491
-0.0463864
-0.0573785
0.01554
-0.0586855
-0.0172249
0.00409807
-0.0509072
0.0368033
-0.0149523
0.0350737
0.0020865
-0.0701921
-0.0239187
-0.0539702
0.0695525
-5.94649e-05
-0.0575508
0.0525367
0.0390716
0.0330696
-0.0573677
0.026803
-0.0456728
0.0296829
-0.0315624
0.0327519
-0.00481065
0.0354233
0.00723631
0.0437222
0.0531812
-0.00109316
0.0661548
0.00391519
-0.0158765
-0.0462163
-0.0675758
0.0146041
-0.0427245
0.0517486
0.0169521
-0.0571755
0.0505987
-0.0305994
-0.038308
0.0168639
-0.0213058
-0.0808287
-0.0327697
0.0455419
-0.0647758
-0.0141496
0.0435645
0.000752822
0.0247659
0.00456347
0.0459059
0.0123096
0.00651033
-0.00318732
-0.020016
0.0189088
0.00978058
0.0279912
0.00269341
-0.0099776
0.0237292
-0.0013483
-0.0329519
0.0109182
0.10494
0.0176393
-0.0100018
-0.0964805
0.0223149
-0.0254379
0.0283077
0.0100673
0.0155929
-0.0515674
0.0606696
-0.0323659
0.0108668
-0.0584063
0.0360113
-0.0299879
-0.038645
-0.018565
0.0469465
0.00310142
-0.0412563
-0.0446219
-0.00643866
0.0298548
0.00379718
0.0197029
-0.0349667
0.0169024
0.0545546
0.0055752
-0.0226863
-0.0421212
0.0168851
0.0302707
0.0286607
0.012954
-0.00320876
-0.0199438
0.0154397
0.026607
-0.0109218
-0.0269734
0.0148334
-0.00418979
0.0173096
0.0175331
0.0119015
-0.0375482
-0.0444296
-0.0144121
-0.0247562
-0.0123741
-0.00424498
0.0234485
0.0187841
0.033142
0.0197423
-0.036248
0
0
0
0
0
0
0.0669069
-0.0808386
0.00654775
-0.0104228
0.0530664
0.058667
0.0266515
0.0324133
0.0202727
-0.0279421
0.0649321
0.0184329
0.0430087
0.0342508
0.0174128
-0.0394867
0.00893927
-0.0173258
0.0469211
0.0153781
-0.0488568
-0.0273058
0.0244126
-0.0912574
0.0360577
-0.0330894
-0.026057
0.0631478
-0.0667231
0.0620324
-0.029158
-0.00703554
0.0575664
-0.0571364
0.0468646
-0.0228577
0.0289884
0.0714901
0.0583868
0.0390323
0.0420817
0.0483155
0.0926837
0.0454896
0.0364273
-0.0714884
0.0605769
0.0934607
-0.0484101
0.025743
-0.0949066
-0.00207169
0.0287814
0.0309939
0.0321998
0.0752443
-0.0135506
0.0126795
-0.0355673
0.00571712
-0.0822174
-0.0200597
0.0328688
-0.0240453
0.0130971
0.0562946
-0.00733952
0.00903602
0.0677258
-0.000177941
-0.0103905
-0.0123557
-0.0239872
-0.026176
-0.0661406
0.052585
-0.00279779
0.039945
0.0350944
2.62651e-05
0.016495
0.00482999
0.0348553
-0.0118635
0.018634
0.0292122
0.00429856
-0.022284
0.0249477
0.0200096
-0.0130565
0.0399106
0.0392361
0.00107517
0.0161295
0.0310211
0.00848353
0.00994015
0.0131613
-0.000681077
-0.0111475
0.000287034
0.080584
0.110703
-0.0598859
0.101888
-0.0167744
0.0420766
-0.0732957
0.00245138
0.0688046
0.0615907
0.0258214
0.0792898
-0.0598561
0.0403351
0.0836284
-0.0398346
0.0102871
0.06023
-0.0320079
0.00488238
0.0316467
0.025512
0.0400427
0.0633714
-0.0261716
0.0536332
0.103516
0.00923085
0.0574686
0.0745037
0.00971225
0.0338966
0.0260977
-0.0177676
-0.0163457
0.0658155
0.0392105
0.000846538
-0.00332817
-0.0161115
-0.00135389
0.000159669
0.0013945
-0.0278253
-0.0750185
0.031599
0.0107908
-0.00899799
-0.0181664
-0.00342132
5.33855e-05
0.00213498
-0.0397875
-0.0181213
-0.012223
-0.0075438
0.0154755
-0.0225226
-0.0128842
0.0546731
0.0233037
-0.0320464
0.0128101
0.0433531
0.00551337
-0.00354523
0.0178247
0.0162746
-0.0241905
0.00496833
-0.03027
-0.205624
0
0
-0.0201013
0.0391442
0.0606238
0
0
0
0
0
0
0
0
-0.0390998
-0.0175818
-0.019954
-0.0198586
-0.00968313
-0.0241785
-0.0377211
-0.0506013
0.00117156
-0.0234776
-0.0302247
-0.0154146
-0.0449516
-0.0387281
0.0166845
-0.0368049
-0.0152269
0.0199285
-0.028248
-0.0198702
0.00651512
-0.0287579
-0.00543093
0.0191445
0.0265453
0.00367841
0.00601246
-0.0282514
-0.00499009
-0.0301637
0.00961716
0.00383328
-0.016259
0
0
0
0
0
0
0
0
-0.0603199
0
0.0503239
0.0962854
0.138594
0.0396501
0.0539892
0.0418029
0.00577189
0.0656719
0.0308439
-0.0290681
0.068276
0.0287696
-0.027387
0.0351088
0.0204001
0.0218336
-0.00117983
0.00455069
-0.0202469
0.0312908
0.0298078
-0.0135089
0.0332744
0.0419175
0.00564726
0.0184871
0.0396883
-0.0146371
0.00372963
0.0318489
-0.022558
-0.0326144
0.0316663
0.0429519
-0.0722105
0.0648743
-0.0482907
0.0479043
0.0180865
0.0387727
0.104297
-0.0932473
0.0309049
-0.0277606
-0.0222259
-0.0287336
-0.0221099
-0.0469138
-0.0219084
0.0372498
0.0266364
0.0322787
0.0587582
0.0344299
-0.105115
-0.0021136
0.0237186
-0.0850953
-0.00878405
-0.0522776
-0.0288649
0.0598729
-0.0105582
0.0151863
-0.0160097
-0.0013761
-0.0522158
0.00548543
0.00953658
-0.0151565
0.0049103
-0.000231126
0.0546067
-0.0771307
-0.00870878
-0.00551421
-0.00992464
-0.0169538
-0.00350795
-0.027707
-0.0098258
-0.00359396
-0.00629235
0.0235745
0.00402258
-0.00123903
0.0242426
0.0281125
-0.000917376
0.03322
0.0455633
0.0100248
0.024503
0.0527059
-0.0408025
-0.093742
0.0701032
-0.0197937
-0.0455919
-0.0862343
-0.0812234
0.129954
-0.0439602
0.0472526
0.0116365
0.000964298
0.0223594
0.0183732
0.011828
-0.00154301
0.018383
0.0247919
-0.0240264
0.0171946
0.0197448
0.0170566
0.0362776
0.0436049
-0.0148403
0.0602501
0.0718811
-0.0216327
0.0508353
0.0721714
-0.0307269
0.0401002
0.0669951
0.0194222
0.0448897
0.0555423
0.0156604
0.0312296
0.0681692
0.0187624
0.0453065
0.0623349
-0.017793
0.0609112
0.0529322
0.00933591
0.0475768
0.0335504
0.0305619
-0.021014
0.00303725
-0.0272187
-0.0636886
0.0773297
-0.0487135
0.0128508
-0.059179
0.0119824
-0.00740818
0.0127488
-0.0263008
-0.0038313
-0.0103039
-0.0317249
-0.00966092
-0.0504475
-0.00600044
-0.0355615
0.0338077
-0.0176888
-0.0268813
0.0244442
-0.0219047
-0.00783053
0.0451714
0.0475146
-0.0121744
-0.00806655
-0.0437648
0.0216443
0.0488316
-0.0720035
0.0459668
0.000823836
0.0278056
0.0552329
0.0808744
0.0166883
0.0998827
-0.0634688
0.00553242
0.0600095
-0.0564132
-0.00937965
0.0545818
-0.0532596
-0.0302876
0
0
-0.0521764
0
0
0.0154956
0
-0.0141066
0
0
0
0
0
0
0
0
0
0
0
0
0
0
-0.0383019
-0.0275215
0.00529208
-0.0059274
-0.0242542
0.00656037
-0.0361269
-0.0279446
0.0188052
-0.0387364
-0.0243601
0.0196413
-0.0535163
-0.0253184
-0.0182835
-0.0123408
-0.00889926
0.0203863
-0.0253608
-0.0359291
0.00546327
-0.0104409
-0.00357611
0.00442505
-0.028367
-0.0203461
-0.00950739
0.00242706
0.0105343
0.00989177
0.0172182
-0.00323004
-4.87917e-05
4.4551e-05
0
5.15859e-05
0
0
2.57486e-05
8.03731e-06
-5.69569e-05
-9.72635e-06
9.98698e-05
0
-6.52595e-05
0
0
0
0
6.11811e-05
0
0
-3.96962e-06
0
0
0
0
0
0
0
0
0
0
0.0452881
0
-0.140798
0.052162
0.225044
0.0151937
0.0669269
0.0516279
-0.0160079
0.0606099
0.0418155
0.0123056
0.0495346
0.0329842
-0.00654985
0.0189908
0.0362425
0.00032058
-0.0106811
0.024434
0.0108486
0.0332702
0.0198526
-0.00906643
0.0276191
0.0328627
0.00547274
0.0160579
0.0163419
0.0165225
0.00345901
0.00141651
-0.040399
0.0041338
0.048176
-0.0632122
0.00526813
0.00977933
0.0299638
-0.0595767
-0.00261764
0.01813
0.0250211
0.0621369
0.0143591
-0.0189771
-0.040733
-0.0167481
0.00773116
0.0174082
-0.114787
0.0132433
0.0340342
-0.00598581
-0.00760128
0.0276495
0.00467473
0.0103379
-0.0102838
-0.0177107
-0.00732282
-0.000391051
0.00407023
0.00881047
-0.00816301
-0.0128898
0
-0.0385349
0.0107953
0.00392938
0.0073235
0.0476855
-0.0213809
0.0375386
-0.0679148
-0.0342692
0.0271987
0.0350841
-6.5601e-05
0.0240312
-0.0411181
-0.0128336
0.00879268
0.0215646
-0.0445227
0.0234135
-0.0190765
-0.023886
-0.000277546
-0.0188872
-0.0286381
-0.0267937
0.0145409
0.0156281
0.00682259
0.00511576
0.00686411
-0.00386789
0.00258346
0.00825692
-0.0108271
0.0365402
0.0336923
-0.0202008
0.0537498
0.0487314
0.0334348
0.0466648
0.0901065
0.096861
-0.261597
0.140231
-0.0798163
-0.101803
-0.200349
0.0780713
-0.150872
0.000155863
-0.0175291
0.0132698
-0.044118
-0.0355521
0.0156594
-0.0245156
0.0150069
0.0258424
0.029526
-0.000456959
0.0459014
0.0496418
-0.013183
0.0449264
0.0572299
-0.0152259
0.0425175
0.0559786
-0.0311437
0.0424171
0.0557979
0.027433
0.0177836
0.0041934
-0.0288457
0.00790484
0.0534352
-0.0179987
0.027206
0.0102533
0.0190232
0.0617317
-0.00193284
0.00763716
-0.00958008
-0.0304479
0.0118517
0.00750041
-0.0389149
-0.00671686
-0.0326545
-0.0454853
0.0248601
-0.0199532
-0.0558894
-0.0118906
-0.00287844
0.00929127
-0.0142741
0.0141554
0.0331967
-0.034654
0.0173365
-0.0366676
0.018153
0.0637204
-0.00763931
0.0030247
0.0350217
-0.0545822
-0.0166022
-0.0128987
-0.0333305
-0.042811
-7.83148e-05
0.0023061
0.00744069
-0.0158437
-0.0465628
0.0299634
-0.0177249
-0.0266007
0.0404932
-0.0496455
0.0503553
-0.0158344
-0.00862255
0.121205
-0.00697161
0.00736811
0.000850548
0.0146596
-0.011654
-0.00624235
0.0219242
0.00389186
-0.0156083
-0.0255431
0.0321038
-0.0398911
0
0
0
0
0
0
-0.0238871
0
-0.0192364
0
0
0
0
0
0
0
0
0
0
0
0
0
0
0
0
0
0
0
0
0
0
0
0
-1.46399e-05
0
2.6122e-06
0
-8.69102e-07
-3.33306e-06
2.79441e-06
0
-2.78562e-06
3.00216e-07
1.50641e-07
0
-1.55465e-07
0
0
0
0
0
0
0
0
0
0
0
0
0
0
0
0
0
-0.0171875
-0.0502033
-0.0254344
0.00785529
-0.0488221
0.0301452
-0.0618182
-0.0175825
0.0333194
-0.0643488
-0.0296304
-0.024576
-0.0411624
-0.0115589
-0.00573389
-0.0165701
-0.0160853
-0.0268429
-0.0191645
0.00454436
-0.00747606
-0.0153142
-0.0181181
-0.00326733
-0.0141006
-0.015798
-0.00237756
0.0117597
-0.0143953
0.016537
0.0190515
0.020835
-0.00573841
0
0
0
0
0
0
0
0
0
0
0
0
0
0
0
0
0
0
0
0
0
0
0
0
0
0
0
0
0
0
0
0
0
0
0
0
0
0
0
0
0
0
0
0
0
0
0
0
0.000343041
0.000931723
0.0500668
0.0135842
-0.0292638
0.0682187
0.100514
-0.0295677
0.0586538
0.0798269
0.0243468
0.0433631
0.0722795
0.0146247
0.0299221
0.055166
-0.01921
0.00644339
0.0580593
0.0320706
-0.0361885
0.0367817
-0.0459295
0
0
0
1.11164e-06
0
0
0
0
0
0
0
0
0
0
0
0
0
0
0
0
0
0
0.0157245
0.00484939
-0.0204212
0.01215
-0.00379623
-0.000706345
-0.0336555
-0.0241974
-0.0149272
-0.0149832
0.0437059
-0.0349243
-0.074371
-0.0245307
-0.0486298
-0.0215839
0.0349506
0.0290626
-0.0212264
-0.0075679
0.00928307
-0.120903
-0.0461559
0.0717258
-0.0983855
-0.024703
0.0916162
-0.00880308
-0.098436
-0.0291869
-0.0394081
0
0
-0.0160823
0
0
-0.0168321
-0.00389764
0
-0.00221963
0
0
0
0
0
0
0
0
-0.0561504
0.0890467
0.035435
-0.0708475
0.0310069
-0.076206
-0.0931926
-0.0186589
0.0343885
-0.0547292
0.0848644
-0.0520196
0.021366
-0.169877
-0.110904
0.0716061
-0.115665
-0.0853926
0.0879555
-0.0401389
0.03577
0.0122579
-0.143285
-0.0387093
0.028849
0.0354393
0.0453049
0.106852
-0.0317971
-0.0010163
-0.05311
0.0390659
-0.0129079
-0.0155774
-0.00553561
0.0130148
0.009114
-0.0266935
-0.004846
0.00715731
0.0118147
0.00629429
0.0013678
0.0266173
0.0122989
0.0274938
-0.0523717
-0.0211592
0.146997
0.0785152
0.156824
-0.145773
-0.425671
-0.0157898
-0.360908
-0.0511162
-0.190149
0
-0.00253046
0.00538112
-0.012887
0.00280332
0.000976588
0.0357532
0.0257071
-0.0232343
0.01381
0.0333064
0.0355844
-0.0140663
0.0336994
0.0168821
0.0161976
0.019852
0.0395129
-0.0120254
-0.000987122
0.0356745
0.0113432
-0.000200772
0.0185732
-0.0135277
0.0333183
0.0946167
0.0412518
0.00695197
0.0305387
0.0275256
0.028515
-0.00482925
0.017303
0.0444572
-0.0297155
0.00957591
-0.0114993
-0.0145063
0.0030331
-0.014589
-0.0286302
0.0204738
0.0858716
0.0159423
-0.014132
0.0667837
0.0515423
-0.0353051
0.0421571
0.0508579
0.00537715
0.0691554
-0.0277432
-0.0351268
0.0776221
0.0415506
-0.0455457
0.096524
0.0365604
-0.0655943
0.120674
0.0225886
0.0769257
0.0694133
0.0396167
0.03795
-0.0595364
0.0429733
-0.0526678
0.0664722
-0.00534411
0.0106773
0.0473101
0.00733497
0.0691564
0.0218018
-0.0511087
0.030265
-0.039679
0.00533432
0.00309866
-0.0474273
0.0385866
-0.035172
-0.0028212
-0.00780529
-0.0331633
0.0396984
-0.0272741
0.0123489
0.00714788
0.029107
-0.0196037
-0.0314675
-0.00110361
0.00785203
-0.0344934
0.00270168
-0.0371296
-0.0260611
-0.0164458
-0.0343629
-0.0114379
-0.0304041
0.0421576
-0.032769
-0.0372922
-0.0362273
-0.00893988
0.0323797
-0.0397072
0.027695
-0.0262361
0.0120085
-0.0133462
0.0366376
-0.00179624
0.00964024
-0.0213533
0.035213
0.0191522
-0.0323277
-0.0158063
-0.0110286
-0.049692
-0.0588672
-0.020921
0
0.0092444
-0.045317
-0.0522758
-0.0732186
-0.029087
0
-0.0138569
0
0.0402111
-0.0182418
0.0322667
-0.0201151
-0.0183774
-0.0143112
0
-0.0582502
0
0
0
-8.81157e-05
1.26176e-06
0
0
0
0
0
0
0
0
0
0
0
0
0
3.73412e-05
9.86581e-05
0
0
0
-8.70658e-05
0
0
0
0
0
0
0
0
0
-2.71381e-05
-0.000130427
0
0
0
0
0
0
0
0
0
0
0
0
-1.02037e-06
0
0
0
0
0
-3.1958e-05
6.77792e-05
0
-8.69029e-05
-4.15468e-05
-1.89414e-05
0
0
0
-7.37011e-05
0
-0.000160023
-7.34622e-05
-3.59676e-05
0
-8.46891e-05
-5.09967e-05
4.56079e-06
-9.01249e-05
-3.41084e-05
-2.62424e-05
-0.000125776
0.00013196
0
0
0
-0.000126985
0
0
0
0
0
0
0
0
0
0
0
0
0
0
0
0
0
0
-0.000112094
0
5.17296e-05
0
-6.0527e-05
0
-0.005396
-0.0786745
0.0443531
0.0142015
-0.0694897
-0.0516832
-0.0616275
-0.023006
-0.0384073
-0.0293013
-0.0238412
0.0361091
-0.00862941
-0.0246854
-0.000482333
-0.0215379
-0.015222
-0.0191182
-0.0250852
-0.00879456
-0.00741929
0.0122403
0.00432779
-0.0324487
-0.0167119
-0.0107639
-0.00993531
0.000474277
0.002335
-0.0244706
0.0171704
0.0246376
-0.0193117
0
0
0
-4.16485e-05
3.10494e-05
0.000103772
0
0
0
0
0
0
6.90032e-05
0
-2.06694e-05
0
0
0
0
0
0
0
0
0
0
0
0
0
0
0
0
0
0
5.92964e-05
6.31698e-05
3.49339e-05
0
-5.61819e-05
0
-0.000911369
0
0.000212179
-0.0544645
-0.00011079
-0.0633898
0.0318128
-0.0332878
-0.0129151
0.0617148
0.032795
0.0258392
0.0472277
0.0831508
0.0452673
0.0271177
0.0796418
-0.0369652
0.0148076
0.0764178
-0.0498803
-0.0166987
0.065192
0.0640738
-0.0501918
0.0647434
0.0375384
6.1474e-05
0
0
8.50033e-05
0
-2.8767e-05
0
-6.7237e-07
0
-2.07352e-08
0
2.37846e-06
-1.5052e-06
0
0
0
0
0
0
1.08587e-05
0
0
4.37102e-05
0
0
0
0
0
0
0
0
0
0
0
0
0.001557
0
0.00371056
0.0137876
-0.0203938
0.00696199
0.00284675
-0.0128001
0.0166699
-0.0322304
-0.000861319
-0.00952059
-0.00617619
0.00586667
-0.000762994
-0.014598
-0.00591936
0.0141596
0
-0.00302953
0
0
0
0
-0.0950173
0
0
-0.00701312
0.0131844
-0.0276949
-0.049966
0.0279834
0.02273
0
0
0
0
0
0
0
0
0
0
0
0
0
0
0
-1.61095e-05
0
-1.57514e-05
-0.0363093
-0.0697642
-0.0241094
-0.0569057
-0.0652926
-0.0391692
-0.0738296
-0.0855658
-0.0245432
-0.069323
-0.050049
-0.019337
-0.038786
-0.0363136
-0.00520431
-0.0518039
-0.0557912
0.00405279
-0.0276694
-0.0304435
-0.000578695
-0.0367124
-0.0305189
0.00496689
-0.034844
-0.0325209
-0.00160366
-0.0202606
-0.0376195
0.022564
-0.013107
-0.0407011
-0.023131
-0.00154802
-0.0340879
-0.0258411
-0.0220843
-0.0350177
0.0256205
0.00905273
-0.0318949
-0.0291003
0.00555168
0.0173982
-0.209305
-0.106735
-0.114074
-0.0948407
-0.0624205
0.0952099
-0.0102386
-0.109383
0.000168051
-0.115766
0.0340411
0.0156832
-0.0273071
-0.0497264
-0.0139945
-0.0608776
0
0
-0.0472481
-0.0140527
-0.0251284
-0.000217836
0.0133153
-0.0298496
0.0109225
-0.00302561
0.03897
0.0232548
-0.0421204
-0.0683129
-0.115309
-0.0471675
0
-0.045886
0
0.0354917
-0.560454
-0.0299618
0
0
0
0
-0.00273037
0
-0.0132077
0.0146528
-0.00617549
-0.050938
0.00083531
-0.00704428
0.0194192
0.0185885
0.00992499
-0.0626106
-0.00503916
0.0243327
0.000372524
0.00854153
-0.00980721
0.00542006
0.00753913
0.0128843
0.000938122
0.0340816
0.0287703
-0.0228096
0.00267952
-0.000875011
0.0419624
0.00237461
0.0385371
-0.0447224
0.0252787
0.0812116
0.0531245
0.0372332
0.0242015
0.0155107
0.0505054
0.0269556
-0.0282166
0.0252115
0.040188
-0.0298196
0.0376823
0.0296745
0.0303347
0.00516921
0.0200116
0.00499397
0.0133943
0.122746
-0.0634194
0.0153143
0.0507473
0.0161135
0.0826725
0.0456733
-0.0783308
0.0672637
0.0166143
0.0685999
0.0916376
0.00173306
-0.0731393
0.0735673
0.0104826
-0.0659399
0.0483493
0.014928
0.070453
0.0864726
0.0357858
0.0651498
0.0495654
0.013066
-0.0609284
0.0453449
-0.00104597
-0.045464
0.0456431
0.0026199
-0.0359462
0.0296441
0.00631119
-0.0383096
0.00718162
-0.00741784
-0.0352398
-0.00729122
-0.0222872
-0.0305278
0.00205236
-0.0177117
0.0137493
-0.00861671
-0.0432744
-0.0357151
0.000145968
-0.0175577
-0.0160767
-0.0179328
0.0032652
-0.0169402
-0.00896382
-0.0191417
0.015538
-0.00138688
-0.00481751
-0.000625218
-0.0134779
-0.0189446
0.00618674
-0.0131073
0.00526538
0.0461064
-0.0457338
0.0282197
-0.0384304
0.0608224
-0.0241789
-0.0454701
-0.0236588
-0.0487569
0.0636413
0
-0.0462318
-0.139086
0
0
0
-0.0166167
-0.0290176
-0.0205366
0
0
0
-0.0078913
0
0
-3.47522e-05
-8.74712e-05
-6.91913e-05
0
-4.39659e-05
0
-0.00500946
0
0
0
0
0
0
0.00025277
0.000589446
-0.000132196
0.000275408
-0.000371567
0
0
0
-3.2882e-05
0
0.000119058
0
-4.978e-05
0
0
0
0
0
0
0
0
-9.8073e-07
-5.89586e-05
-0.000250826
0
4.16417e-05
0
-0.000163643
0
0
0
0
0
-0.000208892
0
0
-8.07728e-07
-2.17528e-06
0
0
0
0
-6.18264e-05
-2.58463e-05
0
0
0
-8.45204e-05
0
0
0
0
0
-4.32398e-05
0
0
-3.37941e-06
0
0
0
0
0
0
0
0
-0.000137609
0
7.79763e-05
-5.70641e-05
0
5.68254e-06
0
-5.12916e-05
0
0
0
0
0
0
0
0
1.36881e-06
0
0
0
0
-0.00893603
-0.0632985
0.0487339
0.0144715
-0.0396441
-0.0566251
-0.0354924
-0.014453
-0.0247334
-0.0252951
0.000235967
-0.00183885
-0.0187662
-0.0129547
-0.0204678
-0.0144577
0.00405782
0.0185138
-0.0121521
-0.00903408
0.001872
0.000805764
0.00530655
-0.00845352
-0.0414096
0.00434385
0.0305162
0.0239278
-0.00206635
-0.0118294
0.00799978
0.0203889
-0.0184816
-7.46575e-05
0
-1.2342e-05
9.08195e-05
-3.69555e-05
-1.09066e-05
0
0
0
0
0
0
0
0
0
0
0
0
0
0
0
0
0
0
0
0
0
0
0
0
-8.71688e-05
0
0
0
0
0
0
0
0
0
0
0
-0.0544099
-0.002088
-0.0556592
-0.00385169
-0.0265518
-0.00901395
0.0290216
-0.00658277
0.025685
0.0325395
0.0623805
-0.0479457
0.0166934
0.0722167
0.0506543
-0.00389141
0.0798489
0.0657504
-0.0228798
-0.0292286
0.0605535
-0.0384045
0.0626367
-0.06146
0
0
0
0
0
0
0
0
0
0
1.6666e-06
0
0
0
0
0
0
4.13445e-05
-9.22085e-06
-0.00217323
0
0
0
-6.914e-05
0
0
0
0.000283969
0
-0.000279665
-0.00168601
-6.46308e-05
-0.000632118
0
0
0
0
0
0
0
0
0
0
-0.00142972
0
-0.040283
-0.0347589
-0.00389725
0.00517258
0.0339007
-0.00963005
0.0104401
-0.0497532
-0.00562701
-0.000543546
0.00850643
0
-0.0229689
0.000801488
0.0354062
0.00893562
0
0
0
0
0
0
-1.38085e-05
-1.71422e-05
1.3092e-05
-0.0235965
-1.05262e-05
0
0.0145933
0
-0.00112908
-0.00350468
-0.0305209
-0.0186109
0
-3.88387e-07
0
-7.63126e-07
0
0
0
0
0
0
0
0
0
0
0
0
0
0
0.0303574
0.0363199
-0.00704562
0.0211427
-0.0362231
-0.0121903
0.028512
0.0150222
-0.0201492
-0.0305159
0.000266748
0.0284733
-0.00385805
-0.0264714
-0.00444933
0.0338719
0.000256627
0.00132673
-0.0133088
0.0108012
0.00146176
0.000362246
-0.00970505
0.015936
-0.00259556
0.00061427
0.0017781
-0.0142421
0.0205006
0.000915427
-0.0060817
-0.0157942
0.0204123
-0.0197511
-0.014005
0.00303187
0.00556654
-0.0196419
-0.020285
-0.00188476
-0.00324625
0.00855742
-0.0190247
-0.00549913
0.00849594
-0.0455865
-0.0617996
-0.00258527
-0.0440159
-0.0662974
-0.0351656
-0.055452
-0.0628841
0.0291992
-0.0737021
-0.0643584
-0.0153973
-0.0320961
-0.0404835
-0.00506696
-0.0552188
-0.039423
-0.0140471
-0.0347196
-0.0270204
0.0145331
-0.0201244
-0.0273092
-0.0197464
-0.0217224
-0.0409222
-0.0301602
-0.019307
-0.0500605
-0.0286696
-0.0223067
-0.0414357
-0.0257166
-0.0158774
-0.0409253
-0.000855005
-0.0129314
0.0203834
-0.0208399
-0.02956
-0.00203335
-0.00104274
-0.0402188
-0.12492
-0.100477
-0.0344107
-0.0112041
-0.0828473
-0.0935946
-0.0889285
-0.0306116
-0.069169
0.081578
-0.0114592
0.0283477
0.00520878
-0.178206
-0.161892
-0.0015412
-0.00311006
-0.0261717
-0.0151444
-0.00314235
-0.0244584
0.0157015
0.000133457
-0.0175314
-0.0224352
0.0133685
-0.0272203
-0.0282354
0.0385915
-0.0136133
-0.0356707
0.0349549
0.00422553
-0.00831825
0.0183857
0.00997408
0.0030362
0.0263665
0.036661
0.0328952
0.00780999
0
2.32299e-05
3.13415e-05
0
0.0047754
0.0070761
0.0424846
0.0240462
0.00403116
-0.0519672
0.0110675
0.0152516
2.29135e-05
-0.0482318
9.70742e-06
4.36139e-05
-5.50293e-05
-1.39079e-05
0
-5.54916e-05
0
0
0
0
0
0
0
0.00841918
0
0
0.00190806
0.0314731
-0.0475311
0.0388425
-0.027442
0.00714683
-0.0555265
0.073153
0.0117321
0.0184861
0.0632239
-0.0926647
0.0384679
-0.018096
-0.00197015
-0.0176074
0.00819839
0.0183458
-0.0334828
0.0107779
0.0358842
0.0170056
0.0179121
-0.0753282
0.00878569
-0.0158152
-0.0854643
0.024268
0.118394
-0.0621506
0.0459168
0.0192095
0.0282219
0.0792861
6.04839e-05
0.0224346
0.0371274
0.00450517
0.00662621
0.0528767
0.00871775
0.0325761
-0.0082042
-0.00122984
0.00265268
0.0109062
0.0670185
-0.0379977
0.00964747
0.06883
0.0241504
0.0545148
0.0179691
0.0736793
0.0370433
-0.00100918
-0.0817287
0.0554999
-0.0107381
-0.0585668
0.0614871
0.0147272
0.103337
0.101051
0.0281382
0.0841167
0.0687086
0.0194867
-0.0686867
0.0639703
0.00199859
-0.0596072
0.0540526
0.00967908
-0.0498373
0.0330726
-0.00108073
0.0472177
0.0170034
-0.0117638
-0.0445075
0.00766898
-0.0137415
0.0293466
0.00681296
-0.0177216
0.0109014
-0.0152925
-0.0313033
-0.0311391
0.0105626
0.0016273
-0.0089785
-0.00379763
-0.0335362
0.0285588
0.0143228
-0.0178157
-0.0115105
-0.00572481
0.0324017
-0.0181269
-0.0381495
0
0
-0.00433622
0
0
0.0344177
0
-0.0165846
-0.0199174
-0.0218415
0
0
0
0
5.8573e-06
0
0.000164128
0
-0.0554807
0
0
0.000140534
0
-0.000444523
0
-0.000335588
0
-8.12746e-05
0
0
0
0
0
0
0
-0.000357074
6.99068e-05
-3.87951e-06
0
-4.8608e-05
0
-0.000203402
2.03982e-05
-2.02549e-05
3.59391e-05
0
0
0
0
0
0
0
0
0
0
0
0
1.3284e-05
0
-0.000197788
0
0
0
0
0
0
0
0
0
0
0.00315372
0.00200762
0
-1.01321e-05
-1.16223e-05
0
0
0
-3.60435e-05
0
0
0
0
0
0
0
0
0
0
0
0
-4.37781e-06
-0.000102201
0
0
0
0
-7.52421e-06
-7.363e-06
0
0
0
0
0
0
0
0
0
0
0
0
0
0
0
0
0
0
0
0
0
0
0
0
0
0
0
2.62655e-05
0
-4.87953e-05
0
0
0
0.000114311
0
-1.1815e-05
-0.00309431
-0.00743572
-0.0330358
-0.00673052
0.021467
-0.0195833
0.0511895
0.0225728
0.00120713
-0.029146
-0.0351
0.0240936
-0.0226887
0.0434127
-0.0350215
0.00123646
-0.0101094
-0.00995533
-0.0097964
0.0189009
-0.0219024
-0.00944591
-0.0114387
-0.00458898
0.00992303
-0.00705132
-1.21595e-05
0.001751
-0.000899262
-0.00932702
0.0218383
-0.0278821
-0.000410298
0.0210528
0.020544
-0.00839678
0.00737784
3.5328e-06
0
0
0
0
0
0
0
0
0
0
0
0
0
0
0
0
2.45544e-05
0
-8.43415e-08
0
0.00216149
0.00874904
0
0
0
0
0
0
0
0
0
0
0
0
0
0
0
0
0
0
-0.0307175
0.0888658
0.0325317
-0.0294714
-0.0100146
-0.010575
-0.0128282
-0.025777
0.0308693
0.0241056
0.01683
-0.00965679
0.0157903
0.027112
0.0390922
0.0399319
0.00526241
0.0592331
-0.0471866
-0.00241592
0.0603128
0.0426089
-0.0318092
0.0426595
0
0
1.40877e-05
-9.44142e-07
0
0
0
0
0
0
0
0
0
0
5.04214e-05
0
0
0
0
0
0
0
0
0
0
0
0
0
1.60094e-06
-4.29871e-06
0
0
0
0
0
0
0.000259778
0
0
0
0
0
0
0
0
0
0
0
0
0
0
0.000163461
0
-0.000324255
-0.00617763
-0.0250482
-0.00232048
-0.010004
-0.00799565
-0.00207469
0.00134185
-0.0221856
-0.0307361
0.021797
0
-0.0463204
0
0
0
0
-0.0180677
-0.0397554
0.00954335
0
0
0
0
0
0
0
0
0
0
0
0
0
0
0
0
0
0
0
0
0
0
0
0
0
0
0
0
0
0
0
0
0
0
0
0
-0.0444086
0.00244219
-0.00730215
-0.0298857
-0.0353468
0.00707151
-0.0315883
-0.0376316
-0.004077
-0.0652295
-0.0472607
-0.0252389
-0.00899561
0.005097
-0.0184331
-0.0147781
0.000285809
0.0187566
-0.00430372
0.01093
-0.0221364
0.00267327
-0.00161182
-0.0172713
0.00794671
-0.0125369
0.0292471
-0.00319924
-0.00426862
-0.0160747
-0.0140716
-0.00205782
-0.0130097
-0.0632907
-0.046239
0.0131048
-0.0563017
-0.0711099
0.00139332
-0.0596801
-0.078571
-0.0143776
-0.0729571
-0.079257
0.000957909
-0.0293221
-0.0491569
0.00396344
-0.0302496
-0.0558511
0.00648445
-0.0323906
-0.0399284
-0.00802304
0.0198573
-0.0226612
-0.0237333
0.00306591
-0.00528288
-0.0369687
-0.0335199
0.000495754
-0.0361239
-0.0469222
-0.0107089
-0.0435702
-0.0371436
-0.0245944
-0.0504793
0.0225397
-0.0299446
-0.0402891
0.0108588
-0.00811391
0.0179435
0.0146069
-0.0261085
-0.0109079
0.00862238
0.00993468
-0.0549263
0.0472887
-0.0485775
-0.0964917
0.0765836
-0.0719443
-0.0973183
-0.0763659
-0.0907078
-0.0401251
0.0434948
0.00102016
-0.105564
-0.0683887
-0.00513363
0.0139128
-0.101703
-0.00961298
0.00140781
-0.0134379
0.00831629
-0.00612235
-0.00785365
0.0129496
-0.00623178
-0.0138055
-0.0225867
0.000776311
-0.0183979
-0.0210312
0.00867842
-0.0176187
0.0178228
0.00618898
-0.0210723
-0.013304
0.0176881
0.0137897
0.00892972
0.00999678
0.0155627
0.00972237
0.00104104
0.00274646
-0.00337282
-0.00427435
-0.00273163
6.95127e-05
-0.00831584
0.0221084
0.0237404
0.030339
0.0228369
-5.9195e-05
1.95955e-05
0.000195727
-0.000174465
0.000145204
8.01738e-05
0
-0.0257677
0
0
0
0
-0.000181106
0
0
0
0
0
-0.000100836
0
3.85473e-05
0
-1.77094e-05
-2.24309e-05
0
0
0
0
4.34664e-05
3.62136e-05
0
-0.0138588
0
0.036417
0
-0.0665715
-0.0113309
0.00170151
-0.00895513
0.119691
0.0503091
-0.0158775
0.0137199
0.0664449
-0.106062
-0.0336908
0.0645101
-0.0612295
-0.0589258
-0.0103091
0.046464
-0.00908151
0.00904186
-0.0988812
0.0513147
0.150492
0.0894713
0.0626703
0.0893509
0.0359361
0.0595848
0.00239243
-0.0373438
0.0603797
0.0428278
-0.01448
0.0110541
0.0373218
-0.00164112
0.0738626
0.0593523
-0.012197
0.0957193
0.0528669
-0.0417838
0.0495507
0.113378
-0.0618956
0.0557317
0.139098
-0.0536211
0.0861471
0.040485
-0.0872399
0.0473748
0.0296553
-0.0856324
0.0811437
-0.0299418
0.117224
0.0565339
-0.093841
0.0935202
0.00988817
-0.0776755
0.0734335
0.00760916
-0.0660607
0.0613755
0.00861195
0.0577306
0.0384417
0.00148327
-0.0572068
0.0230236
-0.0150759
0.0542647
0.0187001
-0.0245627
-0.0427845
0.00900825
-0.0152915
-0.0270868
-0.0119038
-0.0285083
-0.0205387
0.0162587
0.0106503
-0.0278695
-0.0237101
-0.0450478
0.0287629
-0.0210567
0.0219495
-0.0216252
0
0
0
0
0
0
0
0
0
0
0
0
0
0
0
0
0
0
0
0
0
-0.000364352
0
0
0
0
0
0
-1.55185e-05
0
0
0
0
0
0
0
0
0
0
0
0
-1.44416e-05
7.2939e-05
6.43412e-05
0
2.81214e-05
0
0
0
0
0
0
0
0
0
0
0
0
0
0
0
0
0
0.00269587
-0.00241634
-9.18017e-05
0
0
0
0
0
-2.17123e-05
0
0
0.00693264
0
-0.00225828
0
-0.000489014
0
0
2.28609e-05
7.08332e-05
7.13892e-06
0
-3.39983e-05
0
0
0
0
0
0
0
0
0
5.74279e-05
-2.08312e-05
0.000130353
0
-0.000102319
0
-3.04827e-05
9.00672e-05
-6.50654e-05
0
1.62935e-05
0
0
0
0
1.32156e-05
0
-7.4888e-05
0
-2.89027e-05
-3.43077e-05
0
0
0
3.24991e-06
-1.61078e-05
6.36548e-05
4.69957e-05
-6.50268e-05
0
-2.33495e-05
0
0
0
0
0
2.22394e-05
0
0
0
0
0
-8.57358e-06
0
9.76243e-06
0
0
0
2.74352e-05
0
0
0
0
0
0
0
0
0.0345953
0.0150953
0.00890695
0.0124516
0.0218666
-0.00177774
0.0118505
-0.00112236
0.0218265
0.00755857
0.0108714
-0.0226894
0.014
0.00164611
0.00568746
-0.0355129
0.015615
0.0120624
-0.0173872
-0.0134221
-0.0204355
-0.0190773
-0.0256735
-0.00571964
0.0107566
-0.0118428
-0.00200579
0.00409647
0.00558918
0.00174941
0.0107138
0.00755527
-0.00836726
-0.0169451
-0.00537311
-0.0240947
0.0175474
-0.00265686
-0.0277277
-0.00171797
0
0
0
0
0
0
0
2.5444e-05
0
0
0
5.23905e-05
-0.0226657
-0.0523956
7.76255e-05
0
0
0
0
0
0
0
-2.51389e-05
0
0
0
0
-1.02997e-06
0
2.01809e-06
0
9.85824e-07
0
0
0
0
0
0
0.00788975
0.0128791
-0.00303035
0.00589916
-0.01414
-0.0209865
0.020453
-0.0174306
-0.00883773
-0.00896219
0.00821099
-0.00466604
-0.00571941
0.00764476
-0.0267563
-0.001609
0.0179984
0.00261168
0.00530259
0.0112184
0.0207507
-0.0195212
-0.0150813
0.0251923
7.0575e-07
0
0
2.58029e-06
6.59912e-05
-1.17475e-05
8.59256e-05
7.60212e-05
-1.99903e-05
2.08855e-05
3.52847e-06
9.67518e-05
-1.52066e-05
0
1.87656e-05
0
0
0.00207796
-0.00255116
0
0
0
0.00248567
0.0115344
-0.0115511
0.000488588
0.0145601
0.00342082
4.59631e-05
0
0
-4.60198e-05
0.000115969
-4.90555e-06
0
0
0
0
0
0
0
0
0
0
-8.91049e-05
0.000237053
0
0
0
0
0
0.000689687
0
0.000816513
0
0
0
0
0
0
0
0
0
0
0.00269986
0.000687786
-0.00915826
-0.00415972
0.0459419
-0.0109957
-0.0769766
-0.0212708
-0.00356364
-0.0321416
-0.0290507
0
0
0
0
0
0
0
-3.5656e-05
-2.00246e-05
2.02332e-05
-0.0159256
0
0
0
-2.18105e-05
0
0
0
0
0
0
0
0
0
0
0
0
0
0.00996592
-0.00539376
0
0
1.99742e-05
1.37137e-05
-7.08996e-05
0
7.74216e-05
0
0
0
0
0
0
0
0
0
2.697e-05
0
1.22376e-05
-0.0485295
-0.0113835
0.00327815
-0.056407
-0.0373305
0.0149346
-0.0139981
-0.0267505
0.00569139
0.0505895
0.0121732
-0.0388465
0.00313364
-0.0314178
-0.0362812
-0.0546759
0.0100601
-0.0135101
-0.0324334
0.0156802
-0.0241974
-0.000826459
0.0143018
-0.0287184
0.00338382
0.0360662
-0.0246862
0.00114121
0.0268842
-0.0161276
0.00426651
0.0134865
0.0181153
-0.00956328
0.0231233
-0.00712954
-0.0221526
0.0187014
-0.0200053
-0.00619643
0.00901991
-0.0711426
-0.0372114
0.0148704
-0.0696652
-0.0585597
-0.0286262
-0.0676041
-0.0815615
-0.00958602
-0.0618808
-0.0897688
-0.0208438
-0.0181068
-0.0145112
0.00840884
-0.0459738
-0.0247034
-0.00182376
-0.0156366
0.000860518
-0.00832534
0.00132263
-0.000226659
-0.00919006
0.00835725
-0.0154679
0.0287315
0.0071675
-0.0235889
0.0308617
-0.0108989
-0.0300498
-0.0400705
-0.0268789
-0.05511
-0.0216694
-0.0322415
-0.0583218
0.00359766
-0.00458184
0.0108015
-0.00947607
-0.0311827
-0.0247578
-0.00159622
0.0101183
0.00274132
-0.0234268
-0.0576201
-0.0994959
0.0488221
-0.126439
-0.0644651
0.0607588
-0.0851698
-0.0533696
-0.00994309
-0.0409512
-0.0593023
0.0461399
0.020488
-0.0272181
0.0806266
-0.00908678
0.026514
0.00352397
-0.0161397
0.00372583
0.0272399
-0.0316084
0.00642374
0.0136332
0.0102076
0.00210817
0.00457618
0.00602481
0.00609272
-0.00971578
0.00515153
0.0122277
-0.00211437
-0.0103322
0.0116191
0.00682542
0.00719918
-0.00151983
0.00296797
0.0054135
0.0115333
0.00777405
-0.00872703
0.00237959
0.00316942
-0.013476
0.0132584
0.0124058
0.0118978
-0.00828606
0.00461601
0.0228558
-0.000106875
0
0
0
0
0
0
0
0
0
0
0
0
0
0
0
0
0
2.24422e-05
0
0
0
0
0
-1.37928e-05
0
-5.41102e-05
0
-3.02485e-05
0
0
0
0
0.0800493
0
-0.511143
-0.0446715
-0.0379
-0.0954949
0.186267
-0.134259
-0.13698
-0.0532031
0.0768817
0.0452012
-0.0472182
-0.00806162
-0.0215439
0.0348617
0.05641
-0.0569489
0.00339693
0.0291534
-0.0550732
0.0253674
0.0914437
0.0427378
0.0718504
0.0236797
-0.0470906
0.0135485
0.0576028
0.0398072
-0.00390423
-0.0227228
0.0169157
0.0602456
0.0815053
0.0254054
0.0464442
0.0412141