/*--------------------------------*- C++ -*----------------------------------*\
  =========                 |
  \\      /  F ield         | OpenFOAM: The Open Source CFD Toolbox
   \\    /   O peration     | Website:  https://openfoam.org
    \\  /    A nd           | Version:  8
     \\/     M anipulation  |
\*---------------------------------------------------------------------------*/
FoamFile
{
    version     2.0;
    format      ascii;
    class       surfaceScalarField;
    location    "7080";
    object      phi;
}
// * * * * * * * * * * * * * * * * * * * * * * * * * * * * * * * * * * * * * //

dimensions      [0 3 -1 0 0 0 0];

internalField   nonuniform List<scalar> 
788991
(
-0.0496979
0.00776984
-0.0235853
-0.0448275
0.012213
-0.0687823
-0.000915047
0.00972521
-0.065651
0.0546826
-0.0430512
0.0347554
-0.0146814
-0.0685073
-0.0673735
-0.0364892
0.0367704
-0.0162996
-0.0598383
0.0357248
0.0379271
0.0261621
-0.0599943
0.039022
-0.0397417
0.0555646
-0.0360685
0.0321605
-0.00683718
0.0518102
0.0142371
0.0320366
0.0606179
-0.00198438
0.0752096
-0.00688596
-0.0186728
-0.0398851
-0.072859
0.0011996
-0.043372
0.0508201
0.0196152
-0.0396702
0.050309
-0.0126215
-0.0299001
0.0195414
-0.010259
-0.0676718
-0.0379146
0.0541185
-0.0356941
-0.0110991
0.0437784
0.0190246
-0.0126403
-0.0103496
0.0560799
0.0108031
0.0188071
0.00880946
-0.0306231
-0.0110968
0.00270628
-0.0122678
-0.0236845
-0.0324447
-0.00939316
-0.00609521
-0.000319547
-0.0143919
0.114577
0.0293566
0.0240998
0.076202
0.0276112
-0.0408543
0.0187773
0.00892838
0.0221789
-0.0243955
0.0437006
-0.0386337
0.0136362
-0.0458576
0.0396787
-0.0253088
-0.0289531
-0.022107
0.043065
-0.0134123
-0.0395973
-0.0438212
0.0106844
0.0288453
0.0056649
0.0202511
-0.0344581
0.00923142
0.0505622
0.00289176
-0.0272735
-0.0486114
0.0161387
0.0197031
0.0103841
0.0116486
-0.00526724
-0.0121469
0.00779772
0.0177384
3.8738e-05
-0.0338843
0.00379802
-0.0271538
0.00990928
0.025126
0.0082823
-0.0318434
-0.0446883
-0.00565209
-0.0375033
0.00254865
-0.0232622
-0.011832
0.0308388
0.0295473
0.0123378
-0.0133949
0
0
0
0
0
0
0.0147023
-0.0308268
0.0562249
-0.0681333
0.0706798
0.0503341
0.0559297
0.0592825
0.0116602
-0.0580689
0.0735744
0.0141186
0.0607082
0.0157122
0.0105664
-0.0545463
-0.00479516
-0.0260992
0.0391738
0.00454549
-0.064506
-0.0326162
0.00735802
-0.0519427
0.0336757
-0.00585588
-0.0589011
0.0169452
-0.0636191
0.0483098
-0.00125625
-0.0102241
0.0105977
-0.0515102
0.0398537
-0.00425482
0.0260778
0.0530676
0.0423757
0.0365682
0.0571845
0.017923
0.059663
0.0312279
0.04566
-0.0588838
0.0506224
0.066213
-0.0148112
-9.49133e-05
-0.0427547
0.0270204
0.047105
0.0197857
0.00835914
0.0581434
0.0111964
0.0179365
-0.00995115
0.0167856
-0.00528982
0.00877399
0.0283327
-0.00964155
-0.0207301
0.0462036
-0.00239365
-0.00615576
0.00259708
0.0117395
-0.00284857
0.0116889
0.0217257
0.0229993
0.0472738
-0.0262875
-0.010015
0.0417673
0.0386558
-0.00679632
0.0181703
0.0137176
0.0657861
0.00519921
0.0290364
0.0187475
-0.00608368
-0.0204099
0.0206519
-0.00299533
-0.00528793
0.0239498
0.0180984
-0.0225675
-0.00409704
0.0199401
0.0282873
0.00436537
0.0299285
-0.033642
0.0196519
0.0380523
0.0352532
0.0249436
-0.0331334
0.0454847
-0.0694449
0.00754749
-0.0837314
-0.0205235
0.0287002
0.0657683
0.0106374
0.0659557
-0.0371039
0.0349827
0.0653782
-0.0261257
0.0197084
0.0600423
-0.0156134
0.0128829
0.0435857
0.0164781
0.00440677
0.0359516
-0.0180124
0.00755462
0.0397418
0.0149076
0.00766023
0.0447674
0.0123319
-0.0168364
0.0069123
-0.0367662
-0.0150144
0.0297999
0.0332956
-0.0140302
-0.00578591
-0.0137597
0.0420381
0.0753549
-0.00965798
-0.0229922
-0.0487407
0.0217059
0.0191529
-0.0150736
-0.024126
-0.01107
0.0178902
0.0209452
-0.0256366
-0.0265811
-0.00142044
-0.000531293
0.042642
0.0469063
0.00444361
-0.00229238
0.0268498
0.0186147
-0.0174293
0.0291008
-0.0571073
-0.0162059
0.0223126
0.0328995
-0.0235305
0.00605944
-0.013782
0.0271287
0
0
0.0368568
0
0.0737355
0
0
0
0
0
0
0
0
-0.0394352
-0.0148528
-0.028419
-0.0464176
-0.00391398
-0.0233908
-0.0537488
-0.0530174
-0.0103477
-0.0160161
-0.0396879
-0.00562575
-0.0467639
-0.0435259
0.00286727
-0.0275701
-0.0148161
0.0293207
-0.0246879
-0.02284
-0.00309946
-0.0366232
-0.00680289
0.0309056
0.0236337
0.00243686
-0.0136088
-0.00619731
-0.0187218
0.0103602
0.0458538
-0.00761184
0.0287332
0
0
0
0
0
0
0
0
-0.0165834
0
0
0.115312
0.0490496
0.0338629
0.081144
0.0483125
0.0457464
0.0774897
0.0249371
-0.0535023
0.0523791
0.0214682
-0.0427101
0.0227996
0.00964666
0.0234363
-0.030193
-0.0139198
-0.00824069
0.039269
0.0375473
0.00823065
0.028953
0.0297617
-0.0243297
0.0017738
0.0227016
-0.0296821
-0.0304949
0.0456134
-0.0360603
-0.0314448
0.0250049
0.0399073
-0.0332871
0.0088936
-0.0315499
0.00870152
0.00772888
-0.0508666
0.110546
-0.0312109
-0.01411
0.0609508
-0.006891
-0.0213772
0.0446493
-0.0233559
-0.0440455
0.00627376
0.0519929
0.0226608
-0.0398753
-0.0118612
-0.042443
-0.000846937
0.0353818
-0.0254117
-0.00390972
0.0168659
-0.0388587
-0.0509915
-0.0316745
0.0255468
-0.00265628
0
-0.00155345
0
0
-0.00451075
0.0220815
0.00625075
-0.00315005
-0.0415821
0.0151624
0.00077428
-0.0038898
0.00973385
0.0199397
-0.0283108
-0.00912587
-0.00992814
-0.0154542
0.0204075
-0.00863156
0.0142964
-0.0120967
0.0123927
-0.0148431
-0.00219823
0.0167765
0.0279843
0.00701321
0.0413917
-0.0259183
0.00740599
0.0829239
-0.0194921
0.00010556
0.0226524
-0.131303
0.173566
-0.10196
0.108375
-0.0198142
0.0304752
0.0483566
0.0235862
0.0607124
-0.0244572
0.0339645
0.020224
-0.00683567
0.0322724
0.028458
0.0133479
0.0278503
0.0275057
-0.022697
0.0386573
0.0582718
-0.00954369
0.0217453
0.0118726
-0.0208958
0.00921198
0.0188565
0.0357194
0.0154262
0.0320879
0.0286213
0.0450947
0.026149
0.00967394
0.0662036
0.0664598
-0.00300125
0.0121859
-0.0425728
0.0148499
0.0258946
0.0188975
-0.00340559
0.0742137
-0.00447843
0.00541271
0.0442917
-0.0606694
0.0258219
0.0104624
0.00176808
0.0163784
-0.00225031
-0.0138527
-0.0295694
-0.042979
-0.0543144
0.0490952
-0.00250453
0.00575604
-0.0103843
0.0111629
-0.028047
-0.0187749
-0.0365344
0.0237442
-0.00815169
-0.0371893
0.0561457
0.0447469
-0.0088898
0.00708268
-0.00820321
0.0239578
-0.0229009
0.0439862
-0.113352
-0.166171
-0.0133225
0.0249228
0.0552603
-0.00104658
0.0217725
0.00217584
-0.0182492
-0.00723998
0.026821
-0.00880574
-0.00567997
0.000304798
0
0
0
-0.0448367
0
0
-0.0362069
0
0
0
0
0
0
0
0
0
0
0
0
0
0
0
0
-0.0517808
-0.0371941
-0.00367081
-0.0218944
-0.0302509
0.0146602
-0.0391643
-0.0387409
0.0036625
-0.0334428
-0.0306961
0.0189059
-0.0471753
-0.0318047
-0.00816117
-0.0102812
-0.00452403
0.0496105
-0.0294587
-0.0441182
0.0123581
-0.00516834
-0.0137526
0.0180432
-0.023498
-0.0296836
0.00443667
0.0342572
-6.78374e-05
-0.0123672
0.0478702
-0.00660956
-0.0254261
-0.000188802
0
-8.6105e-07
0
0
3.35732e-05
-0.000230946
0.000261708
-6.86952e-05
-2.56234e-05
0
-6.25932e-05
0
0
0
0
5.8742e-05
0
0
-3.74707e-06
0
0
0
0
0
0
0
0
0
0
0.0886815
0
-0.0607355
0.0960733
0.248125
-0.0452768
0.0710112
0.0239739
-0.0300003
0.053327
0.0315071
0.0289925
0.0332432
0.0270759
-0.0144681
0.00611313
0.0122158
-0.00580232
-0.0308057
-0.000464971
0.0166902
0.0350902
0.0189514
-0.0247495
0.0343688
0.0144641
0.0121582
-0.00330081
0.0279449
0.0191581
-0.0284555
0.0079295
-0.0440885
-0.0170568
0.0226344
-0.0283693
0.00191838
0.0182014
0.014302
0.0385204
-0.00399311
0.0385073
-0.0669065
-0.0431558
-0.01229
-0.0215434
0.0563196
-0.0429219
0.0221175
-0.0125767
0.00889217
0
-0.0608427
0
0.0110974
-0.0167433
-0.0165183
-0.04279
-0.0225497
-0.0168164
0
0
0
0
0
0
0
-0.0551711
-0.0661453
0.0425105
-0.068246
0.0250422
0.0415812
0.0712062
-0.135613
-0.0641358
0.0229205
-0.0997618
-0.061494
-0.0583096
-0.0778741
-0.0233471
7.94959e-05
0.0238109
-0.00456698
-0.036338
-0.000676316
0.00473797
-0.000779894
-0.00288201
-0.0198715
-0.0193395
-0.00409533
0.00971082
-0.00163182
0.00447342
-0.00633543
-0.00243853
-0.000762127
0.0114985
-0.00833668
0.0107073
0.00239723
-0.0164919
0.0594243
0.0213006
0.0182252
0.0325287
0.0876806
0.0443354
-0.18962
0.0696885
-0.0887187
-0.120555
-0.108251
0.0111518
-0.105513
0.000763411
-0.0308695
0.0326181
-0.0304474
-0.00538832
0.00884038
0.0277224
0.0113257
0.00982739
-0.00444054
-0.0154781
0.0311722
0.0402649
-0.0210679
-0.00402391
0.0355795
-0.0142721
-0.0122529
0.00747285
-0.0230222
0.0463935
0.0620392
0.0293618
0.0598469
0.0695452
-0.0397828
0.0253691
0.0285338
-0.0232992
0.0359576
0.0130983
-0.0185115
0.00818523
0.00628464
0.0252123
0.00410731
-0.0157487
-0.0167488
0.00902247
0.00470875
-0.0115887
0.0112325
9.16677e-05
-0.0334324
0.00265538
0.113822
-0.0481793
0.0309718
0.0324099
-0.0432928
0.114396
0.0218365
-0.0630767
0.129721
0.0471059
0.104966
0.146801
0.0434976
-0.00562792
0.096236
-0.017994
-0.00163212
-0.0018795
0.00374135
-0.0175402
-0.0130379
0.00124855
0.00725831
-0.00650487
-0.045258
0.0458977
-0.0474318
-0.0622201
-0.00575369
0.0133717
0.0244322
-0.0861539
0
0.0386555
0.0076528
-0.000339812
0.0200224
-0.00163216
-0.0122639
-0.0191221
0.021449
-0.00236329
-0.026409
-0.0127012
-0.00795882
0.00876459
0
0
0
0
0
0
0
0
0
0
0
0
0
0
0
0
0
0
0
0
0
0
0
0
0
0
0
0
0
0
0
0
0
-6.76423e-06
0
2.4271e-05
0
4.18593e-06
-2.7088e-06
-4.86804e-06
1.86543e-05
6.25675e-05
-3.05422e-05
0
0
-9.61918e-07
0
0
0
0
0
0
0
0
0
0
0
0
0
0
0
0
0
-0.0287278
-0.0361694
-0.0134002
-0.00138497
-0.0350494
0.0390472
-0.0449397
-0.0155669
0.01701
-0.0579202
-0.0294684
-0.023441
-0.0394053
-0.0238219
-0.0173204
-0.0246576
-0.0129873
-0.0104872
-0.0231405
-0.0125479
-0.0111367
-0.0215845
-0.0256925
0.0138368
-0.00210806
-0.0272754
-0.00850283
0.0236331
-0.0304683
0.0320923
0.0304868
0.0215613
0.00152014
0
2.15786e-05
0
0
0
0
0
0
0
0
0
0
0
0
0
0
0
0
0
0
0
0
0
0
0
0
0
0
0
0
0
0
0
0
0
0
0
0
0
0
0
0
0
0
0
0
0
0
0
0
0.0809078
-0.00330782
-0.0532114
0.0681734
0.128132
-0.0276482
0.0627605
0.090257
0.0219949
0.0385289
0.0778489
0.000527338
0.029011
0.0452251
-0.0195975
-0.0102845
0.0395802
0.0344058
-0.0440037
0.0240612
-0.0506096
2.87705e-05
0
0
-2.03575e-05
-3.00137e-06
0
0
3.40518e-05
0
0
0
0
0
0
0
0
0
0
0
0
0
0
0.018078
-0.0041208
-0.0187386
0.0229703
0.00845948
0.00989021
-0.016693
0.0162742
0.000459246
-0.0376237
0.0321418
-0.0304002
0.0188817
0.0291319
-0.00770584
0.00465468
-0.0177615
0
-0.0563662
-0.0153415
-0.00708656
-0.0290373
-0.0121356
0
-0.0318068
0
0.0683425
-0.0946948
-0.0130037
-0.00993869
0
0
0
0
0
0
0
0
0
0
0
0
0
0
0
0
0
0
-0.0868114
0.15641
0.0387712
-0.117351
0.045507
-0.0786356
-0.144912
-0.0591127
0.030885
-0.0991465
0.10135
-0.100603
0.0308829
-0.0933291
-0.0103763
0.0548687
-0.149202
-0.0951421
0.0517738
0.0122993
-0.00405172
-0.014432
-0.0851038
-0.0386358
-0.0267717
0.00350521
-0.0549669
0.102974
0.00825356
-0.0197886
-0.0329935
-0.0345799
-0.00151217
0.00462926
0.0191376
-0.00108874
0.0121425
0.00719153
0.0130224
0.0193748
-0.0212502
-0.0118353
-0.0285585
0.0454783
-0.00169917
0.0114292
0.026214
0.0489861
0.100157
-0.0157785
0.0156671
-0.0850923
-0.172989
0.0059346
-0.119854
-0.0175973
-0.128183
0
0
-0.0104482
0.0579665
-0.0101639
0.0214029
-0.00905671
0.0109248
0.00751034
0.0112654
0.0190007
0.0215691
-0.0310474
0.00178407
0.0189255
0.00536157
0.0421251
0.042192
-0.043097
0.0351472
0.0808619
0.0183543
-0.030549
-0.0120353
-0.0074841
-0.0113405
0.0649827
0.0372419
0.0330316
0.0874278
0.043432
0.054117
0.0645642
0.0092027
0.08044
0.0365443
-0.0254158
0.048592
0.0725077
-0.0151062
0.0679667
0.0494545
0.00485127
-0.005555
0.0242275
-0.0137762
-0.00485679
0.0394338
-0.02454
-0.0215149
0.0248487
-0.0193342
0.0724493
0.0283086
-0.0756541
0.0732554
-0.045102
-0.0817604
0.10676
-0.021346
-0.0839404
0.123861
-0.0148308
0.0915615
0.114618
0.00037002
0.00644279
-0.080382
0.0739327
-0.069295
0.100748
-0.0308997
0.039974
0.112815
0.0170025
0.113798
0.0346481
-0.0988688
0.0900202
-0.0869128
0.0019918
0.0181452
-0.100345
0.0747555
-0.0880771
-0.00483827
-0.0100639
-0.0953174
0.0558121
-0.0852999
-0.0165873
-0.0215891
0.0835897
-0.00584946
-0.0765484
-0.0531589
-0.0262249
-0.0619495
-0.0402768
-0.0547283
-0.0783701
-0.0448297
-0.030634
-0.0602649
-0.0293738
0.0834106
-0.0593812
-0.00417674
-0.0137897
-0.0695657
0.0733979
-0.0661871
-0.00787811
0.0162303
-0.0149117
-0.00430795
0.0448923
0.0129219
-0.00623261
-0.0232036
-0.00365199
-0.00362144
0.0149201
0.0124944
-0.0247504
0.000949183
0
-0.0104926
0
-0.0126052
-0.000385214
-0.00407248
-0.0443668
0
0
-0.0290179
0
0.0722125
-0.0253147
-0.0115512
-0.0236626
-0.0138954
0.000717012
0
0.00308091
0
0
0
0
0
0
0
0
0
0
0
0
0
0
0
0
0
0
3.50433e-05
9.4225e-05
0
0
0
0
0
0
0
0
0
0
0
0
0
-2.67697e-05
-0.000120912
0
0
0
0
0
0
0
0
0
0
0
0
1.7835e-06
0
0
0
0
0
-2.58464e-05
2.14581e-05
0
-4.05471e-05
-4.75341e-05
1.43957e-05
0
0
0
-1.77881e-05
0
0
0
0.000123139
0
-2.53453e-05
-9.54699e-05
8.32208e-05
-0.000348934
0
0
0.0005261
-6.45052e-05
0
0
0
-0.000265074
0
0
0
0
0
0
0
0
0
0
0
0
0
0
0
0
0
0
-0.000141375
0
6.92856e-05
0
-7.22903e-05
0
-0.00167645
-0.0495394
0.0309766
0.0142372
-0.0473818
-0.0597231
-0.0431089
-0.014317
-0.0172728
-0.0274475
-0.022931
0.0356862
-0.00503631
-0.0133792
0.00866716
-0.0232422
-0.0212322
-0.013898
-0.0310774
-0.0281067
0.00715137
0.0235799
0.0144843
-0.0307023
-0.0113137
-0.0158769
-0.0261066
0.0178068
-0.00117121
-0.0368126
0.0287814
0.00466517
-0.0129971
0
0
0
-3.02996e-05
3.48218e-05
5.70706e-05
0
0
0
0
0
0
3.98274e-05
0
-1.68364e-05
0
0
0
0
0
0
0
0
0
0
0
0
0
0
0
0
0
0
5.72605e-05
5.95822e-05
3.08813e-05
0
-5.42372e-05
0
0
0
0
-0.0443481
0
-0.0651174
0.0458066
-0.0151146
0.0153412
0.0898638
0.076857
0.0432759
0.0648284
0.12224
0.0530359
0.028083
0.0945363
-0.0439622
0.00986775
0.0801145
-0.0642709
-0.0301537
0.0615515
0.069765
-0.0501016
0.0687704
0.0380257
3.58811e-05
0
0
1.59492e-05
0
1.89593e-05
0
-7.70342e-07
0
1.85023e-07
0
1.1459e-06
-9.95687e-07
0
0
0
0
0
0
0
0
0
-9.50667e-06
0
0
0
0
0
0
0
0
0
0
0
0
0.00107009
0.0335302
-0.0158465
0.010797
-0.0136786
0.00277211
0.0213357
0.0252681
-0.0101553
-0.0161461
-0.0189744
-0.0042175
0.00875181
-0.00883002
0
0
-7.21791e-05
4.46641e-05
0
0
0
0
0
0
0
0
0
0.0139961
0
-0.0175561
0.0238466
0.0310863
-0.00749297
0
0
0
0
0
0
0
0
0
0
0
0
0
0
0
-1.29116e-05
0
-1.31141e-05
-0.090305
-0.095051
-0.00422103
-0.0860202
-0.131198
-0.0259476
-0.0886488
-0.126817
-0.0529521
-0.0841766
-0.075224
-0.0225535
-0.0631371
-0.0876855
-0.00517388
-0.0602302
-0.0725933
-0.0226908
-0.0820286
-0.0798435
0.00414647
-0.0675845
-0.0814429
0.00384631
-0.0156165
-0.0708488
0.0407122
0.0303036
-0.0632161
0.0799972
0.0551331
-0.0494031
-0.0850836
0.0643584
-0.0275341
-0.0864274
0.00606752
-0.0580704
-0.0244051
0.0712612
-0.0488045
-0.0131217
0.0580795
0.0631001
-0.129503
-0.0542185
-0.0615781
-0.14906
-0.102793
0.042884
-0.0888247
-0.0280845
-0.0551797
-0.159597
-0.077445
-0.0694995
0.0140286
-0.0881062
0.0315053
-0.00284526
0
0
-0.000105629
-0.0112806
0.0355025
-0.0546644
0.010597
0.0183214
-0.00132541
0.00849882
0.0249316
0.0096942
0.00217462
-0.0438708
-0.00781355
-0.0424106
0
-0.0531186
0
0
-0.404522
0
0
0
0
0
0
0
0
0
-0.0192075
0
-0.00214871
0.00778442
-0.0157366
0.0241626
0.0229828
-0.0430526
-0.00917888
-0.0135364
-0.0174683
0.0397761
0.0238349
-0.0526415
-0.0159441
0.0412094
0.00869672
0.0107711
0.00573179
-0.0394557
0.0635755
0.0788432
0.0382238
0.0463887
0.0253327
-0.0573717
0.0293643
0.0626723
0.0361449
0.014463
-0.0424664
0.0176882
0.023589
0.0204757
-0.0172871
-0.0187084
-0.0324158
0.00504376
0.0130622
-0.0166793
-0.00196705
0.0195279
0.0142456
-0.0114023
0.0131989
0.0451659
-0.026739
0.0225346
0.0910574
0.0408808
0.0665982
0.00721336
-0.0943763
0.0514003
-0.0332023
0.10447
0.0850426
-0.0391073
-0.0879569
0.123801
0.00197175
-0.0789898
0.090108
0.0526013
0.133781
0.133571
0.0485806
0.112788
0.112077
0.0274017
-0.108099
0.0830446
0.00540205
-0.103198
0.0608883
-0.0228903
-0.0906231
0.0426765
-0.0267492
-0.0719098
-0.0102612
-0.0204731
-0.0300173
-0.0531923
-0.0389955
0.00496379
-0.0712082
-0.0462667
-0.0221617
-0.0853131
-0.0556054
0.0331467
-0.0928367
-0.0541837
-0.0551594
0.0408348
-0.0858033
0.0304092
-0.0457218
-0.0561386
-0.043367
0.0696441
0.0340883
-0.0434201
0.0448003
-0.0346513
-0.00805001
-0.00777649
0
0.0328641
0.0215649
0.0615707
-0.0828928
-0.0557231
-0.0393919
-0.00689796
0.00269249
0.0354581
0.00505597
0
-0.0648065
-0.0628313
0
0
0
0
0.00181439
-0.00269966
0
0
0
-0.0294917
0
0
-0.000287514
0.000201024
0.000410606
0
-1.78104e-05
0
0
0
0
0
0
0
0
0
0
5.20347e-05
5.75766e-05
3.60958e-05
0
0
0
-2.75861e-05
0
0.00011184
0
-4.49719e-05
0
0
0
0
0
0
0
0
1.92826e-06
-5.58231e-05
0
0
0
0
-0.000148411
0
0
0
0
0
0
0
0
-5.86625e-07
-1.75292e-06
0
0
0
0
0
0
0
0
0
0
0
0
0
0
0
4.18537e-06
0
0
0.000252856
0
0
0
0
0
0
0
0
-0.000129682
0
7.36742e-05
-5.53733e-05
0
5.42891e-06
0
-4.98571e-05
0
0
0
0
0
0
0
0
1.16732e-06
0
0
0
0
-0.00199517
-0.0546574
0.0359242
0.0169424
-0.0425347
-0.0642417
-0.0250534
-0.0125384
-0.00355777
-0.0245529
0.00327509
-0.0154656
-0.0250606
-0.0239116
-0.0136967
-0.0114752
-0.000393782
0.00603618
-0.00996025
-0.0242543
-0.0182566
0.0218426
0.0181437
-0.00742545
-0.025633
0.0109374
0.0202562
-0.0038754
-0.00515788
-0.0274301
0.0300385
0.0103355
-0.0168085
-2.96535e-05
0
-1.4189e-05
6.90095e-05
-5.59566e-06
-4.0103e-07
0
0
0
0
0
0
0
0
0
0
0
0
0
0
0
0
0
0
0
0
0
0
0
0
-8.27273e-05
0
0
0
0
0
0
0
0
0
0
0
-0.0637686
0
-0.0746126
0.0266759
-0.0201983
-0.000486153
0.0589278
0.0483603
0.0406079
0.0460987
0.0923867
-0.0629609
0.0155597
0.0905717
0.0492808
-0.00851288
0.081326
0.0679683
-0.0257198
-0.0275789
0.0560454
-0.0409158
0.0561419
-0.0590719
0
0
0
0
0
0
0
0
0
0
1.23999e-06
0
0
0
0
0
0
2.77432e-05
3.42095e-06
-0.00137176
0
0
0
-6.49523e-05
0
0
0
0
0
0
0.0111166
0
0.000750718
0
0
0
0
0
0
0
0
0
0
-0.0014694
0
-0.0425153
0.0110009
0.0066561
-0.0483171
-0.0236564
0.00678212
0
-0.0208778
0
-2.75476e-05
0
0
0.00677023
0.00613955
-0.0626273
-0.021621
0
0
0
0
0
0
-1.24265e-05
-1.78103e-05
4.74763e-06
0
-6.71465e-06
0
-0.00333771
0
0
0
0
0
0
1.7682e-07
0
-7.34936e-06
0
0
0
0
0
0
0
0
0
0
0
0
0
0
-0.0203207
-0.0407155
-0.00296491
-0.02805
0.03438
-0.00228702
0.0111244
0.0157571
0.0300877
0.0293028
-0.025679
0.0418473
-0.0363599
-0.0161175
0.0301913
0.0597322
0.0587308
0.0367036
-0.0170318
-0.0436844
-0.0349673
0.0358283
-0.00333703
-0.0492078
0.042128
-0.00212101
0.0222852
0.0148454
-0.0403
0.0458175
-0.0256752
0.0200545
-0.0461246
0.0015144
0.0522745
0.0348839
0.0713065
0.0192265
-0.034586
0.0716328
0.0311429
0.0342889
0.0695959
0.0299697
-0.0401887
-0.0928468
-0.0732447
-0.00137211
-0.0706729
-0.104212
-0.0195654
-0.0819505
-0.112229
0.0529025
-0.0759883
-0.0729325
0.000614434
-0.0530045
-0.0797395
-0.00730163
-0.0561643
-0.0602153
0.00102171
-0.0842091
-0.0866297
0.018269
-0.0276123
-0.0678536
-0.0340624
0.0125534
-0.0671076
-0.0653074
0.0414667
-0.0576326
-0.0768572
0.0512458
-0.038315
-0.0718721
0.0518564
-0.0263767
-0.0600252
0.00795545
0.0527678
-0.0331831
-0.00825192
0.0450127
-0.0432762
-0.0505076
-0.142307
-0.0322726
-0.131677
-0.0459472
-0.144763
0.100681
-0.139028
-0.0804504
-0.0190219
-0.0125771
-0.0260627
0.0471321
0
-0.0596052
-0.0427827
-0.0548986
-0.0705482
0.000482131
0.0633594
-0.0534848
0.0116708
-0.0587795
-0.0317561
0.00548766
0.0502363
-0.0276065
0.00952018
0.0392901
-0.0320441
0.00935186
0.0413553
-0.0176483
0.000237878
0.0390424
0.00969715
0.0257196
0.0335678
0.0561456
0.0290307
0.0557385
0.0353812
0
2.08182e-05
3.17546e-05
0
0.0166708
0.0720357
-0.118884
0.0199329
-0.00675213
-0.105001
-0.0175105
0.0623045
1.50651e-05
-0.054186
-1.08361e-05
3.65726e-05
-2.98116e-05
-1.99214e-05
0
-5.18803e-05
0
0
0
0
0
0
0
0
0
0
0
-0.0117502
-0.00152495
-0.0201058
-0.0225584
0.00574123
-0.0241535
0.00753133
-0.0178844
0.0306195
0.00579058
-0.00304745
0.00172627
0.0187509
0.00297332
0.032162
0.0288274
0.0516599
-0.0439464
0.0129383
0.0318843
-0.0341928
0.0126521
-0.0452511
-0.0166509
0.0442177
-0.0563549
0.0280085
0.140327
-0.0185001
0.0194419
0.000102166
0.0216661
0.0550858
0.0252027
0.0144604
0.00809583
0.0133002
0.00217761
0.0429557
0.0608058
0.0104565
0.106264
0.0574
-0.0326348
0.0673455
0.159826
-0.0906456
0.0544852
0.142051
0.0734278
0.0992168
0.0338963
0.128892
0.0715269
-0.0116125
-0.125492
0.117719
-0.0201303
-0.07499
0.0974929
0.0522859
0.158401
0.133394
0.0306565
0.121976
0.127382
0.0323322
-0.111472
0.10617
0.00662873
-0.107135
0.0725631
-0.00589304
-0.0939448
0.0511262
-0.0202803
0.0787095
0.00882038
-0.0232488
-0.0464828
-0.0502499
-0.0314324
-0.0124018
-0.0775901
-0.0481871
-0.0406867
-0.0937186
-0.0392906
0.0604959
-0.10144
-0.0370136
-0.0659466
-0.0948753
-0.0336919
-0.0632856
-0.0621711
-0.025807
0
0.00432819
0.00201152
0
-0.00910271
0
0
-0.035379
0
0
-0.0762173
0
-0.0370747
-0.00760925
-0.0349731
0
0
0
0
4.95519e-06
0
0.000144021
0
0.00182669
0
0
-7.09665e-05
0
-0.000234742
0
-0.000262405
0
-3.17867e-05
0
0
0
0
0
0
0
0
0.000119332
-1.13678e-05
0
0.000107153
0
8.78641e-05
2.63371e-06
4.82565e-05
1.97888e-06
0
0
0
0
0
0
0
0
0
0
0
0
0.000182281
0
2.01883e-05
0
0
0
0
0
0
0
0
0
0
0.00328244
0.00208511
0
-3.68611e-06
-9.44969e-07
0
0
0
0
0
0
0
0
0
0
0
0
0
0
0
0
-1.71705e-05
-5.3158e-05
0
0
0
0
-0.000146921
-2.61479e-05
0
0
0
0
0
0
0
0
0
0
0
0
0
0
0
0
0
0
0
0
0
0
0
0
0
0
0
-1.28645e-06
0
-2.37908e-05
0
0
0
-2.03343e-05
0
1.16612e-05
0.0201413
0.0247968
-0.0585299
-0.0162708
0.0453809
-0.0328257
0.0652367
0.0284509
-0.00260952
-0.0302525
-0.0247648
0.0274541
-0.0190321
0.0502459
-0.0240615
0.00115383
-0.00581604
-0.00962028
-0.00344506
0.0247107
-0.0138781
-0.0118904
-0.000821598
-0.000415927
-0.000460307
0.021184
-0.00332479
-0.0204532
-0.0296961
0.0164628
0.0233921
-0.0157033
0.00690047
0.0060479
-0.00608644
-0.022989
0.0137373
5.49318e-06
0
0
0
0
0
0
0
0
0
0
0
0
0
0
0
0
2.40985e-05
0
-8.91171e-08
0
0
0
0
0
0
0
0
0
0
0
0
0
0
0
0
0
0
0
0
0
-0.0275584
0.00487333
0.0374728
-0.000313875
-5.31658e-05
-0.00390061
-0.00708334
-0.0144689
0.0329843
0.0371357
0.0233694
0.0314515
0.00598071
0.0373626
0.0672769
0.0270884
0.00541607
0.0518383
-0.0188688
0.00278906
0.0491939
0.0313084
-0.031606
0.0356631
0
0
1.08385e-05
1.55852e-07
0
0
0
0
0
0
0
0
0
0
2.42419e-05
0
0
0
0
0
0
0
0
0
0
0
0
0
2.10342e-05
2.46276e-05
0
0
0
0
0
0
0
0
0
0
0
0
0
0
0
0
0
0
0
0
0
0.000218862
0
-0.000291507
0.0182225
-0.017893
0.004618
0.00300643
-0.0254758
-0.0223953
-0.00642675
0.00373694
-0.0021425
0.00989102
0
-0.0127762
0
0
0
0
-0.0402098
-0.0147356
-0.00442483
0
0
0
0
0
0
0
0
0
0
0
0
0
0
0
0
0
0
0
0
0
0
0
0
0
0
0
0
0
0
0
0
0
0
0
0
0.0181238
0.0350287
0.0158465
0.000807583
0.0293055
0.0287348
-0.0171591
0.00809435
-0.0359216
-0.0729931
-6.52568e-06
-0.0493372
0.0522069
0.0356095
0.0268152
0.0294654
0.0339733
-0.00576461
0.0176965
0.0438818
-0.0161997
0.0243144
0.0389978
-0.0276796
0.0506583
0.0174385
0.0133676
0.0652059
0.0327055
-0.0218794
0.0576481
0.0324789
0.0203614
-0.0856435
-0.0534948
0.0234989
-0.0930869
-0.090851
0.0135493
-0.0928
-0.115759
-0.0319115
-0.054086
-0.0745016
-0.0168238
-0.06449
-0.109607
0.0156926
-0.057264
-0.0590782
-0.0052533
-0.0219273
-0.0926885
-0.0356573
0.041537
-0.0763034
-0.0530772
-0.0226194
-0.00353701
-0.0768158
-0.0589561
0.0218845
-0.0624811
-0.0736692
0.0254003
-0.058911
-0.0558652
0.0313554
-0.0406547
0.0405334
0.0379778
-0.0108151
0.0369845
0.0180049
0.0442648
0.023047
-0.00198747
0.0339223
-0.0048666
-0.0854223
-0.00777345
-0.011736
-0.0804622
-0.119921
0.0229731
-0.0719988
-0.13697
0.0850827
-0.111147
-0.0906532
-0.00485467
0.0124413
-0.0340625
-0.114518
0
-0.0925428
0.0914933
-0.057078
-0.078979
0.0124515
-0.0829696
-0.0538714
0.026151
-0.0799259
-0.0580677
0.0658707
0.0205226
-0.0384247
0.000604796
0.054819
-0.0274457
0.0131015
-0.0441835
-0.0277867
0.0169659
0.0388348
-0.0123688
0.0180701
-0.0449732
0.00781093
0.0313444
0.0365311
0.00917504
0.0407435
-0.0254393
-0.0578834
0.0236437
-0.06018
0.07206
0.0171371
0.0442122
0.0442544
0.0321333
-4.76474e-05
3.57976e-05
0.000145339
-0.000132296
-0.0561221
6.47567e-05
0
-0.0743769
0
0
0
0
-0.000163927
0
0
0
0
0
-9.7401e-05
0
3.73316e-05
0
-1.68581e-05
-2.17419e-05
0
0
0
0
4.24152e-05
3.53388e-05
0
-0.0128147
0
0.0181551
0
-0.0258317
0.00130555
0.00393477
0.00121827
0.0426143
0.0293262
0.0145663
0.0120986
0.0561127
-0.0469359
-0.049739
-0.0199913
-0.0284299
0.00374174
0.0126798
0.078915
0.0570196
0.0897644
-0.0584921
0.0471683
0.0830616
0.0283234
0.0661707
0.0476039
0.0119053
0.0710326
0.0510384
-0.0365823
0.0396575
0.0315464
-0.0173795
0.058202
0.0654976
-0.00975606
0.0533351
0.0493781
-0.0132585
0.105499
0.0349872
-0.0393566
0.0514034
0.14249
-0.102132
0.0316968
0.135364
-0.0812906
0.113511
0.0332092
-0.104119
0.071646
0.0144392
-0.102971
0.0985777
-0.033356
0.148989
0.0570479
-0.117693
0.145366
0.0225388
-0.110821
0.116638
0.0160992
-0.105044
0.0943404
0.00293473
0.09429
0.0585704
-0.000388374
-0.0766426
0.0224959
-0.0146999
0.0510278
-0.0522307
-0.0327219
0.00147227
-0.0897752
-0.0524028
0.0484323
-0.0993442
-0.0421979
0.0872776
-0.096276
-0.00283552
-0.101496
-0.0925036
0.0125583
-0.0940047
-0.0853949
0.0101745
0
0
0
0
0
0
0
0
0
0
0
0
0
0
0
0
0
0
0
0
0
0
-0.000275047
0
0
0
0
0
0
6.53453e-07
0
0
0
0
0
0
0
-0.0007347
0
0.000779714
0
-2.94444e-05
-7.30595e-05
-7.78119e-05
-6.71964e-05
0
-3.33387e-05
0
0
0
0
0
0
0
0
0
0
0
0
0
0
0
0
0
0.00305677
-0.00257978
-1.08455e-05
0
0
0
0
0
-4.62621e-06
0
0
0.00418158
0
-0.002
0
-0.00319049
0
0
3.28122e-05
-5.78645e-05
6.86902e-06
0
-3.33746e-05
0
0
0
0
0
0
0
0
0
-2.31643e-05
0.000174373
-0.000365058
0
0.000120784
0
-0.000235394
9.01877e-05
0.000134686
0
-0.000168525
0
0
0
0
1.25492e-05
0
-7.27973e-05
0
-2.52731e-05
-3.17063e-05
0
0
0
-3.72531e-05
-1.1369e-05
0
0
5.26525e-05
0
-4.74895e-06
0
0
0
0
0
-3.0578e-05
0
0
0
0
0
-7.88523e-06
0
9.24771e-06
0
0
0
-3.12297e-05
0
0
0
0
0
0
0
0
0.04387
0.0133431
0.0698424
0.0280357
0.0250103
0.0321661
0.0108143
0.0152328
0.0533131
0.0205121
0.0253729
-0.0334725
0.0329243
-0.0208734
0.015766
-0.0162753
0.00931675
0.0356333
0.00649492
-0.0135089
-0.022654
-0.0109022
-0.0138729
-0.00787642
0.00251616
0.00152744
-0.00524722
0.00283022
0.00285977
0.00683248
-0.00391494
0.0263047
1.59629e-05
-0.0339967
0.021264
0.00538225
0.0243951
0.00882082
0.00290393
0.00983559
0
0
0
0
0
0
0
2.49783e-05
0
0
0
8.21985e-06
-0.0580577
-0.0459131
2.25005e-05
0
0
0
0
0
0
0
-1.42573e-05
0
0
0
0
-8.14434e-07
0
1.59552e-06
0
7.79269e-07
0
0
0
0
0
0
-0.0115114
-0.00566615
-0.0124821
0.00611848
-0.0332215
-0.024896
0.0112838
-0.0309064
-0.00919889
0.00304369
0.00780683
-0.0236641
0.00811282
0.00868443
-0.0150911
0.00566
0.0310449
-0.00101453
-0.016142
0.0107786
0.00989655
0.0110264
-0.00675164
0.0127323
3.41221e-07
0
0
1.20148e-06
6.36243e-05
-9.14203e-06
8.25039e-05
0
-1.89347e-05
0
3.21618e-07
0
-5.5267e-06
0
5.8597e-06
0
0
0
0
0
0
0
9.04163e-05
0
0.000115322
0.00051137
-2.48332e-05
0
-7.0779e-05
0
0
-9.99914e-06
0
-3.74602e-05
0
0
0
0
0
0
0
0
0
0
-2.79415e-05
0.000114893
0
0
0
0
0
0
0
0
0
0
0
0
0
0
0
0
0
0
0
0
0.0267042
0.0301824
0.0271094
0.007806
-0.0235324
-0.00217427
0
-0.0182671
-0.0272647
0
0
0
0
0
0
0
-3.53924e-05
-2.04544e-05
2.25865e-05
0
0
0
0
-2.23333e-05
0
0
0
0
0
0
0
0
0
0
0
0
0
0
0
0
0
1.73198e-05
1.00662e-05
-6.71565e-05
0
7.33561e-05
0
0
0
0
0
0
0
0
0
-1.48825e-05
0
3.07199e-05
-0.00521115
0.0339869
-0.0225867
-0.0388781
0.0213439
-0.0205207
-0.015282
0.0242364
0.0380621
0.0100225
0.0330199
0.0214826
0.0163854
-0.0173699
0.0313371
-0.030109
-0.000458581
-0.0140311
-0.0551258
0.00106383
0.047321
0.0344501
-0.0188745
0.0324623
0.0281312
-0.00880331
0.0208232
0.0264643
0.00780641
0.000506313
0.0416092
0.0398349
0.0452225
0.0274632
0.00991398
0.0392477
0.0297617
0.00140085
0.0352983
0.035015
0.00905448
-0.0731935
-0.019193
0.0371394
-0.0904917
-0.0725482
0.0215653
-0.0705701
-0.0824274
-0.00168657
-0.0437096
-0.0702295
-0.0108552
-0.0208016
-0.052878
0.0113298
-0.0443907
-0.0192379
0.0104327
-0.0685626
-0.0194919
-0.0509811
-0.0352668
-0.0310399
0.0175453
-0.000901567
-0.0638242
0.0652169
0.00459305
-0.0603801
0.0639189
0.000677341
-0.0506769
-0.043027
0.00542441
-0.0465253
-0.0135916
0.0209362
-0.0102682
-0.00125562
0.0198417
0.0486775
-0.0119245
0.0441001
0.0478561
0.0272705
-0.11563
-0.0520028
0.0410762
-0.101764
-0.0965069
0.00496151
-0.018551
-0.105232
-0.0304404
-0.0770531
-0.091945
0.0141529
0.0126073
-0.0823822
0.0282106
0.000716109
-0.0926622
-0.0226225
-0.0666019
-0.0674671
0.0407103
0.106175
-0.0581184
0.0375983
-0.0991244
-0.0872542
0.0373112
-0.0506932
-0.0534544
0.0492088
0.088283
-0.032135
0.0107345
-0.0603721
-0.0172223
0.0268157
0.0524808
-0.0139883
0.0414884
0.0404312
-0.0071985
0.0332438
0.0372347
0.0102329
0.0287661
-0.032855
0.0186168
0.0460273
-0.0214978
0.0387159
-0.0457098
-0.0753229
0.0220658
0.0364927
0.040017
-8.8156e-05
0
0
0
0
0
0
0
0
0
0
0
0
0
0
0
0
0
2.17528e-05
0
0
0
0
0
-1.26165e-05
0
-5.24423e-05
0
-2.90739e-05
0
0
0
0
0.0159437
0
-0.261398
0.0327832
-0.00421054
-0.0513446
0.122077
-1.47384e-05
-0.0665893
-0.0672729
0.0372119
-0.0204123
0.0177445
0.0499716
-0.0804457
-0.0370946
0.0349639
-0.0459987
-0.0323176
-0.0561308
-0.0860007
0.0456407
0.0715026
0.0358048
0.0515491
0.0362207
-0.0294892
0.0748225
0.0368267
0.0407895
0.0120695
-0.00390969
0.0508386
0.0293078
0.0788328
0.0323036
0.0495803
0.0759053
-0.0267056
0.107914
0.0213041
-0.066444
0.0422006
0.140338
-0.0982668
0.0414969
0.161677
-0.0871061
0.117813
0.0538463
0.0972396
0.172311
0.0188717
-0.110673
0.138192
0.0632223
-0.102567
0.129158
0.0288863
-0.104956
0.107854
0.0185875
-0.0979516
0.0804565
0.0127112
-0.0775763
0.0310715
0.00230005
-0.0486847
-0.0360713
-0.0206538
-0.00318538
-0.099359
-0.03952
0.0466389
-0.121155
-0.0536759
0.104074
-0.0972102
-0.0109895
0.132929
-0.0717527
0.0435813
-0.142154
-0.104092
0.0794184
0
0.00577541
0.00396221
0
0
-9.89266e-07
9.70836e-07
0
0
0
0
0
0
0
0
0
-1.51575e-05
0
-4.22559e-05
1.67923e-05
1.40372e-06
-4.41749e-06
7.72393e-06
-5.0009e-05
1.19005e-05
0
-3.95109e-05
-4.90068e-05
0
-0.016297
-0.000430598
0
0
0
8.78313e-05
0
-5.03138e-05
-0.000575186
0.000234763
0.000425404
0
-0.000296021
0
0
0
0
0
0
0
0
0
0
0
-5.72452e-07
1.55138e-07
0
0
0
0
0
0
-0.0118569
0
0.0400859
0
0.0234589
0
0
0
0
0
0
0
0
-2.50281e-05
0
0
0
0
0
0
0
0
0
0
0
-3.88475e-05
0
0
0
0
0
0
0
0
0
0
0
-0.000330279
0.000129109
9.04488e-05
0
-0.00023925
0
0
0
0
0
0
0
0
0
0
-9.24994e-05
0
0
0
0