/*--------------------------------*- C++ -*----------------------------------*\
  =========                 |
  \\      /  F ield         | OpenFOAM: The Open Source CFD Toolbox
   \\    /   O peration     | Website:  https://openfoam.org
    \\  /    A nd           | Version:  8
     \\/     M anipulation  |
\*---------------------------------------------------------------------------*/
FoamFile
{
    version     2.0;
    format      ascii;
    class       volScalarField;
    location    "10680";
    object      alpha;
}
// * * * * * * * * * * * * * * * * * * * * * * * * * * * * * * * * * * * * * //

dimensions      [0 0 -1 0 0 0 0];

internalField   nonuniform List<scalar> 
526318
(
0.000171014
0.000421453
0.000441636
0.000205107
0.000439473
0.000372667
0.00110527
0.00102279
0.000359758
0.00034255
0.000272345
0.000598131
0.000746241
0.000397858
0.000472488
6.28789e-05
0.000314105
0.000257357
0.00017268
0.000231741
0.000293043
0.000351345
0.00118486
0.000604936
0.000629623
0.00120685
0.000377975
0.000833535
0.000492844
0.000444182
0.000507397
0.000420308
0.000386281
0.000314819
0.000354309
0.000611334
8.48224e-05
0.000316569
0.000105227
0.000462891
0.000461635
0.000476554
0.000874812
0.000699667
0.00622477
0.00263873
0.00226149
0.00113068
0.000666698
0.00117229
0.000241011
0.000342822
0.00068096
0.000749199
0
0.00477728
0.00928863
0
0.000106994
0.000229512
0.000524627
0.000443397
0.000744665
0.000330974
0.00020651
0.000649663
0.000405397
0.000755617
0.000694917
0.000311406
0.000569456
0.000804613
0.000790451
0.00156242
0.000975207
0.000366943
0.00160588
0.00147935
0.00136775
0.00190959
0.0013417
0.00159236
0.00176993
0.0018518
0.00182029
0.000345401
0.000854615
0.000474461
0.000481712
0.000272017
8.80909e-05
0.000638936
0.000721938
0.000496359
0.000406176
0.0015428
0.000284903
0.000911272
0.00149594
0.00157948
0
0
0
0
0
0
0.00287129
0.015632
0.00175894
0.00135739
0.00260263
0.000731681
0.000526874
0.00069695
0.0003105
0.000572195
0.000601465
0.00016266
0.000348986
0.00101074
0.000399433
0.000955437
0.00105712
0.000989345
0.000665345
0.000971723
0.000654546
0.00332682
0.00130081
0.00212775
0.000550625
0.00389458
0.00262329
0.00371255
0.00117678
0.00874956
0.00177035
0.00496916
0.00280992
0.00805277
0.0117322
0.00706781
0.00573568
0.0111417
0.0043286
0.00928901
0.00895463
0.00621651
0.00513719
0.017325
0.014593
0.0445701
0.00789398
0.0157665
0.00800158
0.0566769
0.00963362
0.00553323
0.0411815
0
0.00777303
0.0916381
0.00154637
0.00099217
0.000388102
0.000309115
0.000198779
0.000487099
0.000628959
0.00165457
0.000564473
0.000445279
0.00192494
0.00200127
0.00194717
0.00288907
0.00151394
0.00134953
0.00107677
0.000560412
0.000314619
0.000537125
0.000618441
0.00082456
0.0016714
0.000267468
0.00113986
0.00305278
0.00449672
0.00110677
0.00529312
0.00133497
0.00667812
0.00511052
0.00614185
0.00394951
0.00763814
0.00844913
0.00937126
0.0152804
0.00425006
0.00710679
0.00610986
0.00809161
0.00821819
0.00181985
0.00822776
0.00590907
0.00969701
0.00308361
0.0004414
0.000683478
0.000249175
0.00034575
0.000119455
0.000471919
0.00017806
0.000856855
0.00028542
0.00706906
0.00388721
0.00581761
0.00323429
0.00123754
0.00237048
0.000292845
0.000993012
0.00183421
0.00188811
0
0
0
0.0123843
0
0
0
0
0
0
0.000555819
0.000345702
0.000534389
0.000237877
0.000637094
0.000583802
0.000692646
0.000394487
0.00114489
0.00148701
0.00115699
0.00111254
0.00060599
0.00102784
4.30722e-05
0.000481261
0.000480531
0.000597244
0.0011541
0.000508838
0.000780033
0.000597173
0
0
0
0
0
0
0
0
0.00350789
0.00933208
0.00227949
0.0021238
0.000896581
0.000566552
0.000300823
0.000359274
0.000481825
0.000337511
0.000323187
6.77271e-05
0.000520025
0.000833197
0.000200543
0.00122214
0.00247148
0.0014919
0.00823876
0.00351117
0.00306794
0.00759153
0.00677606
0.0175232
0
0.186837
0.00724112
0.0260417
0.00688099
0.0174458
0.0215119
0.0138599
0
0
0.0370985
0.02003
0.0817803
0.0245311
0.0468504
0.365387
0.157625
0
0
0
0
0
0
0.00920847
0.0128203
0.013844
0.00770849
0.00097142
0.00110103
0.000263188
0.00104122
0.00217666
0.00146277
0.00106555
0.00153167
0.00168564
0.00105689
0.00333211
0.00514133
0.00260612
0.00529882
0.000952748
0.000901265
0.00512863
0.000939523
0.00382982
0.000729466
0.00153682
0.00214894
6.56996e-05
0.0026957
0.00416352
0.00217095
0.00298279
0.00317407
0.00376054
0.00179528
0.00383589
0.00312074
0.00226882
0.000780352
0.00570592
0.00538737
0.00502943
0.0088649
0.0155239
0.00847534
0.00817786
0.0052197
0.00961565
0.00854859
0.0130337
0.00530292
0.0109596
0.00863995
0.00394158
0.00936156
0.000886783
0.00330191
0.00272002
0.00200126
0.00351832
0.00441795
0.00344218
0.000576207
0.000160553
0.000341994
0.000253554
6.10882e-05
0.000747711
0.000575724
0.00148905
0.000180223
0.000787374
0.000391742
0.0165006
0.1209
0.0438966
0.0436206
0.0106033
0.00183396
0.000706378
0.00280804
0.00121829
0.0019079
0.00133791
0
0
0
0
0
0
0
0
0
0
0
0
0
0
0
0
0.000520201
0.000291789
0.00031787
0.000109025
0.000431853
0.000431152
0.000444862
0.000717864
0.00117983
0.000756822
0.000351114
0.000767858
0.000498527
0.000479244
0.000388102
0.000431097
0.000297729
0.00048503
0.000411229
0.000389606
0.00130975
0.000691977
0
0.00805393
0.0111143
0
0
0
0
0
0.00105052
0.00744048
0
0
0
0
0
0
0
0
0
0
0
0
0
0
0.0184569
0
0.0026408
0.0018297
0.000835009
0.00128006
0.000408112
0.000168315
0.000144747
0.000381691
0.000329136
0.000287672
0.000292549
0.000190916
0.00203409
0.000260763
0.00095554
0.00251424
0.00237697
0.00995645
0.00588818
0.00758187
0.01315
0.0100534
0.0686257
0.0100032
0
0
0.0087594
0.296971
0
0.0622533
0.0450431
0.037373
0
0
0
0
0
0
0
0
0
0
0
0.00199708
0.00066943
0.00515879
0.00383754
0.00665915
0.00173414
0.000826786
0.00238541
0.00651103
0.00761849
0.00717253
0.00189951
0.0130944
0.229691
0.00216721
0.00146875
0.00217196
0.00326567
0.00349745
0.00307548
0.00431168
0.00218758
0.00281618
0.00334759
0.00389874
0.00375657
0.00759108
0.0084313
0.00724574
0.00337502
0.00938661
0.00640054
0.0532691
0
0
0.0146708
0.00602975
0.00285515
0.00258919
0.0020679
0.00706528
0.00324482
0.00414214
0.00352192
0.00303707
0.0048052
0.00236912
0.00329059
0.00721061
0.00329999
0.00251699
0.00385021
0.00300651
0.00160439
0.00568135
0.00440925
0.00133436
0.00545411
0.0106748
0.00384677
0.00118958
0.00959425
0.00406789
0.00254907
0.00324242
0.000440159
0.00224882
0.00120029
0.0021776
0.00191414
0.000974729
0.00189556
0.000892103
0.00062207
0.000988963
0.00121546
0.00084939
0.00081391
0.0005277
0.000350579
0.00116357
0.00135334
0.0063326
0.00402489
0.000913269
0.000930505
0
0
0.0795313
0.00600285
0.0112022
0.00266546
0.00431047
0.0151
0.0112807
0.11026
0
0
0
0
0
0
0
0
0
0
0
0
0
0
0
0
0
0
0
0
0
0
0
0
0
0
0.00861399
0
0.000257252
0
0.0037657
0.00934622
0
0
0
0
0
0
0
0
0
0
0
0
0
0
6.34843e-05
0.000349577
0.000265833
0.000152997
0.00025559
0.000342203
0.000860338
0.00024526
0.000217201
0.000493937
0.000463072
0.00013026
0.000163393
0.000602381
0.000247725
0.000557511
0.000398655
0.000454226
0.000451404
0.000790153
0.00260225
0.00142957
0
0
0
0
0
0
0
0
0
0
0
0
0
0
0
0
0
0
0
0
0
0
0
0
0
0
0
0
0
0
0
0
0
0
0.00716396
0.0661385
0.00161883
0.00278077
0.000899435
0.000739129
0.000475738
0.000350286
0.000397977
0.000187771
0.00037121
0.000281413
0.0004199
0.000371454
0.00302425
0
0
0
0
0
0
0
0
0
0
0
0
0
0
0
0
0.00306748
0.0023402
0.00252787
0.00419121
0.000651791
0.0027835
0.0158139
0.127337
0
0
0
0
0
0
0
0
0
0
0
0
0
0
0
0
0
0
0
0
0
0
0
0
0.00127305
0.00168189
0.00115005
0.00101001
0.000375672
0.00202323
0.00128614
0.000959304
0.00035356
0.00107338
0.0145081
0.00107064
0.00245943
0.00133571
0.00257369
0.012183
0.00567357
0.0136348
0
0.0564588
0.00630202
0
0.00303601
0.00462624
0.00498813
0.00606127
0.00561357
0.00546506
0.00637018
0.00467639
0.0213874
0.0215126
0
0.0225014
0.0392083
0.074643
0
0
0
0
0
0.0922299
0.00375298
0.145522
0.00722567
0.00342309
0.0038348
0.00272582
0.00202845
0.00489299
0.00626727
0.00255953
0.00409386
0.000612501
0.00161261
0.00458522
0.00236784
0.00227752
0.00381221
0.0018115
0.00274559
0.00339329
0.00222617
0.00356871
0.00644183
0.00414407
0.00215524
0.00555385
0.000980223
0.00320908
0.00255427
0.000272993
0.0021975
0.000845293
0.00150229
0.000615469
0.00118898
0.00101075
0.00149722
0.00048431
0.000845386
0.00156642
0.00068476
0.000941466
0.000776303
0.000733307
0.00061515
0.00116026
0.000981572
0.000396973
0.000583236
0.000519262
0.000325453
0.000412004
0.000389268
0.00032903
0.000345316
0.000361026
0.000387601
0.0003869
0.000377468
0.000419385
0.000296616
0.00042195
0.000297891
0.000461756
0.000313579
0.0004199
0.000307475
0.00039842
0.000331786
0.000317581
0.000306296
0.000327623
0.000347691
0.000294085
0.000338173
0.000390084
0.000370273
0.000315542
0.00036721
0.0228472
0.0133894
0.00282558
0.000798331
0.00162125
0.00217022
0.00155216
0.137734
0.00187328
0
0
0
0
0
0
0
0.00209753
0
0
0
0
0
0
0
0
0
0
0
0
0
0
0
0
0
0.00738844
0
0
0
0
0
0
0
0
0.00919898
0
0
0
0
0
0
0
0
0
0
0
0
0
0
0.00267026
0.000272759
0
0
0.000515261
0
0
0
0
0
0.00749032
0.00584832
0
0.00965105
0
0
0
0
0
0
0
0
0
0
0
0
0
0
0
0
0
0
0
0
0.0114905
0
0
0.00030158
0.000103783
0.000240893
0.000300222
0.000234013
0.000263291
0.000722946
0.000765313
0.000254513
0.00016475
0.000231872
0.000506876
0.000298044
0.000421047
0.00153067
0.000359538
0.00310376
0.000940972
0.00101208
0.00111852
0.00109187
0.000355219
0
0
0.0047571
0.00346159
0
0
0
0
0.00813152
0
0
0
0
0
0
0
0
0
0
0
0
0
0.0104092
0.00851698
0
0
0
0
0.0493622
0
0.00298715
0.00216448
0.00178359
0.00134881
0.0013394
0.000726575
0.000631642
0.000754255
0.000875237
0.000552586
0.000540191
0.000623768
0.000421179
0.000539779
0.00296482
0
0
0
0
0.000125353
0
0
5.86007e-05
0
0
0
0
0
0
0
0
0
0
0
0
0
0
0
0.47826
0
0.0021147
0.00299026
0.00504516
0.00706815
0
0
0
0
0
0.0046369
0
0
0
0
0
0
0
0
0.0596435
0.134948
0
0
0
0
0
0
0
0
0
0
0.00131796
0
0.000585064
0.000833215
0.000957271
0.0019673
0.000335148
0.00208361
0.000229096
0.0010452
0.000640706
0.000411283
0.000410834
0.000749613
0.00044698
0.000456925
0.000459105
0.000397668
0.000348994
0.000481272
0.000370881
0.000518531
0.000417186
0.000388792
0.000417997
0.00038158
0.00033088
0.000393783
0.000379577
0.000284941
0.000375647
0.000491971
0.00345207
0.0157656
0.000332693
0.000956071
0.00776457
0.0263997
0.0164637
0.0105382
0
0.169916
0
0.133726
0
0.00399442
0.0112535
0.00568172
0.00419501
0.00315069
0.0128154
0
0
0
0
0
0
0
0
0
0
0
0
0
0.157137
0
0.0119409
0.0318298
0.00654816
0.000369248
0.00612621
0.00151405
0.00384789
0.00317318
0.00165839
0.00105889
0.00169602
0.0010692
0.00209382
0.00470293
0.00365401
0.00280637
0.00330148
0.00198822
0.00195593
0.00236697
0.00249051
0.00299896
0.00244325
0.00232217
0.00132004
0.00224479
0.00199807
0.000957207
0.00131824
0.00181348
0.000477257
0.00165765
0.000732403
0.0015989
0.00126376
0.000635945
0.00117309
0.000428237
0.00106767
0.00053224
0.000483857
0.000735174
0.000405002
0.000494616
0.000391048
0.000494805
0.000344922
0.000473034
0.000297562
0.00046794
0.000350602
0.000370047
0.000275556
0.000314246
0.000234602
0.00033943
0.0001263
0.000282918
0.000319937
0.000270081
0.000201404
0.000290543
0.000335652
0.000185313
0.000173547
0.000192538
0.000261446
0.00018238
0.000297258
0
0
0.559921
0.00617152
0
0.0528403
0.00504445
0.00510892
0.00677141
0
0
0
0
0.357928
0
0
0
0
0
0.0161949
0.0123902
0
0
0
0.0556641
0
0
0
0
0.00734364
0.0237638
0
0
0
0.0089942
0
0
0
0
0
0
0
0.0101303
0
0
0
0
0
0
0
0
0.000131305
0
0
0
0
0
0
0
0
0
0
0
0
0
0
0.000463878
0
0
0
0
0
0
0
0
0
0
0
0
0
0
0
0
0
0
0.000400972
0.000238538
0.000134002
0.000409351
0.000433209
0.000499156
0.000281147
0.000345644
0.000593395
0.000435546
0.000512625
0.000318703
0.000623941
0.00105507
0.00134249
0.00169255
0.00706857
0.0002149
0.000784525
0.000990877
0.00142167
0.00119626
0.0027021
0
0.000133963
0
0
0
0
0
0
0
0
0
0
0
0
0
0
0
0
0
0
0
0
0
0
0
0
0
0.0192001
0
0.00281156
0.00130863
0.00124576
0.00127815
0.000683267
0.00125754
0.00103741
0.000876236
0.00076505
0.000875566
0.000434441
0.000310214
0.000534927
0.000450502
0
0
0
0
0
0
0
0
0
0
0
0
0
0
0
0
0
0
0
0
0
0
0.43739
0
0
0
0
0
0
0
0
0.0388808
0.0462734
0
0
0
0
0
0
0.00892223
0.0208589
0
0
0
0
0
0.001284
0.00205759
0
0
0
0
0
0
0
0
0
0
0
0
0
0
0
0
0
0
8.83399e-05
2.26947e-05
6.69519e-05
0.000129172
6.91123e-05
3.74797e-05
0.000120473
6.83623e-05
6.81748e-05
0.000105288
0.000125796
0.000123995
4.37889e-05
5.00948e-05
0.000164277
0.000219913
0.000200042
0.000155505
0.000161105
0.000172048
0.000191731
0.000133152
0.00011523
0.000151357
0.000153262
6.28132e-05
8.68788e-05
0.00010711
2.74761e-05
0.000368307
0.000380376
0.000397235
0.000339259
0.000290888
0.000296067
0.000586617
0.00043266
0.00134707
0.00161196
0.000693131
0.00125719
0.000377546
0.000540636
0.000509486
0.000249867
0.00038627
0.000395854
0.000538079
0.000470176
0.000487113
0.000436168
0.000508122
0.000463141
0.000504137
0.000517956
0.000483435
0.000477335
0.000537799
0.000443001
0.000490235
0.000396934
0.000602909
0.000442669
0.00334297
0.00743207
0.0069878
0.00770401
0.00992255
0.00189012
0.00115682
0.0682653
0.00849472
0
0
0.000101847
0.000161949
0.00012917
0.000120208
0.000138419
7.62066e-05
6.86815e-05
5.00809e-05
6.353e-05
6.55624e-05
6.47628e-05
3.2868e-05
3.39091e-05
1.49167e-05
5.00838e-05
4.56321e-05
7.93742e-05
0.000115458
0
0
0.00286426
0.0183133
0
0.00063547
0.0308145
0
0.00240007
0
0.00661097
0.0102243
0
0
0
0
0
0
0
0
0
0
0.013009
0
0.0366262
0
0.00838389
0.0137315
0.00378354
0.00493706
0.00557381
0.00331554
0.00473825
0.00270078
0.00192724
0.00399878
0.00295015
0.00210053
0.00200403
0.00200715
0.00307301
0.00188966
0.00149204
0.0016173
0.0016644
0.00182691
0.00285122
0.00136085
0.0014308
0.00178905
0.00089498
0.00176281
0.0018132
0.00140677
0.00134242
0.00143477
0.00137023
0.00106219
0.00121908
0.000664613
0.00101983
0.000887911
0.000942925
0.00075565
0.000506693
0.000644287
0.000411688
0.000554561
0.000384168
0.000498861
0.000473212
0.00029748
0.000351428
0.000432561
0.000304602
0.000293209
0.000180948
0.000244315
3.45644e-05
0.000292461
5.67205e-05
0.000291921
0.000141313
4.52105e-05
0.000237191
0
0
1.59884
0
0
0
0
0
0
0
0
0
0
0
0.00850255
0
0
0
0
0.025936
0
0
0
0
0
0
0
0
0.00366354
0.00409879
0.0373143
0
0.00146516
0
0
0
0
0
0
0
0
0
0.0134055
0
0
0
0
0
0
0
0
0.204825
0
0
0
0
0
0
0
0
0
0
0
0
0.00196534
0
0
0
0
0.00964447
0
0
0
0
0
0
0
0
0
0
0
0
0
0
0
0
0
0
0
0.00268257
0
0
0
0
0.00308574
6.87966e-05
0.000122556
0.000159393
0.00012809
5.02075e-05
9.80828e-05
0.000299616
0.000384704
0.000451802
7.97557e-05
7.39427e-05
0.000155318
0.000399417
0.000520883
0.000651326
9.25885e-05
0.000929835
0.0007956
0.000873609
0.00123135
0.00168182
0.00601297
0.00230884
0.00105918
0.00189813
0
0
0
0
0
0
0
0
0
0
0
0
0
0
0
0
0
0
0
0
0
0
0
0
0
0
0
0.0246411
0.00566142
0.00119491
0.000439765
0.000344886
0.000453262
0.000418819
0.00185166
0.00089879
0.000861932
0.000708155
0.000483233
0.00059081
0.00056316
0.000105624
0.000408107
0
0.00106518
0
0
0
0
0
0
0
0
0
0
0
0
0
0
0
0
0
0
0
0
0
0
0
0
0
0
0
0
0
0
0
0
0
0
0
0.0186773
0.0141006
0.00380835
0
0
0
0
0
0
0
0
0
0
0
0
0
0
0
0
0
0
0
0
0
0
0
0
0
0
0
0
0
0
0
0
0
0
6.10174e-05
1.85589e-05
5.85599e-05
7.16266e-05
0.000126591
0.000205324
0.00017912
0.000299567
0.000225382
0.000244458
0.000222189
0.00024456
0.000190186
0.000247062
0.000111402
0.000189522
0.000435452
0.00041432
0.000411262
0.000433158
0.000352638
0.000342746
0.000588985
0.000648477
0.00084238
0.00113462
0.000888605
0.000638488
0.000153601
0.000702584
0.000478329
0.000436755
0.000493113
0.000579932
0.000488972
0.000525107
0.000596666
0.000612296
0.000582529
0.000563067
0.000575397
0.000582351
0.000664152
0.000523202
0.000675175
0.000574883
0.000490056
0.000469424
0.000638564
0.000458795
0.000574335
0.000699133
0.000536429
0.0204889
0.0155067
0.00321446
0.00145652
0.00126009
0.0146458
0.00113063
0.000404957
0.00338636
0.127651
0
0.315237
0.000134235
0.000131021
0.00013307
0.000111481
0.000162176
0.000119549
5.64096e-05
9.31885e-05
5.33036e-05
2.75702e-05
5.63394e-05
8.15746e-05
5.59871e-05
2.51061e-05
5.70596e-05
7.19104e-05
6.10483e-05
0.000157015
0.000132158
9.47471e-05
0.000153102
6.5617e-05
9.8599e-05
5.74808e-05
0.000131452
0.00451863
0.0109923
0.00596697
0
0
0
0
0
0
0
0
0
0
0.0104434
0
0.0048911
0
0
0
0
0.0040691
0
0
0
0.0169512
0.00617917
2.75627
0.0557679
0.0156834
0.0250468
0.00433058
0.00408402
0.000605123
0.00272034
0.00237419
0.00237534
0.0025935
0.00198175
0.00230602
0.00166361
0.0009342
0.00281904
0.00229145
0.0024488
0.00195553
0.00147596
0.000972116
0.00200931
0.00129679
0.00233445
0.00147383
0.0014324
0.00196278
0.00133736
0.000982791
0.00167832
0.00113443
0.00109358
0.000844968
0.000938115
0.00099474
0.000531878
0.000675899
0.000416961
0.000509732
0.000432547
0.000453491
0.000342256
0.000416521
0.000430789
0.000326693
0.000281185
0.000305032
0.000131272
0.000165704
4.31805e-05
0.000231258
7.08918e-05
0.000170832
0.0002581
0.000211026
0.000323427
0
0
0
0
0
0
0
0
0
0
0
0
0
0
0
0
0
0
0
0
0
0
0
0
0
0
0.00419746
0
0.00911818
0.0023426
0
0
0
0
0
0
0
0
0
0
0
0
0.271824
0
0
0
0
0
0.0103416
0
0
0.104208
0
0
0
0.00444373
0.00411169
0
0
0
0
0
0
0
0.00283272
0.00296951
0
0
0.00425673
0.00419328
0
0
0
0
0.0075382
0
0.0104465
0
0
0
0
0
0
0
0
0
0
0
0
0
0
0
0
0
0.00466159
0
0
0
0
0
0
0
0
6.66975e-05
0.000203123
5.97499e-05
0.000261015
0.000192765
0.000146303
0.000172767
0.000110172
8.07702e-05
8.37651e-05
0.000418702
0.000169393
0.000304723
0.000437422
0.000346986
0.000536727
0.000444998
0.000308364
0.000641743
0.000554933
0.000505491
0.000611424
3.96289e-05
0.00135607
0.00961011
0.00512207
0.00303531
0
0
0
0
0
0
0
0.00501524
0.0958105
0
0
0
0
0
0
0
0
0
0
0.000114913
0
0
0
0
0
0.00080211
0.00027857
0.00073324
0.00398625
0.00192185
0.00253509
0.000767346
0.000466349
0.000657697
0.000230722
0.00142949
0.00104983
0.000400119
0.000532493
0.000681894
0.000964854
0
0
0.00100264
0
0
0
0
0.000203004
0
0
0
0.0306535
0
0
0
0.0171734
0
0
0
0
0
0
0
0
0
0
0
0
0
0
0.0158867
0
0
0
0
0
0
0
0
0
0
0
0
0
0
0.0201722
0.0244817
0.0122188
0
0
0
0
0
0
0.000552936
0
0
0.000734777
0
0
0
0
0
0
0
0.00353259
0
0
0
0
0
0
0
0.00299073
0
0.00468757
0
0
0
0
0
0
0
0.00399301
0.000213376
9.78595e-05
8.96108e-05
0.00029618
0.00032075
6.82288e-05
0.00025334
0.000253497
0.000143222
0.000344811
0.000304567
6.30048e-05
0.000272379
0.000199188
0.000301937
0.000314508
0.000292268
0.000291138
0.000266885
0.000223814
0.000178982
2.34187e-05
0.000506795
0.00050417
0.000518004
0.000489089
0.000425099
0.000446107
0.000339914
0.000819577
0.000543256
0.0011056
0.0002611
0.000308532
0.000289757
0.00070438
0.000462844
0.000676143
0.000417276
0.000782112
0.000662484
0.000522987
0.000690352
0.000678359
0.000656875
0.000667882
0.000760512
0.000646892
0.000511517
0.000681768
0.00049064
0.000635079
0.00062649
0.000640966
0.000617556
0.000597988
0.000614219
0.000755519
0.0196879
0.0203956
0.00212177
0.000645783
0.00857458
0.00389635
0.00120301
0.0012807
0.0360072
0.00965919
0.0207653
0
0.000228246
0.000208888
0.000187225
0.00015654
0.000150425
0.000152864
0.00014386
0.000161549
0.000135973
4.4222e-05
0.000121761
0.000114392
5.00475e-05
6.43586e-05
4.62271e-05
0.000132476
9.59513e-05
0.00013603
0.000102089
0.000120292
8.75387e-05
9.3803e-05
0.000136146
3.99127e-05
7.59039e-05
0
0
0
0
0
0
0
0
0
0
0
0
0
0
0
0
0.00411102
0
0
0
0
0
0
0
0.00816942
0.0300446
0.135458
0
0.0168409
0.0133009
0.00529062
0.00709732
0.00308849
0.00409152
0.00181759
0.00229736
0.00240606
0.00212799
0.00284085
0.00243102
0.00363313
0.0020485
0.00148828
0.00215317
0.00227204
0.00208182
0.00200068
0.00145667
0.00206715
0.00140408
0.000872899
0.00134426
0.000924721
0.00120571
0.00108248
0.00130549
0.000908273
0.00084232
0.00081957
0.000715758
0.000552696
0.000501818
0.000512036
0.000429968
0.000433382
0.000392969
0.00034912
0.000367083
0.000303314
0.00028753
0.000102279
0.000130266
5.96782e-05
9.17871e-05
8.89395e-05
8.29623e-05
0.00031163
0.000238507
0.000168551
0
0
0.192125
0.000210011
0
0
0
0
0
0
0
0.211923
0.193038
0.0969755
0.117099
0.0633214
0.0388486
0
0.0246495
0.289145
0
0
0
0.00682591
0
0.00660898
0.00450919
0
0
0
0
0
0
0
0
0.000159132
0
0
0
0
0
0
0.762668
0
0
0
0
0
0
0
0
0
0
0
0
0
0
0
0
0
0
0
0
0
0
0
0
0
0
0
0
0
0
0
0
0
0
0
0
0
0
0
0
0
0
0
0
0
0
0
0
0
0
0
0
0
0
0
0
0
0
0
0
0
0
0
0
0
0
0
0
0
0.000170386
0
0
0
0
8.7744e-05
5.93702e-05
6.846e-05
7.10259e-05
0.000125196
0.000121394
0.000196556
0.000102651
0.00015069
0.000303379
4.6947e-05
8.8203e-05
0.000114745
0.000342711
0.000418859
0.00173642
0.000656109
0.000651902
0.000329193
0.000409681
0.00078
0.000235535
0.00265296
0.000356597
0.00568694
0.00372284
0.00825887
0.0051537
0.000777898
0
0
0
0
0
0.0335056
0
0
0
0
0
0
0
0
0
0
0
0.00828561
0.0143182
0
0.0153109
0
0
0
0.000872759
0.000995601
0.00010378
0.000654662
0.0012106
0.00723888
0.00383578
0.00496398
0.000756659
0.00175397
0.00110371
0.00165227
0.00104242
0.000927693
0.00175794
0.00102996
0
0.00355383
0
0
0
0
0
0.000191963
0
0
0.000204721
0
0
0
0.00304226
0
0
0
0
0
0
0
0
0
0
0
0
0
0
0
0
0
0
0
0
0
0.00502338
0
0.0138188
0
0
0
0
0
0
0
0
0
0
0
0
0
0
0
0
0
0
0.0147811
0
0
0
0
0
0
0
0
0
0
0
0
0
0
0
0
0
0
0
0
0
0
0
0
0
0
0
0
0
0
0
0
0.0132582
0.0133936
0
0
0
0
0
0
0.000170015
0.000112013
0.000211643
0.00018458
0.000496633
0.000494961
0.000616497
0.000464097
0.000387557
0.000247865
0.000149887
0.00022681
0.000201031
0.000394089
0.000338786
0.000292093
0.000297485
0.000227406
0.000248105
0.000421662
0.000263133
0.000569879
0.000577867
0.000539567
0.000496806
0.000458832
0.000429135
0.000360642
0.000714911
0.000228305
0.00084914
0.000515002
0.000580073
0.00106284
0.000120199
0.000545471
0.000692305
0.000848826
0.000227889
0.000701534
0.000560047
0.000596552
0.000695652
0.000725196
0.000564452
0.000655637
0.000641687
0.000459226
0.000694705
0.000536896
0.000549572
0.000675366
0.000650995
0.000668044
0.000679282
0.000680854
0.000753554
0.0110691
0.0107288
0.00136963
0.00195875
0.00266787
0.00211158
0.00163685
0.00167496
0.00330089
0.00857753
0.000708325
0
0
0
0
0.000202221
0.000302608
0.000141988
0.000131706
0.000160566
0.000134802
0.000149697
0.000123704
0.000141614
0.000162522
0.000111483
3.76373e-05
5.91559e-05
0.000135118
0.000100417
8.1784e-05
0.00016876
0.000112929
9.34637e-05
8.6731e-05
4.02958e-05
6.44361e-05
0.000131122
0.000122262
0.000157556
6.34864e-05
0
0
0
0
0
0.00656346
0.0101314
0
0
0
0
0.00425394
0.0058
0
0
0
0
0
0
0
0
0
0
0
0
0.230701
0.0131188
0
0.00566974
0.00542775
0.00204335
0.000984527
0.0023465
0.00280563
0.0026027
0.00221585
0.00304474
0.00311186
0.00203405
0.00279396
0.00296946
0.00236609
0.00213034
0.001692
0.00180731
0.0021892
0.00218259
0.00185288
0.00144651
0.00122636
0.00110141
0.00135946
0.00125267
0.0012358
0.000862189
0.00112473
0.000915032
0.000871903
0.000808519
0.000621261
0.000583884
0.000503824
0.000541002
0.000437201
0.000368213
0.000404878
0.000278487
0.000303013
0.000111399
8.46581e-05
0.000115777
6.07004e-05
0.000163312
0.000139194
0.000242257
0.000197839
0.000126588
0.000262878
0
0
0
0
0
0
0
0
0
0.21007
0
0
0
0.125162
0.107497
0.0827482
0.0666052
0.025583
0.0291607
0
0
0
0
0
0
0
0
0
0
0
0
0
0
0
0
8.62025e-05
0
0
0
0.152435
0
0
0
0
0
0
0
0
0
0
0
0
0
0
0
0
0
0
0.0637351
0
0
0
0
0
0.00271552
0.00181462
0.00471533
0
0
0
0
0
0
0
0
0
0
0
0
0
0
0
0
0
0
0
0
0
0
0
0
0
0
0
0
0
0
0
0
0
0
0
0
0
0
0
0
0
0.00749103
0
0.00282028
0
0
0.00104329
0
0
0.000147223
0.000139071
0.000186219
0.000122675
0.000132879
9.96492e-05
0.000202699
0.000455972
4.92246e-05
0.000150368
8.48954e-05
0.00017032
2.94975e-05
7.89537e-05
0.00021162
5.96435e-05
0.000169455
0.000184155
0.000284108
0.000727811
0.000309302
0.000790623
0.00140315
0.000911738
0.00137341
0.000117247
0.000991896
0.00170496
0.0029171
0.0154211
0.0102175
0.0169193
0.0314516
0
0
0
0.0187063
0
0
0
0.0219545
0
0
0
0
0
0
0
0
0
0
0
0
0.0213148
0
0
0
0.000431701
0.00129925
0.00107489
0.00192381
0.00571118
0.0130693
0.00456809
0.00145337
0.00158286
0.0015457
0.00159581
0.00139715
0.00136215
0
0
0
0
0
0
0.0094611
0.00557485
0
0
0
0
0
0
0
0
0
0.0831353
0
0
0
0
0
0
0
0.00445876
0
0
0.0404706
0
0
0
0
0
0
0
0
0
0
0
0
0
0
0
0
0
0
0
0
0
0
0.00279494
0
0
0
0
0
0
0
0
0
0
0
0
0
0
0
0.000237649
0
0
0
0.00723841
0
0
0
0
0
0
0
0
0
0
0
0
0
0
0
0
0
0
0
0
0
0
0
0
0
0.00418105
0
0
0
0
0
0
0
0
0.00101757
0.000351777
0.00067274
0.000151582
0.000693873
0.000336736
0.000455425
0.000205408
3.01732e-05
0.000206707
4.3581e-05
0.000220196
0.000129573
0.000152281
0.000425649
0.000407934
0.000324851
0.000296489
0.000325791
0.000167268
7.31741e-05
0.000302355
0.000565277
0.000602335
0.000549818
0.000564995
0.000517973
0.000453337
0.000320351
0.000579754
0.000198203
0.000411614
0.000487033
0.000521074
0.000352106
0.000989224
0.000653876
0.000767765
0.000587074
0.000971661
0.000594889
0.000491122
0.000726709
0.000517597
0.000620524
0.000462564
0.000530366
0.000402098
0.000607899
0.000386906
0.000693971
0.000436061
0.000596403
0.000568633
0.000642101
0.000663079
0.000602856
0.000673867
0.00687787
0.00909357
0.000388114
0.00179356
0.00339863
0.000834721
0.00245956
0.000785887
0.00326435
0.00379958
0.00808959
0.0519389
0
0.0119586
0.000171966
0.000162293
0.000175378
0.000185489
0.000134335
0.000173474
0.000155979
0.000141305
0.000120279
8.21469e-05
9.58747e-05
0.000157313
6.5145e-05
0.000121371
0.000156442
0.000126991
0.000116284
8.65039e-05
0.000102019
9.35334e-05
6.00886e-05
0.000137082
0.000129392
0.000113356
0.000127108
0
0
0
0
0
0
0
0
0
0.00470573
0
0
0
0
0
0.000195616
0.000182298
0
0
0
0
0
0
0
0
0.394706
0.247842
0.0117319
0.00471338
0.0042491
0.00186988
0.00162627
0.00272799
0.00452539
0.00346703
0.00332065
0.00343401
0.00273301
0.00189889
0.00153899
0.00213191
0.00218347
0.00164313
0.00218231
0.00134697
0.00176227
0.00217064
0.00170453
0.00137281
0.00128928
0.00117022
0.000847801
0.00150498
0.00105402
0.000752252
0.000929265
0.000823206
0.000963449
0.000585278
0.000722119
0.000496277
0.000598563
0.000450727
0.000385212
0.000331492
0.00026356
0.000160652
5.90162e-05
0.000126655
0.000153759
0.000208034
0.00017048
0.000199131
0.000224967
0.000234091
0.000233872
0.000223092
0.000233304
0
0
0
0
0
0
0
0
0
0.00161711
0
0
0
0
0
0
0
0.0625989
0
0
0.472441
0
0
0
0.00163961
0
0
0
0
0
0.00176728
0
0
0
0
0
0
0
0
0
0
0
0
0
0
0
0.00555527
0.00964675
0.00905564
0
0
0
0
0.00374358
0
0
0.0044769
0
0
0
0
0.00725256
0
0.00135735
0
0
0
0
0
0
0
0
0
0
0
0
0
0
0
0
0
0
0
0
0
0
0
0
0
0
0
0
0
0
0
0
0
0
0
0
0
0
0
0
0
0
0
0
0
0
0
0
0
0
0
0
0
0.00308359
0
0
0
0.000351012
0
0
0.00016909
0.000136745
0.000154893
8.98824e-05
0.000107716
0.000183812
0.000194884
0.000211745
0.000179893
0.000317491
0.000164349
0.00013992
0.000219222
0.000144639
5.52933e-05
0.000136647
0.000115439
0.000376097
0.000215759
0.00012804
0.000110221
0.000199297
0.000129233
0.000125752
0.00116559
0.00140411
0.00293396
0.000966769
0.00173857
0.00184292
0.0039728
0.00278036
0.00348062
0.00104952
0.00236603
0.056484
0.374457
0
0
0.0179302
0.00791792
0
0
0.00689765
0
0
0
0
0.000335252
0
0
0
0.000157464
0
0
0
0.00164666
0
0
0
0
0.00256824
0.0010912
0.00412787
0.00257622
0.00925783
0.00392143
0.00234666
0.00289668
0.00208981
0.00132125
0.00121291
0.00523002
0
0
0.00390719
0
0
0.00519974
0.00460464
0
0
0
0
0
0
0
0
0.4638
0.116665
0
0
0.00313809
0
0.00266491
0
0
0
0
0.222368
0
0.00647269
0.144998
0
0
0
0
0
0
0
0
0
0
0
0
0
0
0
0
0
0
0.0219566
0
0
0
0.0154522
0
0
0
0
0
0
0
0
0
0
0
0
0
0
0
0
0
0
0
0
0
0
0.002018
0.00473637
0
0
0
0
0
0
0
0
0.00184982
0
0
0
0
0
0
0.00125016
0
0
0
0
0
0
0
0
0
0
0
0
0
0
0.00688345
0
0
0
0
0
0
0
0
0
0.000434359
0.000305218
0.000439254
0.000228186
0.000180085
4.00703e-05
0.000100497
0.000162283
6.15283e-05
0.000131218
0.00010863
0.000187465
0.000165067
0.000113535
0.000128661
0.000493918
0.000471632
0.000409433
0.000411117
0.000335766
0.000435514
0.00037129
0.000171614
0.00034136
0.000575007
0.000588722
0.000591375
0.000531202
0.000535367
0.000371453
0.000707785
9.54727e-05
0.000297448
0.000331755
0.000955455
0.00087439
0.000657213
0.000844507
0.000662241
0.000747229
0.00075077
0.000448008
0.000337811
0.000348466
0.000531845
0.000265119
0.000368343
0.000250291
0.000493716
0.000274939
0.000375117
0.000584573
0.000465397
0.000596531
0.000504102
0.000637086
0.000641627
0.000512822
0.00722483
0.0212549
0.000529096
0.000989431
0.00331115
0.00228401
0.000562652
0.0027468
0.00887819
0.00995497
0.00707798
0.00624024
0.0117107
0.0119642
0.000189876
0.00016796
0.000123189
0.000142924
0.000164569
0.000144244
0.000130582
0.000183966
0.000125536
0.000164077
0.000182126
0.00013703
0.000156372
9.90137e-05
8.93871e-05
9.45113e-05
9.02047e-05
0.000144352
0.000165482
0.000174606
0.00014031
0.000114925
0.00014158
0.000170207
0.00948412
0.0128038
0.0145738
0
0
0
0
0
0
0
0
0
0
0
0
0
0
0
0
0.00424226
0.00518725
0
0
0
0
0.0169193
0.0144018
0.0168795
0.00881424
0.00433301
0.0125985
0.00322856
0.00370878
0.0035321
0.00315785
0.00347881
0.00255648
0.00206414
0.00188944
0.00197428
0.00186843
0.00214103
0.00185129
0.0018838
0.00163051
0.00120925
0.00183669
0.00119758
0.00164317
0.00144419
0.000903941
0.000950402
0.00120418
0.00109985
0.000936258
0.00105311
0.000913317
0.000748574
0.000595527
0.000712782
0.000596798
0.00046832
0.00042505
0.000310091
0.000235286
0.000100336
0.000190863
0.000145913
0.00019272
0.000199507
0.000196195
0.000192969
0.000228389
0.000238119
0.000225252
0.000233778
0.000197764
0.000190022
0.0080549
0.00118186
0
0
0
0
0
0
0
0
0
0.00148124
0
0.00207361
0
0.00182658
0.00382864
0
0
0
0
0
0
0
0
0
0
0
0
0.00241275
0
0
0
0
0
0
0
0
0.00934566
0.00638099
0
0
0.00564515
0
0
0
0.00535868
0
0
0
0
0
0
0
0.00350443
0
0
0
0
0
0
0
0
0
0
0.00110687
0
0
0
0
0
0
0
0
0
0.000127573
0
0
0
0
0.000654035
0
0
0
0
0
0
0
0
0
0
0
0
0
0
0
0
0
0
0
0
0
0
0
0
0
0
0
0
0
0
0
0
0
0
0
0
0
0
0
0
0
0
0
0
0
0.000115704
5.95865e-05
0.000130979
0.000129933
0.000134787
0.000210481
0.00021339
0.00013329
0.000226106
0.000126231
0.000179125
0.000158373
8.5999e-05
9.92498e-05
8.38734e-05
0.000182
0.000123256
6.04523e-05
0.000212771
0.000109073
0.000180639
0.00018863
0.00018182
0.000185718
0.00012636
0.000152616
7.98528e-05
0.00435699
0.00419063
0.00971505
0.0042728
0.00435359
0.00193307
0.00364069
0.00750059
0.00879758
0.0231608
0
0
0
0.00491509
0.0430977
0
0
0
0.00257552
0
0
0
0
0
8.27172e-05
0
0.001356
0
0
0.00440651
0
0
0
0
0
0
0.0103559
0.0103827
0.00567607
0.00296686