/*--------------------------------*- C++ -*----------------------------------*\
  =========                 |
  \\      /  F ield         | OpenFOAM: The Open Source CFD Toolbox
   \\    /   O peration     | Website:  https://openfoam.org
    \\  /    A nd           | Version:  8
     \\/     M anipulation  |
\*---------------------------------------------------------------------------*/
FoamFile
{
    version     2.0;
    format      ascii;
    class       volScalarField;
    location    "19260";
    object      alpha;
}
// * * * * * * * * * * * * * * * * * * * * * * * * * * * * * * * * * * * * * //

dimensions      [0 0 -1 0 0 0 0];

internalField   nonuniform List<scalar> 
526318
(
4.74634e-05
5.74835e-05
6.58557e-05
9.85538e-05
8.97322e-05
9.35406e-05
0.000138574
0.000185487
0.000105715
0.000212172
0.000103538
8.3476e-05
8.73809e-05
0.000104418
0.00014187
0.000111457
0.000128357
8.17333e-05
0.000126019
7.14239e-05
0.000108267
0.000104903
0.00018642
0.000140449
0.000149522
0.000100566
6.70392e-05
0.000203477
0.000118298
5.65641e-06
3.90454e-05
5.53383e-05
4.43502e-05
0.000118782
0.000106922
0.000141425
0.00010895
9.59028e-05
0.000118196
0.000168488
0.000122126
0.000139638
0.000283521
0.000160343
0.000147159
0.000287895
0.000122211
0.000273574
0.000199883
0.000121891
0.000174864
0.000141362
0.000136019
0.000179991
0.00047597
0.000241365
0.000374004
0.000288194
0.000119805
0.000105028
9.2298e-05
0.000139823
0.000146865
7.5385e-05
7.9401e-05
0.000119554
0.000139273
0.000138286
0.000200828
0.000175587
0.000138866
0.000221489
0.000211757
0.000278091
0.000287876
0.000304858
0.000247094
0.000292326
0.000327556
0.000301834
0.000276641
0.000248331
0.000280611
0.000339551
0.000326099
0.000249393
0.000267455
0.000271618
0.000312955
0.000220999
0.000334541
0.00028655
0.0001732
0.000204101
0.000325715
0.000275378
0.000351706
0.000249042
0.000209515
0.000257501
0.000379155
0.000977954
0.000656478
0.000535651
0.000427128
0.000694181
0.000253446
0.000346207
0.000177765
0.000239356
0.000210605
0.000149381
0.000154903
0.000174812
0.000117759
8.62014e-05
8.03466e-05
1.25008e-05
1.33239e-05
0.000140714
0.000171055
0.000158904
0.000207406
0.000127319
9.62404e-05
0.000102084
0.000141354
9.10061e-05
7.05941e-05
0.000116295
0.000155687
0.00010749
6.75647e-05
6.72872e-05
7.99057e-05
5.20728e-05
8.29027e-05
7.02596e-05
8.18028e-05
5.63687e-05
6.09166e-05
6.10356e-05
6.57251e-05
4.75577e-05
6.5908e-05
8.27517e-05
9.57987e-05
0.000113017
0.000134658
9.88434e-05
7.55905e-05
0.00012231
0.000221289
0.000271021
0.000187773
0.00041095
0.000203217
0.0001897
0.000260767
0.000206021
0.000291458
0.000121544
0.000354861
0.000186021
0.000149848
0.000165293
0.000147135
0.000312957
0.000243204
0.000331106
0.000327856
0.000361793
0.000331282
0.000316277
0.000369637
0.000344916
0.000325297
0.00034416
0.000382134
0.000311091
0.000303529
0.000219521
0.000267246
0.000210936
0.00023111
0.00023132
0.000177388
0.000104412
0.000171111
0.00011524
9.92523e-05
5.40643e-05
8.04376e-05
6.16723e-05
5.37048e-05
0.000131694
7.5713e-05
0.000102922
0.000150232
0.000132742
9.43806e-05
0.000366167
0.000301684
0.000132869
0.0002044
0.000297794
0.000309682
0.000238487
0.000240842
0.000231729
0.000105083
0.000160602
0.000116698
0.000135118
0.000103033
0.000132346
0.000128587
0.000168377
9.26176e-05
0.000367333
0.000173407
0.000208432
0.000326192
0.00026133
0.000243631
0.000235938
0.000207577
0.000187122
0.000247334
0.000645255
0.000700234
0.000268015
0.000456821
0.0030837
0.00365177
0.00144728
0.000754503
0.00103377
0.000526695
7.72096e-05
0.000107375
6.12876e-05
6.74305e-05
0.000105638
0.000145566
0.000198516
0.000131447
0.000200205
0.000249753
0.000228465
0.000265772
0.00023463
0.000250066
0.000249529
0.000217686
0.000212197
0.000204978
0.000184503
0.000183649
0.00015143
0.000144872
0.00304448
0.00973868
0.00104975
0.00223446
0.00048969
0.00077561
0.000642147
0.00027978
0.000117262
0.000338823
0.000106969
0.000236959
0.000205132
0.000141685
0.000152351
0.000132522
6.38644e-05
0.000107313
2.36364e-05
5.61299e-05
0.000106332
0.000105463
8.28254e-05
7.44756e-05
5.3909e-05
7.02635e-05
4.49775e-05
4.72764e-05
4.56163e-05
3.07317e-05
1.28857e-05
6.86871e-05
0.000207422
0.000342623
0.000334965
0.000279092
0.000310105
0.000325025
0.000345296
0.000336731
0.000347528
0.000244582
0.000270209
0.000280522
0.000284613
7.1544e-05
6.44315e-05
0.000188432
0.000148876
0.000132529
0.000144102
0.000304081
0.000215015
0.000274961
0.00019753
0.000374654
0.000370003
0.000325397
0.000332552
0.000213219
0.000203515
0.00027872
0.000288166
0.000323542
0.000336896
0.000337726
0.000334078
0.000313155
0.000346145
0.000334463
0.00031144
0.000270887
0.00029642
0.000303255
0.000269115
0.000390354
0.000277462
0.000309668
0.000345426
0.000366406
0.000239164
0.000158002
0.000195962
0.000124709
0.000133388
0.000139768
6.48635e-05
3.38308e-05
5.48219e-05
8.35309e-05
2.48834e-05
7.56683e-05
2.40789e-05
7.7272e-05
0.000142305
0.00013852
0.000104915
0.000234212
0.000199384
0.0001311
0.000115321
0.000207386
0.000302292
0.000229377
0.00022956
0.000287359
0.000232058
0.000318592
0.000352121
0.000318246
0.000297785
0.000278598
0.000300651
0.000323716
0.00030003
0.000300395
0.00018224
0.00014183
0.000107442
0.000142692
6.50908e-05
1.7733e-05
0.00020599
0.000272252
0.000205144
0.000196237
0.000111285
0.000475895
0.000493865
0.000362645
0.000392174
0.000396574
0.000301969
0.000336525
0.00025622
0.000322637
0.000191697
0.000256792
0.000542861
0.000944473
0.000651103
0.000322172
0.000509817
0.000321564
0.0164455
0.00557363
0.000982137
0.0150677
0.130291
0.00999882
0.00314436
0.00118058
0.00136287
0.000404349
6.79599e-05
9.52333e-05
4.79379e-05
6.22442e-05
9.12352e-05
0.000139341
0.000131199
0.000207774
0.000237861
0.000199026
0.000225442
0.000236566
0.000214328
0.000208826
0.000192327
0.000184628
0.0001521
0.000158944
0.000139638
0.000133307
0.000126709
0.000108063
0
0.00012525
0.00046978
0
0
0
0
0.000340231
0.000480876
0.00063695
0.051356
0
0
0
0.0378404
0
0.0146012
0.00102204
0.00375102
0.00166581
0.000522952
0.000827239
0.000632299
0.000363358
0.000162365
0.000582886
0.000297612
6.63902e-05
0.000219944
8.01364e-05
0.000108321
0.000174741
0.000134562
0.000119396
9.79185e-05
4.92154e-05
9.39865e-06
2.80978e-05
0.000109557
7.50524e-05
3.97811e-05
7.9356e-05
7.05799e-05
2.85411e-05
2.07365e-05
4.4666e-05
1.35318e-05
5.18769e-05
6.73935e-05
2.85519e-05
0.00030627
0.000286674
0.000271863
0.000322443
0.000368451
0.000429816
0.000312686
0.000324388
0.000283621
0.000254568
0.000236666
9.14838e-05
3.85068e-05
0.000116476
0.000146364
0.000148639
9.48401e-05
7.45095e-05
0.000150085
0.000337265
0.000296491
0.000318473
0.000339968
0.000347113
0.000324219
0.000332245
0.000337914
0.000348637
0.000314723
0.000322714
0.000313122
0.000376348
0.000427503
0.000358504
0.000322632
0.000357525
0.000369925
0.000406357
0.000395495
0.000358865
0.000361109
0.000319436
0.000364052
0.000251693
0.000287878
0.000209855
5.94272e-05
0.000133865
0.000174987
0.000343496
0.00021056
0.000427014
0.000370808
0.000471696
0.000385526
0.000362976
0.00022679
0.000119087
0.000246682
8.70852e-05
9.82853e-05
2.13811e-05
2.46269e-05
4.26838e-05
9.49127e-05
6.50946e-05
5.44514e-05
4.32076e-05
8.18657e-05
6.21966e-05
5.19479e-05
0.000146858
0.00011424
0.000207159
0.000184203
0.000167413
0.000207909
0.000193378
0.000250902
0.000197095
0.000246444
0.000263915
0.000240842
0.000300485
0.00025526
0.000281998
0.000256029
0.00030049
0.00029768
0.000297898
0.000296124
0.000321364
0.000293306
0.000274728
0.000155918
6.35181e-05
0.000169803
2.59959e-05
0.000121512
0.000140864
8.96244e-05
0.000319234
0.000225542
0.000271475
0.000205569
0.000455329
0.000479677
0.000409887
0.000334283
0.00037504
0.000317894
0.00034338
0.000435171
0.000302862
0.000407861
0.000653356
0.0014755
0.000420315
0.00048625
0.000314309
0.000350926
0.0656342
0
0.176142
0.229272
0.02039
0
0.00164113
0.00401651
0.00217875
0.00142303
0
0
0
0
0
0
0
0
0
0
0.00665316
0
0
0.00239891
0.00267147
0.00704204
0
0
0
0
0
0
0
0
0
0
0
0
0
0
8.51221e-05
4.93015e-05
2.40174e-05
5.29724e-05
7.17224e-05
0.00014395
0.000205459
0.000139473
0.000222954
0.000182912
0.000201657
0.000205435
0.000183689
0.000188501
0.000155695
0.000166579
0.000169619
0.000147147
0.000139411
0.000159857
0.000113105
0.000135999
0
0
0
0
0
0
0
0
0
0
0
0
0
0
0
0
0
0
0
0
0
0
0
0
0.158066
0.00561983
0.000647192
0.00315471
0.00129766
0.000811672
0.000384081
0.000561431
0.000488718
0.000299743
0.000111646
0.000361543
7.33402e-05
0.000224321
0.000190139
8.63097e-05
0.000147809
0.000102462
9.46707e-05
0.000118333
7.81449e-05
2.92536e-05
1.63827e-05
3.03764e-05
0.0024557
0
0
0
0
0
0
0
0
0
0
0
0
0
0
0
0
0.000116451
6.9205e-05
9.52217e-05
4.9826e-05
3.90765e-05
7.5242e-05
3.39287e-05
7.46138e-05
3.20786e-05
9.8895e-05
9.97963e-05
6.76301e-05
0.000268108
0.000341743
0.000405174
0.000275806
0.000456332
0.000349935
0.000400231
0.000438216
0.000186892
0.000233979
0.000368639
0.00026356
8.67269e-05
0.000115813
0.000141771
0.000113791
4.43436e-05
0.000179728
0.000212685
0.00015247
0.000292999
0.000317262
0.000311582
0.000299899
0.000315028
0.0003363
0.000296107
0.00026492
0.000256533
0.000249202
0.000324357
0.000355591
0.000374559
0.00033496
0.000321859
0.000401916
0.000334459
0.000323345
0.000483522
0.000382984
0.00033699
0.000452363
0.000347106
0.000369803
0.000374329
0.000423288
0.000381902
0.000385483
0.000340374
0.000243194
0.00030033
0.000120823
0.000172734
0.000193916
0.000221462
0.00011292
0.000363912
0.000275643
0.000429382
0.000492261
0.000431823
0.000382494
0.000238031
0.000411459
0.000183916
6.91112e-05
2.78377e-05
7.80529e-05
7.70997e-05
2.01111e-05
4.98982e-05
3.53212e-05
2.33845e-05
5.1184e-05
7.99664e-05
8.39931e-05
9.63872e-05
0.000122158
6.49119e-05
0.000103217
7.92985e-05
0.000173645
0.000176596
0.000157649
0.000256585
0.00021976
0.000127592
0.000225634
0.000258964
0.000264652
0.000280958
0.000283693
0.00025416
0.000265855
0.000287506
0.000261673
0.000267253
0.000256655
0.000260407
0.000277828
0.000249271
0.000249431
0.000245219
0.000231494
0.000233182
0.000245088
0.000236766
0.00025673
0.000224875
0.00022231
0.000217915
0.000220118
0.000219719
0.000235038
0.000212389
0.000251699
0.000238499
0.000275416
0.000241036
0.000226237
0.000241336
0.000258434
0.000228546
0.000234012
0.000221808
0.000235377
0.000214281
0.000212717
0.000210829
0.000204591
0.000195086
0.000186628
0.000180901
0.000168462
0.000179133
0.000174515
0.000163577
0.000149809
0.000162407
0.000146013
0.000152925
0.000217195
0.000316786
0.000196298
0.000159119
7.90365e-05
0.000109682
0.000109354
0.000263663
0.000315057
0.000431061
0.000550002
0.000265149
0.000396926
0.000451717
0.00036392
0.000504071
0.000346819
0.000485779
0.000474717
0.000478494
0.000493306
0.00045546
0.000360213
0.000808298
0.00153414
0.000322949
0.0010135
0.000293959
0.000327434
0
0
0
0
0
0
0.00726566
0.00492325
0.00657016
0.00313624
0
0
0
0
0.00755611
0
0
0
0
0
0
0
0
0
0
0
0
0
0
0
0
0.001226
0
0.00106443
0
0
0
0
0.00925351
0
0.00890743
0.0070752
0
0.00719095
0.00835039
0.01139
0
0
0
0
0
0
0
0
0
0
0
0
0
0
0
0
0
0
0
0
3.5054e-05
9.12188e-05
5.10652e-05
3.6064e-05
0.000140408
7.41556e-05
0.000139791
0.000187799
0.00015992
0.000188105
0.000177089
0.000177485
0.000175154
0.000179879
0.000152854
0.000141769
0.000118813
0.000180721
0.00019702
0.000175427
0.000197288
0.000164955
0
0
0.00392003
0.00288395
0
0
0
0
0.00692113
0
0
0
0
0
0
0
0
0
0
0.385731
0.00170331
0.00158319
0.000426644
0.0015202
0.000595144
0.000692174
0.00048834
0.000397338
0.000241452
0.000420205
0.000239942
9.61255e-05
0.000187522
9.31064e-05
0.000162407
8.93925e-05
8.86583e-05
0.000122399
7.37655e-05
0.000123299
9.50471e-05
3.07595e-05
5.46389e-05
4.6721e-06
0
0
0
0
0
6.43416e-05
0
0
3.55266e-05
0
0
0
0
0
0
0
0
0
0
0
0
0
0
0
0.539654
4.91639
8.18774e-05
0.000127132
6.0848e-05
0.000127494
5.77487e-05
0.000136522
0.000150505
4.88535e-05
7.01038e-05
0.000152791
9.20757e-05
0.000169578
0.000289946
0.0004108
0.000430462
0.000350338
0.000354077
0.000465822
0.000478414
0.000388844
0.000318927
0.000237923
0.00026599
0.000367489
0.000103536
0.000192306
0.000109146
0.0002088
0.000254009
0.000152426
0.000199728
0.000323873
0.000252638
0.000256486
0.000298767
0.000331633
0.000328487
0.000345756
0.000256486
0.000293585
0.000257952
0.000247894
0.000251557
0.000268026
0.000268603
0.000265451
0.000278951
0.000257415
0.00024178
0.000250168
0.000215181
0.000231555
0.00019965
0.000180268
0.000172751
0.000161958
0.000131879
0.000148355
0.00013671
0.000134317
0.000151228
0.000159242
0.000364675
0.000396294
0.000378465
0.000349044
0.000349491
0.000443444
0.000351734
0.000336887
0.000526829
0.000434939
0.000647178
0.000440456
0.000373368
0.000350038
0.000314741
0.000352034
0.000257009
0.000361445
0.000375224
0.000262208
0.000363418
0.000361739
0.000253778
0.000339798
0.000457247
0.000386425
0.000539445
0.000503061
0.000469092
0.000420287
0.000516377
0.000375292
0.000136103
0.000386757
6.18708e-05
0.000121381
0.00012239
2.69251e-05
5.54467e-05
4.4372e-05
3.76767e-05
7.32988e-05
5.92474e-05
5.10736e-05
8.75539e-06
6.48407e-05
0.000129648
0.000109807
0.000128095
0.000177174
0.000187632
0.000208373
0.00011687
8.76254e-05
0.000246748
0.000194598
0.000173611
0.000220241
0.000239845
0.000234686
0.000277177
0.00026776
0.000271561
0.000244489
0.000243411
0.000250455
0.000263929
0.000233666
0.000257957
0.000251331
0.000241369
0.000223588
0.000219961
0.000205065
0.000210314
0.00021801
0.000210728
0.000203078
0.00022247
0.000216331
0.000231658
0.000222586
0.000227623
0.000230087
0.000217161
0.000200608
0.000194303
0.000168673
0.000145856
0.000167525
0.00014214
0.000130324
0.000123368
0.000123486
0.000116174
0.000120153
0.000113277
0.000100593
0.000108436
9.17728e-05
0.000106107
8.50373e-05
9.57962e-05
0.000368937
0.000185974
0.000423445
0.000228213
0.000297291
5.46939e-05
0.000159443
0.00025279
0.000230956
0.00041982
0.000312134
0.00060262
0.000389341
0.000193946
0.00042509
0.000293201
0.000186921
0.000293408
0.000217539
0.000221357
0.000317046
0.000148908
0.000233895
0.000239254
0.000106184
0.0100853
0.0013232
0.00138371
9.95101e-05
0.000400331
0.000683929
0
0
0
0
0
0
0.16147
0
0.0188212
0
0
0.0103331
0
0
0
0
0
0
0
0
7.80158e-05
0
0
0
0
0
0
0
0
0
0
0
0
0
0
0
0
0
0
0
0
0
0
0
0
0
0
0
0
0
0
0
0
0
5.31039e-05
8.00673e-05
3.2507e-05
5.09594e-05
0.000136013
7.15112e-05
0.000163144
0.000130441
0.000160927
0.000154067
0.00018132
0.000180278
0.000214208
0.000195464
0.000169916
0.000187331
0.000142803
0.000172634
0.000187297
0.000196592
0.000206864
0.000187805
0.00234031
0
0.000193734
0
0
0
0
0
0
0
0
0
0
0
0
0
0
0
0
0.0133744
0.00393713
0.000992799
0.000794201
0.000998853
0.000708363
0.000509163
0.000445164
0.000401126
0.000219222
0.000383095
0.000237211
0.000124241
0.000190777
8.21126e-05
8.77548e-05
0.000145407
0.000124961
9.86073e-05
0.000123625
8.40508e-05
4.80693e-05
8.96816e-06
4.31916e-05
0.00010108
0
0
0
0
0
0
0
0
0
0
0
0
0
0
0
0
0
0
0
0
0
0
0.500291
0
0
0
0
0
0
0
0
0.000103969
0.000184127
0.000165969
7.39445e-05
5.91845e-05
0.000174442
0.000177173
6.86554e-05
0.00019196
0.000208992
0.000164964
0.000111602
0.000190998
0.000218292
0.000140506
0.000315254
0.000367179
0.000418204
0.000394587
0.000426355
0.000482305
0.000498857
0.000549857
0.000236196
0.000374028
0.000376545
0.00029618
0.000133147
0.000195562
0.000236157
0.000170175
0.000208055
0.000324975
0.000435461
0.000274222
3.0837e-05
5.89373e-05
6.30934e-05
7.24922e-05
6.51237e-05
6.76256e-05
7.92833e-05
7.89036e-05
6.5419e-05
9.21307e-05
5.77025e-05
9.41658e-05
3.37397e-05
7.68562e-05
6.71378e-05
8.25073e-05
7.51132e-05
7.52927e-05
5.78641e-05
7.26544e-05
6.8123e-05
6.4217e-05
6.72169e-05
6.23016e-05
5.47275e-05
5.9941e-05
7.07861e-05
5.91239e-05
5.89732e-05
0.000138151
0.000125684
0.000110749
0.000124329
0.000101998
9.01111e-05
0.000249949
0.000273276
0.000287213
0.00033173
0.000366854
0.000335214
0.000271388
0.000281807
0.000269603
0.000268733
0.000275436
0.000251384
0.000288891
0.000274428
0.000277858
0.000251433
0.000257475
0.000227514
0.000224002
0.000194111
0.000189052
0.000170357
0.000173023
0.000162876
0.000150486
0.000139072
0.00016031
0.000151637
0.000345335
0.000396148
0.000404834
0.000439197
0.000356049
0.000341036
0.000371435
0.000495131
0.000276112
0.000435279
0.000597412
8.44757e-05
7.51595e-05
6.87337e-05
5.94041e-05
6.48062e-05
6.07868e-05
5.58551e-05
5.67826e-05
5.77264e-05
4.36555e-05
6.44146e-05
6.14195e-05
6.03365e-05
8.11237e-05
8.15962e-05
9.5868e-05
9.54776e-05
9.24002e-05
0.000653054
0.000373023
0.000727701
0.000433336
0.0002537
0.000224761
0.000432447
0.000297157
0.000469435
0.000504786
0.000460758
0.000382637
0.000677076
0.000384388
0.000654235
0.000837549
0.000657554
0.000664535
0.000406861
0.000463455
0.000615673
0.000256194
0.00015099
2.84302e-06
3.27899e-05
0.000127333
0.000104299
0.000122594
5.52136e-05
7.93519e-05
3.76966e-05
5.38257e-05
8.4516e-05
0.000101986
0.000122274
8.04731e-05
0.000108367
5.55617e-05
0.000177502
0.000144665
0.000134927
0.000187194
0.000122747
0.000230608
0.000222848
0.000192961
0.0001624
0.000209328
0.000185565
0.000234267
0.000225064
0.000246613
0.000227609
0.000212791
0.000244477
0.000201756
0.000226086
0.000255781
0.000221113
0.000222988
0.000204084
0.000199928
0.000191475
0.000209348
0.000206559
0.000196896
0.000199344
0.000208346
0.000212825
0.000210864
0.000218714
0.000216171
0.000225963
0.000213584
0.000187893
0.00021267
0.000163786
0.000186259
0.000158936
0.000138849
0.000120336
0.000131262
0.000101317
0.000109232
9.25777e-05
0.000203928
0.000271961
0.000370684
0.000612159
0.000244646
0.000227461
0.0005586
0.000332504
0.000189742
0.000493285
0.000281632
0.000284648
0.000705678
0.000711682
0.000333035
0.000162441
0.000619776
0.000253498
0.00044283
0.000204679
0.000456456
0.000279857
0.00020724
0.000315471
0.000644625
0.00162169
0.00078755
0.00231422
0.0046902
0.0194481
0.000932389
0.00229582
0.00101883
0.000503838
0
0
0
0
0
0
0
0
0.0145456
0
0
0
0
0
0
0
0
0.203331
0
0
0
0
0
0
0
0
0
0
0
0
0.000136578
0
0
0
0
0.0117213
0
0
0
0
0
0
0
0
0
0
0
0
0
0
0
0
0
0
0
0.00203057
0
0
0
0
0.00222935
9.65336e-05
7.57653e-05
9.17512e-05
0.000155435
0.000134555
6.34224e-05
6.57151e-05
5.25441e-05
6.57535e-05
5.6261e-05
0.000105549
8.36847e-05
0.000146864
0.000142052
0.000164342
0.000178392
0.00017725
0.00018338
0.000198783
0.000197926
0.000216265
0.000219214
0.000216734
0.000213229
0.000209487
0
0
0
0
0
0
0
0
0
0
0
0
0
0.000351562
0.000401658
0.000357254
0
0
0
1.30689
0.000359551
0.00856447
0.00123693
0.000889709
0.000542976
0.00121751
0.000540354
0.000296993
0.000195495
0.000137326
0.000194845
5.04139e-05
6.94547e-05
3.64554e-05
0.00016904
0.000105039
0.000121613
0.000104332
0.000112532
0.000106043
0.000101382
7.01728e-05
9.12674e-05
0
0.000980766
0
0
0
0
0
0
0
0
0
0
0
0
0
0
0
0
0
0
0
0
0
0
0
0
0
0
0
0
0
0
0
0
0
0
0
0.000182846
0.00021747
0.000220294
0.000126553
0.000171621
0.000109969
0.000153079
0.000140932
0.00015949
0.000174353
0.000192764
0.00019492
0.000180566
0.000248383
0.000189948
0.000195294
0.000252765
0.000381091
0.000387721
0.000512725
0.000447066
0.000527012
0.000530296
0.00057283
0.000571611
0.000352177
0.000476737
0.000447549
0.000383676
0.000267424
0.000267456
0.000402776
0.000311664
0.000413739
0.000481979
0.00049465
0.000525462
6.83433e-05
6.55993e-05
6.9225e-05
2.51232e-05
0.00013283
0.000128207
0.000118018
0.000160231
7.5398e-05
8.40032e-05
8.12537e-05
7.06521e-05
7.03456e-05
7.41007e-05
4.91078e-05
5.69075e-05
0.000122417
0.000136337
0.000118637
0.000105865
9.04582e-05
0.00010062
0.000272088
0.000278677
0.000338255
0.000273637
0.000333334
0.000371058
0.000300535
0.00026884
0.000289395
0.000295592
0.000295945
0.000281938
0.000272339
0.000271709
0.000313671
0.000327168
0.000301787
0.00028264
0.000245144
0.00024375
0.000217281
0.000212116
0.000194541
0.000179761
0.000194018
0.000164277
0.000179512
0.00013542
0.000144142
0.000157847
0.000147923
0.000439585
0.000393179
0.000418558
0.000328711
0.000460128
0.000391894
0.000375146
0.000340669
0.0004036
0.000518683
0.000597991
0.000504083
7.29499e-05
8.8397e-05
7.99481e-05
6.17879e-05
7.03202e-05
6.07749e-05
5.59519e-05
5.67472e-05
5.95235e-05
5.94507e-05
5.85255e-05
6.62438e-05
7.04285e-05
8.19037e-05
6.85357e-05
8.1997e-05
9.86822e-05
0.000107854
0.000104978
5.93864e-05
5.95272e-05
5.69067e-05
0.000136087
0.00010785
0.000107167
0.000742572
0.000705586
0.000335812
0.00028538
0.000610321
0.000233242
0.000681293
0.000624423
0.000635596
0.000640644
0.000606102
0.000793492
0.00067952
0.00103749
0.00091467
0.000652934
0.000562986
0.000656466
0.000292455
0.000472386
0.000417657
0.000205449
6.37056e-05
0.000191234
0.000164112
0.00010751
9.35482e-05
0.000113819
9.81448e-05
8.50085e-05
6.68982e-05
7.71387e-05
3.43376e-05
4.70774e-05
0.000147943
9.92721e-05
0.00012116
0.000132781
0.000116791
0.000125963
0.000204849
0.000147009
0.000124582
6.65578e-05
0.00017285
0.00021724
0.000179727
0.000175334
0.000187625
0.000219122
0.000203614
0.000212257
0.000190147
0.000207047
0.000217504
0.000235663
0.000226975
0.000208292
0.000180892
0.000197296
0.000189083
0.000186312
0.000189379
0.000174849
0.00019381
0.000207249
0.000190087
0.000191777
0.000203507
0.000206475
0.000201709
0.000206463
0.000196174
0.000190117
0.000177293
0.000169432
0.000148618
0.000120922
0.00014187
0.000103458
0.000114356
9.62125e-05
0.00204614
0.000968673
0.000990583
0.000666562
0.000352017
0.000441044
0.000559688
0.000842597
0.000917244
0.000116956
0.000533467
0.000336048
0.00109403
0.000247029
0.00112608
0.00115805
0.000418149
0.00564497
0.0190844
0.00111291
0.000949021
0.000910534
0.00186912
0.000389458
0.0015344
0.0180806
0.0110759
0.0102987
0.0235088
0.0186369
0.0867195
0.0107716
0.0200389
0.00414422
0.00654757
0.0129408
0
0
0
0
0
0
0.288541
0
0
0.422884
0
0
0
0
0
0.254984
0
0
0
0
0.00319528
0
0
0
0
0
0
0
0.00485047
0.00388166
0
0
0.00414888
0.00799717
0
0
0
0
0.00527116
0
0.0068504
0
0
0
0
0
0
0
0
0
0
0
0
0
0
0
0
0
0.00348594
0
0
0
0
0
0
0
0
2.17942e-05
0.00017933
0.000146332
0.000131767
0.000118086
0.000180856
0.000136121
0.00011841
0.000204215
7.50224e-05
9.44558e-05
8.71463e-05
6.61476e-05
9.55411e-05
0.000112483
0.000126927
0.000134965
0.000122769
0.000166555
0.000150462
0.000194259
0.000189545
0.000233628
0.00021699
0.000231925
0.000249372
0.000237544
0
0
0
0
0
0
0
0.00037723
0.000301336
0.000360412
0
0
0
0
0.00042614
0.000608537
0.0312257
0.599359
0.0148169
0.00988112
0.000211845
0.00237343
0.000394327
0.00103771
0.000669235
4.88191e-05
8.97021e-05
8.35167e-05
0.000230144
0.000183688
0.000166974
0.000151104
9.96073e-05
9.04086e-05
0.000117295
0.000130028
0.00010721
0.000117402
0.000127816
0.000121213
0.000124646
0
0
0.000928145
0
0
0
0
0.00189019
0
0
0
0
0
0
0
0
0
0
0
0
0
0
0
0
0
0
0
0
0
0
0
0.0322499
0
0
0
0
0
0
0
0
0
0
0
0
0
0.000195849
0.000230934
0.000226731
0.000224253
0.000242734
0.0001824
0.000171346
0.000161274
0.000193747
0.000228154
0.000167545
0.000254009
0.000172456
0.000212251
0.000227802
0.000309579
0.000220442
0.000343197
0.000371178
0.000481665
0.000443117
0.000533756
0.000548062
0.000579713
0.000556234
0.000593299
0.000627064
0.000496946
0.000510957
0.000488185
0.000479935
0.000480547
0.00054244
0.000561698
0.000512393
0.00052617
0.000551902
0.000588558
0.000580713
2.91857e-05
0.000103025
8.58659e-05
0.000174808
6.7338e-05
4.6109e-05
0.000212632
0.000226206
0.000292752
0.00022205
0.000224487
0.000167505
0.000131217
0.000137446
9.20154e-05
8.33878e-05
8.57702e-05
8.10645e-05
8.68869e-05
7.63572e-05
9.71753e-05
9.14543e-05
0.000119604
0.000128718
0.000108419
0.000116546
0.000103073
9.86654e-05
0.0002704
0.000298455
0.000326318
0.000271142
0.00036944
0.000311542
0.000296944
0.000269624
0.000306851
0.000309576
0.000282781
0.00030313
0.000311941
0.000273114
0.000311
0.000340971
0.000246914
0.000271445
0.000222699
0.000241741
0.000219049
0.000199467
0.000194601
0.000180007
0.000162157
0.000171332
0.000139087
0.000134253
0.000149121
0.000152761
0.000423721
0.00046339
0.000391541
0.000357771
0.000362616
0.000423051
0.000353956
0.000360502
0.000486129
0.000454616
0.000490366
0.000589044
8.89465e-05
8.46508e-05
7.44331e-05
6.28897e-05
7.18469e-05
5.88502e-05
6.23663e-05
6.55235e-05
6.27033e-05
6.79566e-05
6.37319e-05
6.81075e-05
7.32222e-05
8.10812e-05
7.63219e-05
9.56376e-05
0.000100759
0.000108589
0.000106206
0.000138926
0.000104719
6.72717e-05
6.00053e-05
0.00010936
0.000108624
0.00116496
0.00074025
0.000321832
0.000794785
0.000343631
0.000632956
0.0010355
0.000794275
0.000992817
0.00115012
0.00124443
0.00140975
0.00145045
0.00119798
0.000981913
0.00109685
0.000308795
0.000791948
0.000242553
0.000338144
0.000324848
0.000154514
3.18497e-05
0.000234466
3.66728e-05
9.64118e-05
0.000151466
0.00026875
4.86307e-05
1.72454e-05
7.33229e-05
3.96805e-05
5.05869e-05
5.86767e-05
7.01093e-05
0.000102362
9.00784e-05
0.00014134
0.000169694
0.000111983
0.000125006
0.000135906
0.000158159
0.000155878
0.000194442
0.000182124
0.000121604
0.000169475
0.000180555
0.000206536
0.000181358
0.000201272
0.000163973
0.000176317
0.000207422
0.000185914
0.000180771
0.000168756
0.000187701
0.000174282
0.000178623
0.00016616
0.000185297
0.000188925
0.000194588
0.000197244
0.000191428
0.000193714
0.000186805
0.000198913
0.000191799
0.00017842
0.000179748
0.000157
0.00016284
0.000127117
0.000102541
0.000134485
8.8318e-05
0.0328207
0.0167979
0.0238359
0.0123945
0.00249822
0.0013217
0.00134421
0.000694062
0.00100771
0.00100328
0.00117813
0.000711212
0.000256155
0.000457772
0.00132285
0.00163444
0.000423565
0.0009976
0.00163024
0.00654373
0.00192455
0
0
0.0036036
0.316744
0.0060121
0.0164574
0.0549371
0.0466017
0
0
0
0
0
0
0.24838
0
0
0
0
0
0
0.649531
0
0
0
0
0
0
0
0
0
0
0
0
0
0
0
0
0
0
0
0
0
0
0
0
0
0
0
0
0
0
0
0
0
0
0
0
0
0
0
0
0
0
0
0
0
0
0
0
0
0
0
0
0
0
0
0
0
0
0
0
0
0
0
0
0
0
0
0
0
6.96607e-05
0
0
0
0
9.97703e-05
0.000187911
0.000135062
0.000187912
9.75105e-05
0.000109784
0.000159762
0.000102717
0.000278833
0.000233144
0.000217032
0.000293212
0.000131801
0.000184408
6.07451e-05
7.30789e-05
9.26915e-05
0.000139124
9.82539e-05
0.00012534
0.000129692
0.000124231
0.000183898
0.000170141
0.000241817
0.00022277
0.000228369
0.000257562
0.000228642
0
0
0
0
0.000458061
0.00031211
0.000359625
0
0
0.000300565
0.000551872
0
0.0483488
0
0
0.00103623
0.000326424
0.0130026
0.00758095
0.00267348
0.0101796
0.000312076
0.000653169
0.000351391
9.21015e-05
9.06245e-05
0.000105536
0.000104837
6.8129e-05
0.000244886
0.000208948
0.000183046
0.00016611
0.000119086
0.000113985
0.000123787
0.000139843
0.000107949
0.000139693
0.000124489
0
0
0
0
0
0
0
0
0
0
0
0.221498
0
0
0
0.0192021
0.00893234
0.128182
0
0
0.0427882
0
0
0
0
0
0
0
0
0
0
0
0
0
0
0
0.0097502
0
0.00325039
0
0
0
0
0
0
0
0
0
0
0
0.0180595
0
0
0
0
0
0
0.000240855
0.000264636
0.000275092
0.000308341
0.000272464
0.000274017
0.000237992
0.000217948
0.000187698
0.000210228
0.00017829
0.000253467
0.000200429
0.000272757
0.000324088
0.000180731
0.000203812
0.000390492
0.000423308
0.000591369
0.000433215
0.000632159
0.000642653
0.000708953
0.000587825
0.000590215
0.000631168
0.000728118
0.00064857
0.000656304
0.000637219
0.000733502
0.000747361
0.000575897
0.000515647
0.000598083
0.000635321
0.000683182
0.00079677
0.000821194
0.00086253
0.00013274
0.000115932
0.000104193
0.000401872
0.000332375
0.000417399
0.000297458
0.000403269
0.000225421
0.000244834
7.85291e-05
0.00012265
0.000176635
9.21074e-05
9.782e-05
8.4183e-05
9.62872e-05
8.53369e-05
7.86845e-05
9.89793e-05
0.00011808
0.000131897
0.000122829
0.000111383
0.000120915
0.000110169
0.000103662
0.000288644
0.000286024
0.00032376
0.000282139
0.00030654
0.000336305
0.000273758
0.000302372
0.000325661
0.000325645
0.000306393
0.000314141
0.000314887
0.000269271
0.000356696
0.000317795
0.000269962
0.000241443
0.000218111
0.000238613
0.000206932
0.000195511
0.000180667
0.000178045
0.000164483
0.000161566
0.000137356
0.000141183
0.000150418
0.00014966
0.000452543
0.000425303
0.000350887
0.000364339
0.000390265
0.000377083
0.000366553
0.000343016
0.000474892
0.000479669
0.000506825
0.000575122
0.000673538
0.000662811
0.000620038
0.000102399
8.48568e-05
6.38462e-05
7.85336e-05
6.13323e-05
6.89783e-05
6.61848e-05
7.98702e-05
7.37639e-05
7.36064e-05
7.6222e-05
7.6209e-05
9.66892e-05
8.46827e-05
8.63053e-05
8.47548e-05
0.000106363
9.68327e-05
0.000114793
0.000111126
0.000136092
0.000128797
7.9418e-05
8.25547e-05
0.000154327
0.000110958
0.00199197
0.000921308
0.000766933
0.000733351
0.000631704
0.00085544
0.00093097
0.00135624
0.00128376
0.00213923
0.00256189
0.00165099
0.00129746
0.00162623
0.00103364
0.000711324
0.00114478
0.000492706
0.000281365
3.31615e-05
0.000329704
5.26824e-05
0.000320009
6.21506e-05
0.000112673
0.000211467
0.000210869
0.000410686
7.84076e-05
0.000112859
6.99602e-05
3.30061e-05
0.000104063
0.000100646
6.29456e-05
4.2259e-05
7.68297e-05
9.18273e-05
9.4218e-05
0.00013153
9.79076e-05
0.000122568
0.000112442
0.000171909
0.00018089
0.000150851
0.000149637
0.000144453
0.000169347
0.000170405
0.000187704
0.000173254
0.000180673
0.000174085
0.000163919
0.0001801
0.000179198
0.000178256
0.000184785
0.000166782
0.00017803
0.000164101
0.000193081
0.00018292
0.000186175
0.000192499
0.000186654
0.000195453
0.000194807
0.00018043
0.000186503
0.000172021
0.000177276
0.000148411
0.000127932
0.00015578
0.000107429
0.000124578
0.370213
0
0.063879
0.134564
0.114842
0.0255176
0.0752301
0.0081245
0.117669
0.00201179
0.00127333
0.0236962
0.00388742
0.000997137
0.000598101
0.00101759
0.00107852
0.000636147
0.0015634
0.00147686
0.00188159
0
0
0
0
0
0.0201593
0
0
0
0
0
0
0
0
0.236171
0
0
0
0.0125085
0
0
0
0
0
0
0
0
0
0
0
0
0
0
0
0
0
0
0.00934771
0
0
0
0
0
0.00185499
0.00243319
0.00398471
0
0
0
0
0
0
0
0
0
0
0
0
0
0
0
0
0
0
0
0
0
0
0
0
0
0
0
0
0
0
0
0
0
0
0
0
0
0
0
0
0
0.00547487
0
0.00285723
0
0.0102433
0
0
0
0.000116634
0.000128658
0.000121465
0.000214535
0.000162844
0.000208376
0.000165258
6.06831e-05
0.000184387
0.000222233
3.07363e-05
0.000174053
0.000214123
0.000254091
0.000220195
0.000272555
0.000185455
0.000159357
0.000131953
7.92185e-05
9.84619e-05
0.000106661
0.000109161
0.000106129
0.000116083
0.000114721
0.000169925
0.000154142
0.000197335
0.000213107
0.000220523
0.000213698
0.000233469
0
0
0.00036086