/*--------------------------------*- C++ -*----------------------------------*\
  =========                 |
  \\      /  F ield         | OpenFOAM: The Open Source CFD Toolbox
   \\    /   O peration     | Website:  https://openfoam.org
    \\  /    A nd           | Version:  8
     \\/     M anipulation  |
\*---------------------------------------------------------------------------*/
FoamFile
{
    version     2.0;
    format      ascii;
    class       volScalarField;
    location    "19260";
    object      nut;
}
// * * * * * * * * * * * * * * * * * * * * * * * * * * * * * * * * * * * * * //

dimensions      [0 2 -1 0 0 0 0];

internalField   nonuniform List<scalar> 
526318
(
0.0001049
0.000120668
0.000151108
0.000203188
0.000202264
0.000198688
0.000300964
0.000362554
0.000223284
0.000383542
0.000182134
0.000172161
0.00016786
0.000211492
0.00027272
0.000221282
0.000247087
0.000200099
0.000276662
0.000165744
0.000249458
0.000228907
0.000296635
0.000307977
0.000282076
0.000158737
0.000150512
0.000457177
0.000265565
1.29231e-05
9.21783e-05
0.000138075
0.000108556
0.000251886
0.000226249
0.000288425
0.000223265
0.000219326
0.000247676
0.00033273
0.000258677
0.000287191
0.000363438
0.000223887
0.000177581
0.000372322
0.000152894
0.000410302
0.000383304
0.00020514
0.00032897
0.000267041
0.000240994
0.000303348
0.00034623
0.000277338
0.000422813
0.000229779
0.000278522
0.00024841
0.000223428
0.000319679
0.000314254
0.000188012
0.000196648
0.000282452
0.000323717
0.000321572
0.000415822
0.000359833
0.000326346
0.000393774
0.000404839
0.000462231
0.000447533
0.000468821
0.000434243
0.00051166
0.000510224
0.000496922
0.00050817
0.000455512
0.000485132
0.000552188
0.000550272
0.000460883
0.000494937
0.000487418
0.000524852
0.000408315
0.000543879
0.000432666
0.000260378
0.000276853
0.000439068
0.000372545
0.000476747
0.000336167
0.000281717
0.000345335
0.000171292
0.00037733
0.000319822
0.000284034
0.000257957
0.000246462
0.000294302
0.000292153
0.000252136
0.000321807
0.000300855
0.000252926
0.00034871
0.000342608
0.000265082
0.000197213
0.000198043
2.98601e-05
3.35813e-05
0.000188404
0.000228697
0.000213375
0.000280384
0.000160247
0.000128725
0.000118872
0.000176098
9.78809e-05
8.23533e-05
0.00012506
0.000167067
0.000113548
6.83729e-05
6.71262e-05
8.35762e-05
4.92049e-05
8.61243e-05
6.68957e-05
8.05702e-05
5.01777e-05
5.4942e-05
5.71621e-05
6.46334e-05
4.55879e-05
5.86943e-05
7.32767e-05
8.75521e-05
0.000101829
0.000119589
8.87905e-05
6.93712e-05
0.000109937
0.000197306
0.000245196
0.000168436
0.000355447
0.000186408
0.000171473
0.000221351
0.000161247
0.000264648
0.000100296
0.000318994
0.000361455
0.000327468
0.00033771
0.000293846
0.000481368
0.000410579
0.000509091
0.000504607
0.000555517
0.000510441
0.000501675
0.00056867
0.000482699
0.000434455
0.000436377
0.000441647
0.000396124
0.000410838
0.000297361
0.000361679
0.000238826
0.000285657
0.000236904
0.000184606
0.000110238
0.000178407
0.00012037
0.000104025
5.55298e-05
8.31236e-05
6.31567e-05
5.38438e-05
0.00012785
7.64684e-05
0.000102923
0.000143065
0.000121485
9.08847e-05
0.00034338
0.000282604
0.000127139
0.000190577
0.000284007
0.000273298
0.000219164
0.00023081
0.000222809
0.000199406
0.000312679
0.00023498
0.000262754
0.00019676
0.000252114
0.000245071
0.000271486
0.000157224
0.000429948
0.000197279
0.000235807
0.000446525
0.000436587
0.000338447
0.00034632
0.00030588
0.000254691
0.000326579
0.000334277
0.000211463
0.000189151
0.000469643
0.000454067
0.00023719
0.000357402
0.000253052
0.000316742
0.000159781
0.00019052
0.000259744
0.000156586
0.000170724
0.000258146
0.000351975
0.000431363
0.00031539
0.000396741
0.000463039
0.00042151
0.000492501
0.000432854
0.000463272
0.000454289
0.000395452
0.000345364
0.000363052
0.000252872
0.000272773
0.000202601
0.000197602
8.32212e-05
0.000117305
0.000232339
0.000190743
0.000242073
0.000334413
0.000318854
0.000194132
0.000159522
0.000339686
0.000156546
0.000346951
0.000351394
0.000278759
0.000347236
0.000303382
0.000152908
0.000249184
5.9339e-05
0.000146069
0.000138124
0.00013662
0.000100885
8.65886e-05
5.27787e-05
7.33764e-05
4.12629e-05
4.41574e-05
4.19184e-05
2.78923e-05
1.14885e-05
6.19403e-05
0.00016159
0.00027904
0.000291811
0.000260851
0.000319331
0.000315817
0.000313537
0.000303812
0.000277759
0.000191171
0.000233182
0.000267976
0.000235074
6.3759e-05
5.71431e-05
0.000160013
0.000123814
0.000103621
0.000111985
0.000220555
0.000154708
0.000201603
0.000140061
0.000336974
0.000356305
0.000292739
0.000322863
0.000360473
0.000326596
0.000385911
0.000454063
0.000452887
0.000510577
0.000520761
0.000504854
0.000482337
0.000531771
0.000451278
0.000366588
0.000283348
0.000301575
0.000350101
0.000281938
0.000398128
0.000342709
0.000317866
0.000384784
0.000370675
0.000240343
0.000161495
0.000198009
0.000128394
0.000136787
0.00014327
6.63867e-05
3.45524e-05
5.60115e-05
8.6154e-05
2.55959e-05
7.92087e-05
2.51934e-05
8.1054e-05
0.000144122
0.000143989
0.000105912
0.000226413
0.000192133
0.000132196
0.000122243
0.000216668
0.000304681
0.000224724
0.0002355
0.000315279
0.000253857
0.000356085
0.000369149
0.00035227
0.00033913
0.000337557
0.000336351
0.000367081
0.000353084
0.000373226
0.00027176
0.000235304
0.000158814
0.000222936
0.00011181
3.32733e-05
0.000344184
0.000372243
0.00033195
0.000274824
0.000159889
0.000446441
0.000418405
0.000325928
0.000341246
0.000428648
0.000395927
0.000394051
0.000335631
0.000422465
0.000259121
0.000335867
0.000147988
0.000390376
0.000388578
0.000131025
0.000362912
0.000178474
4.82642e-05
0.000149712
1.41606e-05
5.76489e-05
1.1099e-06
0.000286447
0.000378356
0.000349235
0.000281445
8.97766e-05
0.00017261
0.000239642
0.000125596
0.000161025
0.000230213
0.00034133
0.000292826
0.000419157
0.000441733
0.000372307
0.000409718
0.000432554
0.000380873
0.000369206
0.000331245
0.000319349
0.000245705
0.000271457
0.000214165
0.000188846
0.000164496
0.000131745
0
2.87441e-11
1.07812e-10
0
0
0
0
7.80814e-11
1.10359e-10
1.46177e-10
0.000128362
0
0
0
2.90796e-05
0
0.000104402
2.73117e-05
0.000110133
0.000147114
0.000238895
0.00020642
0.000365214
0.000199219
0.000133974
0.000348198
0.000352464
0.000100791
0.000339948
0.000141106
0.000250955
0.000355554
0.000316741
0.000281626
0.000234016
0.000121788
2.41027e-05
7.3662e-05
0.000124809
8.54839e-05
4.19169e-05
8.75758e-05
7.03451e-05
2.65672e-05
1.90114e-05
4.10849e-05
1.22702e-05
4.77654e-05
5.6795e-05
2.37881e-05
0.000229089
0.000221458
0.000232322
0.00026171
0.000282738
0.000362575
0.000260265
0.000279937
0.000205493
0.000181226
0.000175985
6.98449e-05
2.94401e-05
8.14162e-05
0.000104148
0.000104004
6.74491e-05
5.1008e-05
0.000102559
0.000397998
0.000334944
0.00035977
0.000384881
0.000405563
0.000447141
0.000429357
0.000423995
0.000360829
0.000351364
0.00035132
0.000343346
0.000345266
0.000349109
0.000402144
0.000434963
0.000400955
0.000419261
0.000445835
0.000496867
0.000433939
0.000492463
0.000457084
0.000462658
0.000310622
0.000374799
0.000224183
6.03869e-05
0.000136133
0.000178099
0.0003005
0.000203367
0.000360852
0.000284722
0.00034754
0.000355753
0.000336606
0.000227515
0.000119611
0.00025004
8.78613e-05
9.91382e-05
2.15782e-05
2.48992e-05
4.36814e-05
9.67139e-05
6.80844e-05
5.64628e-05
4.54274e-05
8.58256e-05
6.83179e-05
5.55294e-05
0.000164077
0.000127946
0.000212805
0.000184197
0.00018721
0.000226608
0.000205814
0.000275528
0.000209169
0.000257655
0.000300141
0.000264453
0.000388625
0.00033342
0.000342465
0.000331021
0.000394438
0.000370964
0.00042642
0.000407251
0.000486913
0.000457623
0.000444466
0.00022321
9.09557e-05
0.0002442
3.51658e-05
0.000159995
0.000177337
0.000128779
0.000367435
0.000247094
0.000324922
0.000254097
0.000314276
0.000369739
0.000365096
0.000371688
0.00043458
0.000394014
0.000363614
0.000430488
0.000280917
0.000341239
9.44867e-05
0.000295252
0.000191419
0.000126814
0.000188824
0.000242801
1.10177e-05
0
1.32128e-06
1.43719e-06
0.000187608
0
0.000263539
0.000178961
0.000244388
0.000161924
0
0
0
0
0
0
0
0
0
0
1.74757e-09
0
0
6.29929e-10
7.01495e-10
1.8492e-09
0
0
0
0
0
0
0
0
0
0
0
0
0
0
0.000215227
0.000125909
6.27726e-05
0.000137262
0.000180825
0.000334551
0.00038177
0.000287423
0.000397275
0.000323967
0.000347431
0.000356392
0.000314929
0.000321522
0.000264269
0.00028224
0.000265915
0.000221932
0.00018146
0.000221069
0.000124753
0.000159879
0
0
0
0
0
0
0
0
0
0
0
0
0
0
0
0
0
0
0
0
0
0
0
0
1.67129e-05
7.06888e-05
3.75104e-05
0.000149802
9.57626e-05
0.00013925
0.000243742
0.000222656
0.000321018
0.000198038
0.000127597
0.000305614
0.000114968
0.000331066
0.000308883
0.000161629
0.000316434
0.000241199
0.000226189
0.000278403
0.000193103
7.48919e-05
4.1391e-05
7.61205e-05
6.37831e-10
0
0
0
0
0
0
0
0
0
0
0
0
0
0
0
0
0.000128398
7.62036e-05
0.000105198
5.16954e-05
3.52824e-05
7.26056e-05
2.84452e-05
6.18132e-05
2.47196e-05
7.58198e-05
7.00484e-05
4.71016e-05
0.000198338
0.000250788
0.000274026
0.00020053
0.000328448
0.000276801
0.000306166
0.000335887
0.000122515
0.000144301
0.000226896
0.000177433
5.94039e-05
7.95254e-05
9.24202e-05
7.49687e-05
2.68701e-05
0.000106123
0.000115725
8.39929e-05
0.000465353
0.000480519
0.000499615
0.00048679
0.000476332
0.000478054
0.000532096
0.000490474
0.000515361
0.00050699
0.000341481
0.000401443
0.000458062
0.000465792
0.000338024
0.000384318
0.000340302
0.000328997
0.000364895
0.00031923
0.000308156
0.0003353
0.000380309
0.000405349
0.000409093
0.000465673
0.00043499
0.000421195
0.000380433
0.000279916
0.000280347
0.000111502
0.00013192
0.000174277
0.000196249
9.26798e-05
0.000270758
0.000214113
0.000296758
0.000354274
0.000297475
0.000312081
0.000218888
0.00033399
0.000168998
6.93842e-05
2.78845e-05
7.85165e-05
7.77756e-05
2.04111e-05
5.19358e-05
3.6612e-05
2.49836e-05
5.40166e-05
8.79687e-05
9.11664e-05
0.00010878
0.000137545
7.31222e-05
0.000116535
9.06835e-05
0.000197553
0.000213107
0.000182353
0.00028169
0.000240523
0.000155543
0.000260613
0.000302977
0.000330291
0.000372858
0.000376851
0.000338148
0.000353486
0.000401421
0.00039361
0.000440261
0.000433605
0.000446084
0.000460995
0.000499101
0.000461181
0.000533094
0.000527134
0.000525909
0.000579906
0.000598001
0.000551266
0.00053625
0.000544223
0.000581615
0.000619755
0.000637544
0.00069593
0.000649814
0.000725607
0.000730386
0.000805174
0.000764021
0.000719316
0.000806437
0.00083626
0.000783537
0.00082924
0.000775911
0.000784087
0.000759203
0.00077276
0.000740095
0.000716094
0.000726503
0.00067982
0.000679672
0.000596931
0.000635378
0.000657511
0.000597916
0.000523954
0.000568256
0.000526474
0.000567864
0.00022651
0.00031253
0.000256218
0.000205279
9.74652e-05
0.00013491
0.000133178
0.000213237
0.000329619
0.000249995
0.000340589
0.000202159
0.000295737
0.000256235
0.000250326
0.000331256
0.000324871
0.000377437
0.000366314
0.00030719
0.000313714
0.000297626
0.000243771
0.000146729
0.000159664
0.000136942
0.00023259
0.000125098
0.000123107
0
0
0
0
0
0
0.000103941
0.000436426
0.00031529
0.000183424
0
0
0
0
2.94224e-09
0
0
0
0
0
0
0
0
0
0
0
0
0
0
0
0
2.53317e-10
0
2.17718e-10
0
0
0
0
1.96487e-09
0
1.89079e-09
1.50369e-09
0
1.52617e-09
1.774e-09
2.41751e-09
0
0
0
0
0
0
0
0
0
0
0
0
0
0
0
0
0
0
0
0
8.72917e-05
0.000224545
0.000122136
8.56829e-05
0.000303425
0.000173964
0.000263191
0.000326498
0.000272609
0.000322612
0.000303611
0.00030306
0.000275103
0.000284447
0.000192198
0.000167035
0.000130935
0.000261355
0.000284766
0.000234974
0.000264493
0.000220677
0
0
1.03132e-09
7.58717e-10
0
0
0
0
1.82087e-09
0
0
0
0
0
0
0
0
0
0
7.9041e-06
0.00014349
3.79307e-05
4.29742e-05
0.00015136
0.000156639
8.53154e-05
0.000225951
0.000261987
0.000205608
0.000276336
0.000272235
0.000141792
0.000289324
0.000149369
0.000291755
0.000186126
0.000199792
0.000268561
0.00017076
0.000263208
0.000215708
7.34721e-05
0.000123424
1.0545e-05
0
0
0
0
0
1.86097e-11
0
0
1.02754e-11
0
0
0
0
0
0
0
0
0
0
0
0
0
0
0
5.95832e-07
9.93883e-07
8.63301e-05
0.000134193
5.57323e-05
0.000120686
4.32747e-05
0.000107123
0.000104323
3.37166e-05
4.81474e-05
0.000106048
6.00522e-05
0.000111406
0.000179191
0.000254547
0.000253224
0.000223647
0.000266177
0.000324103
0.000360804
0.000292533
0.000163692
0.000127855
0.00015687
0.000207289
5.95339e-05
0.000111193
5.60689e-05
0.000105167
0.000123611
7.67287e-05
0.000102323
0.000165252
0.000537611
0.000545502
0.000507255
0.000500572
0.000486084
0.000502544
0.000543176
0.000557354
0.000660868
0.000690407
0.000624144
0.000608072
0.000759909
0.000736403
0.000831179
0.00080552
0.000780039
0.000808049
0.000713303
0.000747118
0.000680667
0.000630082
0.000602402
0.000564373
0.000467491
0.00051905
0.000478526
0.000490879
0.000524305
0.000549191
0.000416549
0.000401888
0.000484262
0.00049709
0.000354159
0.000410408
0.00035605
0.000341981
0.000388706
0.000356169
0.000378124
0.000361551
0.000244212
0.000383202
0.000312697
0.000387385
0.000279169
0.00039464
0.000340941
0.000198048
0.000233867
0.000225754
0.000163416
0.000236306
0.000272476
0.000223022
0.000262588
0.000300242
0.000332407
0.000292924
0.000304253
0.000273464
0.000112833
0.000289816
5.67927e-05
0.000100478
0.000109825
2.66806e-05
5.8139e-05
4.49174e-05
4.04975e-05
7.9011e-05
6.51471e-05
5.50345e-05
9.98379e-06
7.497e-05
0.000150568
0.000129913
0.000153397
0.000212976
0.000237843
0.000268588
0.000147938
0.000109642
0.000311161
0.000243165
0.000223077
0.000289972
0.000338436
0.000327443
0.000368075
0.000372578
0.00037603
0.000355257
0.000371575
0.000416876
0.000456673
0.000406536
0.000455413
0.000483221
0.000516301
0.000522125
0.000523187
0.000562984
0.000499511
0.000550414
0.00062789
0.000621319
0.000681277
0.000687744
0.000773938
0.000779685
0.000805126
0.000816557
0.000790351
0.000750714
0.000744078
0.000646051
0.000558203
0.000641474
0.000544214
0.000490743
0.000437663
0.000465047
0.000424842
0.000420178
0.0003964
0.000362999
0.000403514
0.000345006
0.000371629
0.000315769
0.000342074
0.000262484
0.000129314
0.000340814
0.000210448
0.000223209
4.67748e-05
0.000172634
0.000244353
0.000236748
0.000317935
0.000191493
0.000344783
0.0002221
0.000137252
0.000297014
8.87021e-05
7.79783e-05
0.000188334
0.000108562
0.000141034
0.000202724
9.6772e-05
0.000148754
0.000157359
7.23363e-05
0.000255716
0.00010751
0.000180943
2.56191e-05
0.000111401
0.000189541
0
0
0
0
0
0
3.70899e-05
0
0.000202017
0
0
4.0224e-09
0
0
0
0
0
0
0
0
1.72232e-11
0
0
0
0
0
0
0
0
0
0
0
0
0
0
0
0
0
0
0
0
0
0
0
0
0
0
0
0
0
0
0
0
0
0.000119113
0.000179734
7.17073e-05
0.000112314
0.000275539
0.000156245
0.000279639
0.000242567
0.000260761
0.000249023
0.000271129
0.000263117
0.000287905
0.000262087
0.000199352
0.00018458
0.000134945
0.000216315
0.000251199
0.000263864
0.000277546
0.000252052
6.15781e-10
0
5.09753e-11
0
0
0
0
0
0
0
0
0
0
0
0
0
0
0
0
7.03394e-05
0.000160528
9.95274e-05
0.00010786
0.000110052
0.000177251
0.000214963
0.000271705
0.00026371
0.000209933
0.000266308
0.000286995
0.000184449
0.000271864
0.000137053
0.000182303
0.000266176
0.000252843
0.000199612
0.000247685
0.00017484
0.000106912
1.98842e-05
9.63304e-05
0.000217574
0
0
0
0
0
0
0
0
0
0
0
0
0
0
0
0
0
0
0
0
0
0
4.80803e-07
0
0
0
0
0
0
0
0
8.76218e-05
0.000155379
0.000130585
5.57558e-05
4.08334e-05
0.000125938
0.000119331
4.60117e-05
0.00017548
0.000171666
0.000129752
6.40797e-05
0.000112415
0.000109544
7.08979e-05
0.000185278
0.000216673
0.000241536
0.000248339
0.000304835
0.000312503
0.000348545
0.000371521
0.000127147
0.00019192
0.000199372
0.000164561
6.20673e-05
9.0803e-05
0.00011027
8.15609e-05
0.000103551
0.000157059
0.000192212
0.000123442
0.00012108
0.000232643
0.000255912
0.000289211
0.000269427
0.000276606
0.000330969
0.000327512
0.000285503
0.000398346
0.000240298
0.000411694
0.000143651
0.000341616
0.000256021
0.000300672
0.000278703
0.000292784
0.000221312
0.000269954
0.000253627
0.000251222
0.000264487
0.000239207
0.000206442
0.000237281
0.000276025
0.000232578
0.000237281
0.0004831
0.000439538
0.000387221
0.0004347
0.000363472
0.000327507
0.000562909
0.000575516
0.000529485
0.000536861
0.000523866
0.000533226
0.000564801
0.000574149
0.000729108
0.000745443
0.000672
0.000673041
0.000807995
0.000807928
0.000860236
0.000811097
0.000828746
0.000732344
0.000719396
0.000641842
0.000634366
0.000585997
0.000587898
0.000555096
0.00051453
0.000480208
0.000541478
0.000512105
0.000426891
0.000437871
0.000405737
0.000432858
0.000386405
0.000486203
0.000514813
0.000437998
0.000270255
0.000336323
0.000402928
0.00032717
0.000296875
0.000275381
0.000239791
0.000262733
0.000248816
0.000229571
0.000239067
0.000239757
0.000184205
0.000272119
0.0002706
0.000270856
0.00037268
0.000374039
0.000440575
0.000445589
0.000439473
0.000418791
0.000213773
0.000415198
0.000416587
0.000198904
0.000240622
0.000387467
0.000228337
0.000292408
0.000316057
0.000287183
0.000238944
0.000300153
0.000203967
0.000240035
0.000324362
0.000313525
0.00025817
0.000292222
0.000286675
0.000301439
0.000191785
0.00011303
2.13705e-06
2.72688e-05
9.78567e-05
0.00010117
0.000108009
5.70821e-05
7.67907e-05
3.88815e-05
5.7921e-05
9.50827e-05
0.000119125
0.000148941
9.7092e-05
0.000132178
6.71335e-05
0.000235571
0.000188581
0.00017365
0.000239458
0.000170612
0.000310417
0.00033101
0.00027021
0.0002211
0.00030472
0.000286754
0.000358512
0.000355439
0.000410032
0.000378367
0.000327582
0.000437328
0.00037544
0.000404822
0.000450418
0.000435035
0.000485397
0.000485765
0.00051357
0.000462848
0.000516341
0.000588461
0.000597455
0.00063272
0.000649178
0.000708055
0.000723738
0.000780327
0.000784223
0.000813811
0.000782985
0.000726725
0.000806996
0.000628452
0.00072014
0.000609892
0.000531508
0.00046116
0.000502797
0.000388828
0.000418456
0.000354929
0.000140076
0.000183555
0.000264165
0.00036561
0.000153526
0.000146835
0.00031715
0.000252097
0.000118956
0.000266692
0.000158089
0.000153462
0.000297069
0.000384451
0.000190749
5.24138e-05
0.000195386
7.06906e-05
0.000168515
0.000130977
0.000228298
0.000141694
0.00010476
9.03679e-05
0.000126015
0.000126903
6.70218e-05
0.000121551
4.08236e-05
0.000171679
0.00025742
0.000330484
0.000266004
0.000132423
0
0
0
0
0
0
0
0
0.000132033
0
0
0
0
0
0
0
0
2.71212e-07
0
0
0
0
0
0
0
0
0
0
0
0
2.7774e-11
0
0
0
0
2.38326e-09
0
0
0
0
0
0
0
0
0
0
0
0
0
0
0
0
0
0
0
2.14256e-09
0
0
0
0
2.35223e-09
0.000440131
0.000335718
0.00039868
0.000735652
0.000652611
0.000306674
0.000144225
0.000114852
0.00014156
0.000120832
0.00020639
0.000177079
0.000249817
0.00021705
0.000225706
0.000251126
0.000237825
0.000246111
0.000267327
0.000265467
0.000238344
0.000210364
0.000242684
0.000270732
0.000266324
0
0
0
0
0
0
0
0
0
0
0
0
0
0.000212791
0.00026284
0.000247863
0
0
0
2.67381e-07
1.42105e-05
0.00010213
0.000140997
0.000113114
0.000130054
0.00017827
0.000220402
0.000270506
0.000227074
0.000190085
0.000269658
0.000108008
0.000133839
7.17059e-05
0.000247774
0.000174634
0.000227748
0.000208755
0.000225591
0.00021249
0.000207897
0.000148957
0.000191519
0
2.7522e-10
0
0
0
0
0
0
0
0
0
0
0
0
0
0
0
0
0
0
0
0
0
0
0
0
0
0
0
0
0
0
0
0
0
0
0
0.000153838
0.000195776
0.000194583
9.94518e-05
0.000135207
8.15791e-05
0.00011883
8.27024e-05
9.99402e-05
8.90996e-05
9.8495e-05
0.000155618
0.000139955
0.000113776
8.61734e-05
8.94703e-05
0.00011709
0.000200766
0.000194936
0.000281483
0.000216195
0.000337262
0.000305161
0.000365592
0.000373245
0.000156506
0.00018787
0.000187923
0.000175043
0.000114003
0.000114377
0.000147568
0.000125638
0.000158367
0.000175101
0.000168421
0.000178748
0.000268448
0.000260986
0.000280683
0.000104308
0.000551923
0.000535258
0.000505551
0.000678556
0.00027791
0.000309228
0.00029452
0.000261383
0.000268163
0.000272609
0.000188414
0.000213651
0.00042261
0.00046555
0.000404703
0.000372317
0.000327305
0.000354696
0.000616768
0.000574906
0.000607937
0.000552639
0.000548363
0.000540976
0.000617146
0.000551932
0.000787624
0.000807203
0.000821481
0.00069708
0.000734429
0.00082653
0.000902167
0.000883874
0.00085313
0.000889371
0.000780614
0.000769974
0.000690208
0.000679791
0.000638013
0.000605735
0.000647288
0.000553811
0.000605011
0.000456404
0.000486035
0.0005325
0.000498901
0.000420146
0.000377995
0.000509419
0.000452492
0.00044239
0.000432744
0.000531048
0.00049253
0.000380621
0.000440289
0.0004258
0.000409837
0.000290704
0.000339128
0.00031194
0.000251661
0.000285846
0.00024756
0.000230151
0.000237925
0.000254963
0.000256658
0.00025289
0.00028776
0.000312515
0.000376679
0.000309665
0.000375665
0.000459138
0.000522853
0.00049925
0.000243097
0.000246095
0.000238734
0.00066203
0.000524965
0.000518873
0.000423107
0.000401717
0.000192935
0.000154014
0.000404438
0.000160347
0.000295936
0.000298959
0.000330232
0.000249803
0.000262091
0.000347678
0.000246733
0.000378814
0.000333828
0.000238615
0.000223615
0.000282551
0.000161926
0.000219335
0.000195137
0.000132869
4.81104e-05
0.000121091
0.000141435
9.79612e-05
7.47696e-05
9.90236e-05
9.56075e-05
7.77149e-05
7.63078e-05
7.91355e-05
3.9795e-05
5.59819e-05
0.000178257
0.000118126
0.000155184
0.00018256
0.000167876
0.000181871
0.000298575
0.000209557
0.000184188
9.60455e-05
0.000267139
0.000338208
0.000289112
0.000281778
0.000291577
0.00034196
0.000374005
0.000412772
0.0003242
0.000383717
0.000428647
0.000442905
0.000483347
0.000469222
0.000457536
0.000521468
0.000487874
0.000531458
0.000572892
0.000586138
0.00064034
0.000726665
0.000648472
0.000717129
0.000766556
0.00077099
0.000774671
0.000812635
0.000770965
0.000785048
0.000709901
0.000694577
0.000589661
0.000479022
0.000581319
0.000397769
0.000455201
0.000370026
0.000189469
0.000306259
9.50026e-05
0.000190677
0.00020748
0.000247543
0.000318185
0.000452371
0.000520485
4.60974e-05
0.000156315
9.75731e-05
0.000224972
9.685e-05
0.000300443
0.000332927
0.000175422
1.74292e-05
6.2558e-05
0.000132592
0.000189931
0.000180058
0.000143743
1.42198e-05
5.34187e-05
1.68152e-05
1.79871e-05
2.31678e-05
0.000232642
0.000176289
9.95149e-05
0.000261525
0.000150323
0.000329411
0.000105573
7.05492e-05
0
0
0
0
0
0
3.29746e-07
0
0
7.52599e-05
0
0
0
0
0
2.79132e-07
0
0
0
0
1.23237e-09
0
0
0
0
0
0
0
9.86498e-10
7.89135e-10
0
0
8.43093e-10
1.62572e-09
0
0
0
0
2.85725e-09
0
3.71283e-09
0
0
0
0
0
0
0
0
0
0
0
0
0
0
0
0
0
1.34438e-09
0
0
0
0
0
0
0
0
9.50373e-05
0.00080049
0.000651599
0.000585909
0.000541735
0.000907212
0.000674093
0.000583466
0.00103201
0.000357578
0.000184307
0.000167641
0.000117192
0.000168843
0.000188337
0.000220988
0.000207844
0.000177123
0.000235771
0.000201701
0.00025089
0.000245024
0.000261468
0.000247465
0.000210788
0.000243787
0.000232636
0
0
0
0
0
0
0
0.000245967
0.000260273
0.000235439
0
0
0
0
0.000205766
0.000187339
4.00432e-05
1.66052e-06
4.19381e-05
0.000165431
2.74675e-05
0.000143667
5.99134e-05
0.000158069
0.000116288
7.96245e-05
0.000146408
0.00014516
0.000255123
0.000254749
0.000230568
0.000220494
0.000172713
0.000172051
0.000212278
0.000207804
0.00019203
0.000217136
0.000237785
0.000202698
0.000217131
0
0
2.6047e-10
0
0
0
0
5.27044e-10
0
0
0
0
0
0
0
0
0
0
0
0
0
0
0
0
0
0
0
0
0
0
0
5.93758e-09
0
0
0
0
0
0
0
0
0
0
0
0
0
0.000170629
0.000205989
0.000205783
0.000156338
0.000177545
0.000122099
0.000115198
9.26873e-05
0.000108436
0.000104311
7.86649e-05
0.00011605
7.86046e-05
0.000123365
0.000130574
0.000123761
8.74904e-05
0.00012411
0.000125849
0.0002148
0.00019431
0.000248738
0.000291502
0.000367796
0.00032567
0.000400623
0.000381901
0.000188017
0.000176961
0.000200607
0.000210721
0.00014716
0.000165857
0.000159261
0.000154956
0.000179315
0.00017702
0.000199514
0.000200963
0.000114943
0.000388197
0.000347582
0.000687757
0.000264473
0.000192281
0.000869834
0.000971697
0.00124448
0.000977868
0.000944315
0.00068123
0.000576596
0.000570792
0.000327818
0.000297052
0.000302978
0.000290028
0.000315026
0.000279797
0.000355478
0.000337303
0.000403212
0.000433989
0.000373712
0.000395571
0.000360394
0.00034762
0.00061448
0.000617718
0.000607484
0.00055543
0.000578099
0.000552466
0.000610891
0.000557885
0.000827567
0.000834797
0.00076445
0.000756213
0.000925645
0.000850904
0.000882626
0.000919792
0.000774551
0.000851292
0.000708684
0.000758055
0.000713279
0.000664878
0.000653897
0.000605688
0.000545984
0.000574829
0.000469004
0.000452827
0.000502196
0.000512273
0.000403139
0.000437023
0.000490266
0.000502046
0.000438135
0.000446939
0.000539799
0.000507854
0.000439788
0.000428905
0.00043906
0.00045006
0.000353698
0.00034823
0.000301526
0.000260774
0.0003028
0.000245653
0.000268693
0.000285204
0.000267524
0.000293724
0.000272808
0.000294213
0.000318228
0.000359572
0.000344378
0.000439656
0.000462506
0.000520917
0.000499571
0.00068075
0.000515271
0.000296356
0.00026736
0.000538694
0.000537813
0.00033674
0.000332631
0.00010097
0.00033335
0.000117803
0.000199646
0.000286316
0.000196634
0.000269584
0.000348797
0.000270028
0.000362259
0.000377881
0.000209785
0.000214587
0.000377119
0.000143861
0.000298524
0.000115145
0.000160675
0.000151631
8.50982e-05
2.40468e-05
0.000144446
3.28674e-05
8.57736e-05
0.00012738
0.000202965
4.61322e-05
1.78202e-05
8.39087e-05
4.43897e-05
5.87173e-05
6.67613e-05
9.63705e-05
0.000129493
0.00013396
0.000206491
0.000257254
0.000171248
0.000184987
0.000216427
0.000267958
0.000254442
0.000310587
0.000303084
0.00021653
0.00029561
0.000306841
0.000373316
0.000364557
0.000404539
0.000327253
0.000360849
0.000496122
0.000403123
0.000477457
0.000458199
0.000510131
0.000509468
0.000566804
0.000568318
0.000639964
0.000659132
0.000710519
0.000754138
0.000756079
0.000765561
0.000762721
0.000793928
0.000801811
0.000755019
0.000760906
0.000664609
0.000689085
0.000538196
0.000421678
0.000569493
0.000363522
6.83068e-05
2.42494e-05
7.19817e-05
1.73686e-05
0.000170226
0.000341893
8.83856e-05
0.000286134
0.000289779
0.000296479
0.000197375
0.000131151
4.77632e-05
8.48142e-05
0.000243158
0.0003023
7.92714e-05
0.000183928
0.000304648
1.72472e-05
3.80716e-06
0
0
3.10424e-06
1.96875e-06
5.86401e-06
1.42818e-05
7.77957e-06
1.49472e-05
0
0
0
0
0
0
2.49634e-07
0
0
0
0
0
0
5.09638e-07
0
0
0
0
0
0
0
0
0
0
0
0
0
0
0
0
0
0
0
0
0
0
0
0
0
0
0
0
0
0
0
0
0
0
0
0
0
0
0
0
0
0
0
0
0
0
0
0
0
0
0
0
0
0
0
0
0
0
0
0
0
0
0
0
0
0
0
0
0
1.57351e-11
0
0
0
0
0.00051242
0.000958688
0.000697334
0.000950967
0.000501832
0.000566316
0.000727501
0.000464967
0.00132869
0.00108126
0.00110289
0.00151049
0.00067228
0.000849112
0.000261203
0.000119047
0.000150977
0.000225995
0.000157638
0.000204095
0.000191815
0.000195688
0.000209352
0.000212008
0.000241356
0.000221856
0.000207175
0.000234103
0.000207792
0
0
0
0
0.00028248
0.000281669
0.000233933
0
0
0.000176867
0.000253144
0
1.29163e-05
0
0
0.00018648
9.59769e-05
4.70606e-05
2.66098e-05
7.16768e-05
3.57624e-05
4.83311e-05
4.98735e-05
5.5755e-05
0.000151064
0.000148265
0.000172327
0.000170842
0.000111406
0.0002575
0.000263838
0.000212746
0.000231001
0.000181389
0.000179804
0.000177216
0.000224677
0.000162699
0.000209485
0.000183443
0
0
0
0
0
0
0
0
0
0
0
7.09702e-07
0
0
0
6.36272e-05
3.28563e-05
5.00676e-05
0
0
1.68636e-05
0
0
0
0
0
0
0
0
0
0
0
0
0
0
0
2.01971e-09
0
6.73319e-10
0
0
0
0
0
0
0
0
0
0
0
4.59396e-05
0
0
0
0
0
0
0.000209875
0.000201146
0.000204222
0.000197406
0.000171089
0.000142939
0.000120003
0.00010751
9.26218e-05
0.000101336
8.78357e-05
0.000104989
8.50849e-05
9.40938e-05
0.000107617
8.91536e-05
0.000101601
0.000108822
0.000115339
0.000162734
0.000121704
0.000368843
0.000429639
0.000396136
0.000258022
0.000246475
0.000319322
0.000309341
0.000338177
0.000226086
0.000200147
0.000275273
0.000246127
0.00016306
0.000145861
0.000165407
0.000188766
0.000201371
0.000213741
0.00021653
0.000213698
0.000509191
0.000438307
0.000398278
0.00152196
0.00129355
0.001584
0.00115104
0.00168176
0.000917762
0.00102101
0.000348637
0.0005199
0.000716348
0.000324949
0.000344969
0.000304924
0.00034456
0.000312735
0.000288462
0.000370211
0.000436583
0.000444304
0.000416775
0.000386436
0.00041311
0.000382235
0.000362348
0.000686819
0.000620688
0.000637039
0.000580569
0.000588943
0.00057232
0.000589905
0.00062381
0.000883602
0.000881969
0.000794777
0.00085532
0.000941582
0.000846327
0.000969142
0.000907288
0.000849903
0.000758594
0.000701639
0.00075205
0.0006801
0.000655298
0.000604428
0.000596509
0.000549978
0.00054116
0.00046194
0.000473155
0.000502891
0.000501291
0.000424599
0.000444016
0.000494078
0.000496438
0.000469511
0.000517119
0.000518431
0.000540869
0.000441068
0.000442024
0.000462048
0.000449344
0.000374634
0.000404842
0.00044918
0.000433822
0.000360689
0.000278322
0.000339769
0.000271021
0.000308397
0.00029565
0.000356709
0.000339948
0.0003337
0.00034915
0.000338795
0.000442539
0.00039085
0.000406712
0.000405586
0.000515068
0.000466886
0.000579104
0.000560059
0.000699636
0.000649867
0.000372521
0.000389003
0.000800147
0.000573685
0.000256055
0.000156267
7.48992e-05
0.000182007
0.000119168
0.000211525
0.000232266
0.000321927
0.000241185
0.000299956
0.000277012
0.000176497
0.000157159
0.000257401
0.000292806
0.000149024
0.000217109
0.000179495
0.000150951
1.61648e-05
0.000108769
3.16105e-05
0.000211413
4.23785e-05
7.4578e-05
0.000171959
0.000198472
0.000299619
8.66603e-05
0.000112194
7.84471e-05
3.75076e-05
0.000136607
0.000119237
9.0247e-05
6.3506e-05
0.000114352
0.000137897
0.000168137
0.000224321
0.000159858
0.000216141
0.000204052
0.000310397
0.000322924
0.000265792
0.000269813
0.000260282
0.000339521
0.00035899
0.00041411
0.000362087
0.00039849
0.000396777
0.000437965
0.000447514
0.000493898
0.000483477
0.000548219
0.000534845
0.000624067
0.000571457
0.000697798
0.000683008
0.00074692
0.000765434
0.000756921
0.000796249
0.000813468
0.000759209
0.000798508
0.000730164
0.000760983
0.000634077
0.000541961
0.000667096
0.000454871
0.00052843
8.82714e-06
0
3.02772e-05
9.85883e-06
1.02543e-05
1.74689e-05
5.40749e-06
0.000162394
1.2028e-05
0.000370309
0.000242567
9.88214e-05
0.000194154
0.000186946
0.000111025
0.000187835
0.000200949
0.00011772
0.000291218
0.00020681
0.000164453
0
0
0
0
0
1.44853e-06
0
0
0
0
0
0
0
0
1.83823e-07
0
0
0
3.99555e-08
0
0
0
0
0
0
0
0
0
0
0
0
0
0
0
0
0
0
2.97075e-08
0
0
0
0
0
6.54761e-10
8.58745e-10
1.40637e-09
0
0
0
0
0
0
0
0
0
0
0
0
0
0
0
0
0
0
0
0
0
0
0
0
0
0
0
0
0
0
0
0
0
0
0
0
0
0
0
0
0
3.01833e-09
0
6.47648e-10
0
2.24419e-09
0
0
0
0.000608575
0.000683207
0.000650186
0.00111524
0.000846042
0.00106445
0.000854648
0.000283942
0.000873286
0.00107732
0.000151001
0.000858824