/*--------------------------------*- C++ -*----------------------------------*\
  =========                 |
  \\      /  F ield         | OpenFOAM: The Open Source CFD Toolbox
   \\    /   O peration     | Website:  https://openfoam.org
    \\  /    A nd           | Version:  8
     \\/     M anipulation  |
\*---------------------------------------------------------------------------*/
FoamFile
{
    version     2.0;
    format      ascii;
    class       surfaceScalarField;
    location    "1020";
    object      phi;
}
// * * * * * * * * * * * * * * * * * * * * * * * * * * * * * * * * * * * * * //

dimensions      [0 3 -1 0 0 0 0];

internalField   nonuniform List<scalar> 
788991
(
0.0195898
-0.0670923
0.0920943
0.0291037
-0.0529212
0.0721604
0.0614657
-0.0690011
-0.0122134
-0.0651676
0.00787364
-0.0310948
-0.0403366
0.0454343
-0.0249019
0.0423712
-0.0832795
-0.0576602
0.00628888
-0.0686826
-0.0703844
-0.0124351
0.0605618
-0.0327053
0.0445782
-0.0121837
0.0523573
-0.0698259
0.0361957
-0.0594733
0.0798564
-0.0302179
-0.103224
0.0498012
-0.0242268
0.0658344
0.0750918
0.0388228
0.0784393
0.024551
0.102573
-0.0466394
-0.0476951
0.0255852
-0.0826944
0.0324778
0.0412809
-0.026941
0.0321086
0.0823893
0.0652672
-0.051138
0.0151813
-0.0603178
-0.0865754
-0.0373273
-0.0413573
-0.0407565
-0.0859705
-0.118308
-0.0377068
0.0792423
0.0216914
-0.0678995
-0.00682778
-0.0398945
-0.0630174
-0.026319
-0.0701442
-0.087448
0.0064839
-0.120533
0.00108073
-0.0967962
-0.07425
0.0998513
-0.236862
0.0556469
-0.0356096
-0.024819
-0.0569919
0.0901552
-0.0783448
0.0756489
-0.0214546
0.0849241
-0.0174332
0.0628418
0.0500789
0.0414318
-0.00929592
0.0477512
0.0712308
0.0619909
-0.0578849
0.0225591
0.0744529
-0.096516
0.0753806
0.102911
0.0218418
0.123052
0.108349
0.0969296
0.133235
0.0205371
0.127183
-0.127406
0.113531
-0.151623
0.0514986
0.143066
0.149655
0.132012
0.205657
0.0758317
0.198075
0.176682
0.155321
-0.245187
-0.243025
0.282253
-0.274321
-0.029785
0.196328
0.389684
-0.128894
0.275055
0.19943
-0.369431
-0.143647
-0.0727985
-0.0622456
0
0.25004
0.0555977
-0.0798257
-0.314788
-0.037433
-0.0454327
-0.0548571
-0.0229831
-0.0449953
-0.0469743
0.00438722
0.0450233
0.0195594
0.00788394
-0.017864
0.0362375
0.0445953
0.028321
0.0565388
0.0649097
-0.0193998
-0.00660935
0.0759696
0.198309
0.410085
-0.27075
0.241634
-0.429066
0.218166
0.476449
-0.293676
0.229281
-0.432913
0.253089
0.5687
-0.337688
0.243193
-0.485099
0.273423
0.601182
0.33842
0.282038
0.560321
0.229157
0.606935
0.332165
0.295677
-0.537999
0.231486
0.579263
-0.345998
0.314805
-0.561469
0.248187
0.587956
0.341207
0.340431
0.59269
0.245594
0.600025
-0.338975
0.341445
-0.593584
0.277489
0.590621
-0.329042
0.33825
0.597793
0.294469
0.602889
0.333375
0.311862
-0.599789
-0.239629
0.593479
-0.185643
0.307003
0.505932
0.0334333
-0.0160346
-0.0643551
0.0336382
-0.0796208
-0.0286351
-0.00939531
0.0566393
-0.0930994
0.0144103
0.0970025
0.101775
0.00236146
0.119472
0.120829
-0.00167271
0.123971
-0.145658
0.0432784
0.141348
0.190948
0.045393
0.261936
-0.264732
0.251757
0.293397
0.30568
0.0215198
0.138196
0.273621
0.223531
0.418798
-0.325404
0.290001
0.626674
0.400641
0.272193
0.710866
-0.385396
0.279417
0.65858
-0.370914
0.232566
0.657488
-0.374242
0.222718
0.596461
0.369422
0.254675
0.58543
-0.359092
0.256223
0.61038
0.344223
0.269551
0.602074
-0.336129
0.339976
0.0833244
0.39798
0.295813
0.620391
0.0323898
0.391275
0.3009
0.311386
0.361417
-0.007849
0.288432
0.018192
0.0337577
-0.0556092
0.0438524
0.0192861
0.0623239
0.060015
-0.0421976
0.0846123
0.0962437
0.0279506
-0.0297337
0.0588758
0.0420319
0.0397289
0.0112636
-0.0580396
0.0305358
-0.00283327
-0.0960803
-0.0520641
-0.071042
-0.116667
-0.0464604
0.116865
-0.037979
-0.0128085
-0.0493681
-0.392181
0
-0.0921923
0.0328277
-0.0532944
-0.0143121
0
0
-0.100377
0
0
0
0
0
0.0705186
0.0108375
0.0508415
0.0717582
0.0225713
0.0432238
0.00541719
0.0676419
0.0589393
-0.0169929
0.0672163
-0.0892108
-0.0382388
0.0829793
0.125963
-0.0415886
0.0983745
0.155695
-0.0713866
0.11525
0.202323
-0.0863024
0.131505
-0.233965
-0.149741
0.148749
-0.286465
-0.159219
0.164573
-0.331356
-0.179854
0.206575
-0.39176
0
0
0
0
0
0.0234274
0
-0.260311
-0.115461
0.0593823
0.0909496
-0.0673473
-0.0410695
-0.0276149
-0.0517965
-0.0260828
-0.0261238
-0.0219003
-0.00344102
0.0243569
0.012648
0.0139073
0.0149043
0.0481634
0.0322759
-0.0112112
0.0316243
0.0570025
0.029512
-0.205266
0.221614
-0.416922
-0.211958
0.209573
0.409819
-0.255415
0.217475
-0.474107
-0.224858
0.259715
-0.506187
-0.215226
0.293244
0.518574
-0.252259
0.311539
-0.573898
0.00657382
0.278165
0.324952
-0.0883308
-0.129296
0.209521
0.166158
0.281852
0.290621
-0.0500868
0.302663
0.301565
-0.277456
0.273749
-0.290895
-0.20807
0.322086
-0.256761
0.330145
0.580722
-0.301845
0.316539
-0.620463
-0.299547
0.303056
-0.588093
-0.18148
0.27393
-0.510785
-0.0259598
-0.319749
0.328824
0.309711
0.145607
0.267224
-0.152947
-0.130582
0.0500514
0.0546287
0.0901986
-0.0436743
-0.0289973
0.0987274
-0.00610216
0.0782809
0.114458
-0.00102542
0.102802
-0.128751
-0.0203289
0.12663
-0.142467
-0.0339997
0.122055
0.181528
0.0484274
0.185584
-0.284428
-0.0139321
0.342301
-0.329597
0.269333
0.284938
-0.387332
0.0489211
0.139256
0.337282
0.312654
0.555593
0.428272
0.317566
0.77187
-0.420878
0.29138
0.749685
-0.405887
0.292813
0.707188
0.400779
0.229768
0.697277
-0.390892
0.21985
0.620332
-0.380419
0.244115
0.586712
-0.364036
0.25686
0.586057
0.349803
0.210508
0.599794
0.345564
0.413568
0.0704608
0.31994
0.541988
0.08346
-0.31625
0.275327
-0.0504296
-0.281936
0.385344
-0.0246618
0.31996
-0.0925937
0.210262
0.268848
0.136482
0.157122
0.120142
-0.278546
0.1739
-0.151611
0.276054
-0.106774
0.265026
0.128305
0.111034
-0.242729
0.0218189
0.0335685
0.040627
-0.0345991
0.00868475
0.0547017
0.0691244
-0.00858188
0.0729
-0.0993038
-0.0731812
-0.0254618
0.0789641
0.00716901
-0.0118732
0.0174146
0.0210887
0.033641
0.0227148
0.0156185
-0.14117
-0.00221808
0.100171
-0.150264
-0.0562057
-0.131548
-0.045004
-0.0468898
-0.0160216
-0.0151965
-0.0366729
-0.00772867
-0.086147
0
0
0.06464
0
-0.195487
-0.0548398
0.160547
-0.37449
0
-0.000148869
-2.42608e-05
0
0
0
0
0
0
0
0
0
0
0
0.0698245
0.0101646
0.0546676
0.0595448
0.0182277
0.0450976
-0.0196396
0.068024
0.0832743
-0.033613
0.068465
0.108757
-0.0557876
0.0897005
-0.153389
-0.085254
0.102063
0.1959
-0.098169
0.110994
-0.218842
-0.131572
0.121295
0.256846
-0.132041
0.126161
-0.261608
-0.170346
0.147663
0.301309
-0.194161
0.161494
0.355769
-1.7962e-05
0
-3.11464e-05
0
0
0
-5.95355e-05
0.000118156
1.39973e-05
0
0
-7.69916e-05
0
0
0
0
7.058e-05
0.00012465
0
-6.28043e-06
0
0
0.000114936
0.000182371
0.10449
0
0.0169576
0.0205531
0.172904
0.0182872
-0.0850451
0.0311399
-0.070716
-0.0468413
-0.0243096
0.0180162
-0.0337267
-0.0200542
0.0189118
-0.00752854
-0.0027671
-0.0143037
0.0236527
0.0130483
0.00746421
0.0321478
0.0316219
0.0172789
0.0187048
0.0459826
0.0370273
-0.194295
0.191636
0.393155
-0.212908
0.195359
-0.398951
-0.215379
0.205527
0.429728
-0.217518
0.256088
-0.503412
-0.248328
0.282929
-0.520732
-0.28203
0.279195
0.56252
0.0359302
0.283347
0.25843
0.0858559
-0.128805
-0.299156
0.27604
-0.23689
0.13694
0.14122
-0.200371
0.0856244
0.0137714
0.00361147
-0.179641
0.171547
-0.320557
0.290585
0.601919
-0.309155
0.271122
0.5898
-0.206742
0.262799
0.448663
-0.18843
0.221145
-0.336797
0.0966091
0.238701
0.156436
0.248327
0.134227
0.172535
-0.236925
0.154521
0.232829
0.0455928
0.107628
0.267494
0.143435
0.11145
0.224322
0.116681
0.231919
0.0892155
-0.159873
0.062283
0.0218825
0.0990152
-0.0522976
0.0612974
0.134805
-0.0584929
-0.029199
0.136043
-0.0285605
0.0926262
0.155021
-0.0157186
0.109049
-0.166695
-0.0440022
0.129497
-0.182609
-0.05707
0.15351
0.258314
0.0126671
0.233268
0.266333
-0.0698455
0.292962
-0.322297
0.355176
0.326755
0.479788
-0.0423909
0.204593
0.510648
0.337606
0.699822
0.469279
0.337666
0.767412
-0.41935
0.314978
0.776415
-0.412832
0.308935
0.736986
-0.409208
0.235493
0.719443
-0.3969
0.21659
0.625932
-0.373421
0.236088
0.581185
0.355746
0.235021
0.585022
-0.339453
0.190185
0.540746
-0.312469
0.412256
0.0573386
0.321334
0.487796
0.0807748
0.311317
0.269097
-0.0711734
0.289751
0.384749
-0.0366877
-0.313299
-0.109534
0.204056
-0.280466
0.100327
-0.138722
0.235874
0.15564
-0.148392
0.246997
-0.0799553
0.0945007
0.230182
-0.0638033
0.173785
-0.230917
-0.140518
0.0586582
0.166705
-0.202813
0.0156564
0.0104864
-0.0181772
-0.024283
-0.0024346
0.0344738
0.0454177
-0.0204077
0.0421451
0.0737207
-0.0883584
0.040622
0.104904
-0.00578625
-0.013651
-0.00392214
-0.0705962
0.115551
0.15062
-0.173307
0.103625
0.0356013
-0.05318
-0.132408
-0.0134427
-0.0486427
-0.0905402
0.0348407
-0.000180008
-0.097387
0.0329502
0
0
0
-0.308954
0
-0.201359
0.0363661
-0.0554183
-0.0586821
0
0
0
0
0
0
0
0
0
0
0
0
0
0
0
0
0
0
0
0
0
-0.000151371
1.95296e-05
0
-1.74536e-05
0
-1.29664e-05
0
0.00023766
1.51325e-05
2.33616e-05
0
-0.000225818
0.000242876
8.55999e-05
0
-1.49901e-05
0
0
0
0
0
0
0
0
0
0
0
0
0
0
0
0
0
0.0654612
-0.0138543
-0.07629
0.0533971
-0.0074679
0.0654805
-0.0325414
0.06495
0.0931853
-0.0567224
0.070967
-0.132077
-0.0924685
0.094112
-0.189467
-0.1034
0.0995112
0.208372
-0.127607
0.105089
-0.237585
-0.128976
0.110024
-0.240558
-0.142357
0.112624
0.254281
-0.16954
0.125499
-0.287858
-0.18379
-0.334317
0.142836
0
0
0
0
0
0
0
0
0
0
0
0
0
0
0
0
0
0
0
0
0
0
0
0
0
0
0
0
0
0
0
0
0
0
0
0
0.000330917
0.000449365
-6.73825e-05
0
0
0
0
0
0.00744113
0
-0.0546833
0.0175057
0.0374025
0.00597649
-0.0238826
0.0262557
-0.0196931
-0.0301851
-0.00975169
-0.0129246
-0.0195357
-0.0128569
0.0137933
0.00617956
0.000817437
0.00680457
0.0202788
0.0160495
-0.0131696
0.0139241
0.0315048
0.0304095
-0.00808168
0.0401758
-0.0574306
4.63424e-05
0
0
6.26676e-05
-8.74406e-06
0
0
5.91242e-05
0
0
0
0
0
0
0
0
0
0
0
0
0.000185111
0.000210896
-0.190418
0.180552
0.372865
-0.185231
0.177492
0.351529
-0.234182
0.192821
-0.426549
-0.267298
0.234398
-0.527461
-0.2761
0.241304
-0.524789
-0.309403
0.232969
0.559776
0.024377
0.170323
-0.17137
-0.0685878
0.187163
0.248507
0.110604
0.140545
0.1194
0.0942091
0.219453
-0.144117
-0.00415362
0.138152
-0.213964
0.00307653
0.166005
0.18959
-0.275552
0.255034
-0.508197
-0.221614
0.227863
0.398374
-0.149717
0.163684
-0.283884
-0.0533642
0.104437
0.139592
0.199541
-0.177028
0.0735874
0.195887
0.0080319
0.20432
0.188583
0.00427923
0.0150933
0.170034
-0.142932
0.183001
0.00573611
0.182915
0.226894
0.0375171
0.184028
0.223869
-0.00335007
0.107985
0.234991
-0.11987
0.203417
0.220522
-0.0382907
0.251023
0.0973079
0.141996
0.0729136
0.0268396
-0.147203
0.0612797
0.0791739
0.131453
0.0561041
-0.0609706
0.146392
-0.0525966
0.0887425
-0.164097
-0.0447162
0.102161
0.176111
-0.0905357
0.128278
0.245428
-0.0370245
0.172774
0.315062
-0.00594655
0.209587
-0.335362
-0.075227
0.299828
-0.447889
0.515338
0.44143
0.426414
0.0507144
0.213214
0.486005
0.335966
0.656975
-0.433848
0.357237
0.750459
0.422422
0.323951
0.731828
-0.391842
0.321105
0.722246
0.38741
0.24506
0.707994
-0.369264
0.222468
0.603726
0.350268
0.230016
0.568218
-0.325561
0.214012
0.538333
0.298609
0.180469
0.510799
0.29813
0.394957
0.0507765
0.302779
0.474773
0.0680527
-0.291436
0.264021
-0.0761376
0.293133
0.347924
-0.0381394
0.282359
-0.107519
0.210632
0.26587
0.0769306
-0.128409
0.224301
0.132899
-0.14881
0.227691
-0.0577996
0.100607
0.227819
-0.0527087
0.150893
0.196294
-0.122443
0.136018
0.185541
-0.142894
0.0653359
-0.173602
-0.141281
0.0147034
0.0168357
0.150923
-0.150387
0.154632
-0.139871
0.000272277
0.00915103
-0.131033
0.00603596
-0.136109
0.0143756
0.149548
-0.121439
0.141607
-0.0123344
0.0111976
0.138303
-0.121743
0.135432
-0.0046422
0.0156209
0.126004
-0.12273
0.120196
-0.0246016
-0.000714079
-0.10732
0.0807911
0.10158
0.00432849
-0.0141837
0.0936965
-0.0455894
0.0892347
0.0287352
0.0133516
0.0787822
-0.0321784
0.0779164
-0.0322522
0.0341272
0.0678694
0.0700912
-0.0341618
-0.0213444
0.0381509
-0.0599105
0.000595717
-0.0210978
0.00180234
0.0287997
0.000681409
0.0106784
-0.042705
-0.0145643
0.0319832
0.0364406
-0.0812127
0.0114512
-0.0394055
-0.108477
-0.0207501
-0.128007
-0.0474684
-0.0454856
0.0383492
0.0430665
0.13593
0.229239
-0.163502
0.0657407
0.0650097
-0.0882524
-0.191136
0.0975832
-0.0700728
-0.0982761
0.0021322
-0.032688
-0.0873624
0.0278674
0
-0.000119414
1.86044e-06
-0.2763
0
-0.026484
-0.358218
-0.015667
-0.0326014
0
1.95888e-05
0.000115773
0
0
0
0
1.30255e-07
3.68994e-06
0
0
0
-0.000117842
0
0
0
0
0
0
0
0
-0.000131478
-7.94571e-05
-0.000129877
-9.6458e-05
0
0
0
0
0
0
0
0
0
0
0
-4.97235e-05
0
0
0
0
0
-0.00155992
0
0
0
0
-0.0013851
0
0
0
-0.00298255
0
-0.00218098
-0.000811161
1.78466e-05
0
-4.33662e-05
-3.38377e-05
5.26156e-05
-0.000164104
-9.89811e-06
-7.07361e-06
0.000130117
-0.000121516
0
0
0
-8.25297e-05
0
0
0
0
0
0
0
0
0
0
0
0
0
0
0
0
0
0
-0.0114217
0
0.005313
0
-0.00612522
0
0.0590553
-0.0277349
0.0869086
0.046937
-0.0257228
-0.0775317
-0.0509933
0.0618559
-0.110567
-0.0923844
0.0723507
0.164094
-0.103679
0.0903965
0.197316
-0.125607
0.095488
-0.219022
-0.132935
0.0935782
-0.229201
-0.150009
-0.18527
0.313496
0.135434
-0.137329
0.0988079
-0.242157
-0.148151
0.106312
-0.261621
-0.262184
0.11737
0
0
0
8.88268e-05
-2.61439e-05
-0.000239687
0
0
0
0
0
0
-2.54839e-06
-2.39523e-05
5.02439e-05
0
0
0
0
0
0
0
0
0
0
0
0
-0.000118886
0
0
0
0
0
-2.79102e-05
0.000104141
0.000207125
0
2.91688e-05
0
0.0201546
0.0423134
0.174088
0.00550174
0.0409887
-0.0008789
-0.00739951
0.00968331
0.00798288
-0.0182195
-0.00639199
0.0155595
-0.00436039
-0.00214961
0.0125276
0.00686866
0.00964998
-0.0136374
0.00600072
0.0216761
-0.0293468
-0.0108765
0.0312927
0.0509026
-0.0269438
0.0683725
0.0352136
3.33018e-05
0.000105999
3.37392e-05
3.12786e-06
0
2.99941e-05
0
-6.55381e-06
0.000382319
1.04159e-07
0
1.36046e-05
-9.65725e-06
0
0
0
0
0.000615578
9.43903e-05
3.66003e-06
0
0
0
0
0
0.000212426
0
-8.6805e-05
0
0
0
0
0.000127438
0
0
8.10651e-05
0
-0.000104279
-0.17962
0.155274
-0.329467
-0.215672
0.14578
-0.356068
-0.288931
0.156252
-0.443574
-0.27801
0.193443
0.498057
-0.267107
0.214113
-0.478369
-0.269237
0.20787
-0.415414
-0.0314641
0.149267
-0.165348
0.0283158
0.127754
0.121783
0.0844942
0.125631
-0.0983092
0.104634
0.165851
0.0941035
-0.0113577
0.0639871
0.0677556
0.0124306
0.0231556
-0.0196741
-0.21772
0.141429
-0.304924
-0.120855
0.0906484
-0.217532
0.0383464
0.0624881
0.0339466
0.0467799
0.0201795
0.10345
0.159179
0.154032
-0.0033302
0.182352
0.158595
-0.00230625
0.180483
0.178549
0.000891043
0.149713
0.165839
0.00381018
0.148965
0.12742
0.0070264
0.157925
0.13426
-0.00166161
0.139615
0.139463
0.00624971
0.142955
0.136271
-0.0328687
0.10208
0.113764
0.00773309
0.0646996
0.10099
-0.0174327
0.0514609
0.090744
0.0223605
0.0531402
0.0803526
0.0113986
0.0613298
0.0272691
-0.0522311
0.040122
0.0046752
0.0696242
0.0582777
0.00648062
0.214051
0.246213
0.0195851
0.170192
0.207552
-0.000683264
0.197252
0.236462
-0.0371398
0.264105
0.0336997
0.236267
0.184236
0.164711
0.0344542
0.0470341
0.0472303
0.109609
-0.0833255
0.080096
0.106436
-0.055395
-0.0644817
0.13736
-0.0737029
0.0719593
-0.133817
-0.107928
0.0682597
0.125132
-0.105603
0.0865491
-0.266533
-0.120957
0.171285
0.300533
-0.133334
0.140289
-0.286136
0.0845626
0.122298
0.476693
0.514729
0.304867
-0.311409
0.101228
0.216586
0.360733
0.316436
0.622893
-0.37734
0.330995
0.68683
-0.38099
0.327288
0.706953
0.382559
0.314447
0.665525
-0.340156
0.235048
0.626462
0.323724
0.221171
0.551878
-0.313023
0.223861
0.519884
0.290016
0.214693
0.499105
-0.277059
0.168718
0.487847
0.267913
0.335313
0.0350248
0.267704
0.423417
0.0524524
-0.251584
0.257161
-0.0721274
-0.268205
0.29312
-0.0346414
0.25678
-0.100154
0.187444
0.2316
0.0804175
-0.126784
0.236195
0.134413
-0.134579
-0.221277
-0.0627606
0.103866
0.213968
-0.0563436
0.128944
-0.1933
-0.112547
0.129496
0.180933
-0.138965
0.045939
0.156071
-0.149228
0.0033263
-0.130469
-0.141595
0.0125644
-0.155293
-0.130902
0.0185046
0.141877
-0.114768
0.00811879
0.130084
-0.109923
0.0113744
0.114549
-0.111491
0.00205978
0.100595
-0.0711631
-0.0101899
0.0862379
-0.0374134
0.012451
0.0716986
-0.0224335
0.0347496
-0.0608082
-0.0226899
0.0392894
0.0521494
-0.0271466
0.0125698
0.0308517
0.0451538
-0.0219434
0.0432957
0.00955781
0.0185051
-0.0375714
0.0189405
0.034008
0.00543421
0.0294921
0.0142439
-0.0397204
-0.0869964
0.0401001
0.0146772
-0.0277518
-0.0288469
-0.0791569
0.017285
-0.00226903
0.0623028
0.00274274
0.0378988
-0.00427212
-0.0906631
-0.0135405
0.0522615
-0.0922927
0.0487879
0.123085
-0.0293825
-0.113245
0.0149965
-0.192472
-0.0238549
0
-0.197595
0.106398
-0.225445
0.0243759
-0.0284947
0.0109015
-0.109975
0.0121544
-0.0306086
0.102318
-0.110802
-0.11033
0
0
0
0
0
0
-0.00109327
0.000678791
-0.00458248
0
0
0
3.81777e-06
0.000115607
0.000414982
0
0
0
0
0
0
0
0
0
0
1.10901e-06
0.000136238
0
0
0
0
8.66959e-05
0
0
0
0
0
0
0
0
0
0
0
0
0
0
-6.96575e-05
-2.74456e-05
-0.000526943
0
-0.000281899
-0.00134931
-5.86601e-06
0
-0.000243967
0
0
-0.00037169
0
0.000200472
2.81362e-05
-0.000180622
0
0
0
0
0
-0.0611074
0.00577875
-2.12663e-08
0
-2.03851e-07
0.001115
0
0.000843149
-0.00311514
0.0019562
0.00896782
0
0
0
0
0
0
0
0
0
0
0
0
0.0521731
-0.048415
0.102455
0.0403014
-0.0488822
-0.0917261
-0.0772084
0.0571633
-0.131296
-0.102556
0.0682983
-0.166794
-0.125068
0.0829604
-0.205039
-0.13127
0.0819433
0.212017
-0.137703
0.0876634
0.234136
-0.15998
-0.188003
0.289726
0.109514
-0.136355
-0.247318
-0.103962
-0.138896
0.0976681
-0.237987
-0.236946
0.101871
0.000245591
0.000139471
1.32972e-05
0
0.000167064
-4.5162e-06
0
0
0
2.53088e-05
0
0
0
8.68561e-05
-6.73971e-05
0
0
0
9.68906e-05
-8.08586e-06
-0.000118071
0
0
0
0
0
0
0
0
0
-4.58398e-05
0
0
0
0.000169906
-0.000308938
-0.0513505
0
0
-0.000871372
0.144105
0.159054
0.00718132
0.155938
-0.0391511
-0.0106812
0.0184585
0.0199132
-0.00813178
0.00132521
0.0191762
-3.09163e-05
0.0064845
-0.0171572
-0.00198359
0.0165708
0.0269451
-0.015033
0.0249254
0.046732
-0.0272665
-0.049707
0.0838436
-0.0332097
0.0292952
-0.063211
0
0
0
0
0
0
0
0
0
0
1.1683e-05
0
0
0
0
0
0.000521108
0
0
0.000185239
0
0
0
-2.44071e-07
0
0
0
-6.33752e-06
0
2.70575e-05
0
-6.09683e-05
-2.3625e-05
0
0
0
0
0
0
0
0
0
0
0
0
-0.213257
0.117005
-0.326397
-0.238053
0.111135
0.344193
-0.24391
0.13763
-0.394562
-0.268296
0.193591
0.394453
-0.162585
0.0918884
-0.201963
0.273752
-0.262335
0.118549
-0.292936
-0.21061
0.0526537
0.180777
0.0262464
0.0318811
0.00927313
0.00602228
0.0114618
-0.00771398
0.0666728
-0.00628796
-0.0308544
0.141756
0.0853192
-0.00971
-0.018827
-0.0664315
0.061662
0.0266892
-0.11003
-0.0859267
-0.0890354
-0.0542809
-0.102672
0.0493981
0.0467845
0.00494891
0.0726825
-0.0166778
0.0694214
0.0209878
-0.0740642
-0.00505583
0.00444255
8.37174e-05
0.00666023
-0.00617285
0.0047195
-0.00984081
0.00988388
0.0107333
0.0057919
0.00476105
-0.0151199
0.0148649
-0.00469647
-0.0112581
0.00452611
0.0191346
0.0168506
0.0243071
0.00648546
-0.0212405
-0.000205355
0.006662
-0.00100202
-0.0135376
0.0147107
0.00148642
0.00136331
0.00258227
-0.00791732
0.00698701
-0.00241313
0.00427382
-0.00641027
-0.00451528
0.00409972
0.00543374
0.0332455
0.0497288
0.00151638
0.0274281
0.0379609
0.0018137
0.0215002
0.0269326
-0.00444404
0.155534
0.145823
-0.00919908
0.179066
0.158114
0.00585098
0.171553
0.172292
-0.00590658
0.147983
0.155727
0.000563285
0.140908
0.146228
-0.00288524
0.156288
0.134357
0.0187427
0.161155
0.144773
-0.0397146
0.116552
0.121979
-0.00734574
0.0848325
0.109152
0.013829
0.069208
0.0997814
0.0191806
0.0716017
0.0905286
0.00536695
0.0777426
0.0771414
-0.0163569
0.05607
0.0479416
-0.00869745
0.0616194
0.0651426
-0.0203883
0.22165
0.181127
0.00781685
0.27916
0.182501
0.192628
-0.00418273
0.180051
0.17152
0.017201
0.223071
0.106541
0.0834237
0.143583
0.124247
-0.0247361
-0.0175812
-0.0182411
0.0131239
0.0263936
-0.0150683
0.00622418
-0.0195213
-0.00422857
0.00260149
0.0139006
-0.000389882
0.00925516
0.0113162
0.000899661
0.0110796
0.00876454
0.00490755
0.00924253
0.00845688
0.00947971
0.0106522
0.00778485
0.0167241
0.00985073
0.0148905
0.00687719
-0.00403598
-0.0117938
-0.0439945
-0.140536
0.0277716
0.0569373
-0.0909315
-0.0612059
0.0869972
-0.0555222
0.0238856
0.0511134
-0.10866
0.0424335
-0.119259
-0.133012
0.042924
-0.0834296
-0.215293
-0.0710658
0.0361818
-0.133039
-0.0426994
0
-0.184564
0
-0.300885
0.303753
-0.102847
0.0164791
0.0188854
0.196211
0.260016
0.297244
0.427491
0.261439
0.341553
0.618826
-0.319652
0.297281
-0.208782
0.654937
0.282823
0.491543
-0.282981
0.232357
0.554581
0.287087
0.204918
0.498385
0.264878
0.209351
0.449944
-0.244865
0.198927
0.442748
-0.243913
0.149569
0.428637
-0.231689
0.299685
0.0346498
0.242503
0.362648
0.0492543
0.215315
0.2108
-0.0620662
-0.230484
0.27277
-0.0328956
0.219995
-0.0755591
0.156274
0.208993
0.105669
-0.112684
0.215211
0.137917
-0.120048
-0.216153
-0.0697476
0.0894012
-0.190031
-0.058331
0.125309
0.19114
-0.11795
0.132165
0.17262
-0.149286
0.038113
-0.139056
-0.10833
0.028358
-0.145589
-0.127417
0.00406808
0.135149
-0.125351
0.00192927
0.121512
-0.104811
-0.00275396
0.113586
-0.101977
0.00567904
-0.102092
-0.102821
0.000846836
0.0935733
-0.065411
-0.0114138
-0.0787094
-0.0315612
0.0118747
-0.0659636
-0.0168491
0.0344446
0.055935
-0.0163511
0.0391896
-0.0472629
-0.0212674
0.0312439
-0.0401979
-0.0329092
0.0185992
0.010019
-0.227055
-0.0221177
0.00978803
-0.124518
0.0555886
-0.0184332
-0.0305961
0.027184
-0.0964615
0.0610237
-0.0180201
0.0486182
-0.120736
0.0200523
0.0653271
-0.0549615
-0.0303522
-0.0743005
-0.0561817
-0.0417601
-0.0563719
-0.179335
-0.444134
0
-0.0585659
0.00109865
0
-0.00379906
0.0980586
-0.189528
-0.00794949
-0.0165948
0.124254
-0.219155
-0.189727
0
0
0
0
0
0.000169273
0.00027634
-0.000311545
-0.00330326
0
-0.0011815
3.9775e-06
-0.00038294
7.0506e-06
-0.000299343
0
0
0
0
0
0
0
0
-3.49692e-05
0
6.83469e-05
-0.000445659
3.3338e-05
-0.000154599
0
0
0
0
0
0
0
0
0
0
0.00336861
0.00219468
0
-2.04702e-05
-2.93545e-05
0.00585681
0
0
-4.22876e-05
0
0
0
0
0
0
0
0
0
0
0
0
-9.70493e-06
2.54844e-05
0
0
0
0
-0.000110039
4.13929e-05
-0.0522275
0
0
0
0
0
0
0
0
0
0
-0.000188913
0
-5.95792e-05
-0.000266409
0
0.000179672
-0.000118334
0
0
0
0
0
0
0
0
0
0.000569071
0
-0.000791779
0
0
0
0.00157558
0
0.000621387
0.0052183
0.00567594
-0.0194991
-0.00952455
0.0174334
-0.00785494
0.0172968
0.00978017
0.0451414
-0.0739417
-0.120322
0.035406
-0.0774477
0.106458
-0.0880153
0.0501366
-0.132095
-0.119391
0.0584176
0.166461
-0.126759
0.0708118
-0.203285
-0.128915
0.0841013
-0.215952
-0.133168
0.0884308
0.217044
-0.149562
-0.239142
0.0858153
-0.136003
-0.228601
-0.082313
0.0862415
-0.215615
6.21229e-05
0
0
0
0
0
0
6.36734e-05
0
0.000154619
0
0
0
0
7.51754e-05
0
0
5.98815e-05
0
6.79331e-05
-0.0864885
0.114975
-0.0330252
-0.0861982
5.01622e-05
0
-6.43777e-05
0
0.000114362
0
0
0
0
-0.000138978
0
0
0
0
0
-0.113008
0
0.00190744
0.10941
0.0271425
-0.00657098
0.0160718
-0.019948
-0.0501136
-0.0761311
0.109765
0.0349734
-0.00420932
0.00873185
0.0240518
-0.0058424
0.0162882
0.0276867
-0.01775
0.0219455
-0.0440075
-0.0304154
0.0272043
0.0619139
-0.0842549
0.0307575
0
0
0.000136948
-8.24039e-05
0
0
0
0
0
0
0
0
0
0
0
0
0
0
0
0
0.000286285
-0.000213278
0
0
0
5.06388e-05
0
-8.81898e-05
-9.87402e-05
6.11019e-06
0
0
0
0
6.98789e-07
0
-4.11201e-06
0
0
0
0
0
0
0.000163932
-0.000167431
0
0
0
0
0
0
0.000501937
0
0.000904676
-0.148923
-0.141133
0.0690268
-0.215742
-0.204102
0.093251
-0.303452
-0.210648
0.102424
-0.254891
-0.259469
0.072188
-0.259636
-0.231596
0.0707519
0.173474
0.0841979
-0.199785
0.238298
-0.171433
-0.157897
-0.0596921
-0.115044
-0.0226866
0.102796
0.0216468
-0.115069
0.082441
-0.0325693
-0.112762
0.0892423
0.0859904
-0.107926
0.0351781
0.129491
0.0677162
-0.0135332
-0.148246
0.00751667
0
-0.0251497
0
0.0333362
-0.02952
-0.00933228
0
-0.0700513
0
0
-0.0116276
0
0
0
0
0
-0.00406053
0.00106602
0.00843849
-0.00901787
0.00416137
0.0146576
-0.013397
0.00510553
-0.0199137
-0.0137296
0.00620467
-0.0235963
0.0076944
0.0166462
-0.00117483
0.000275211
0.00824396
0.00208281
-0.00292351
0.00249737
-0.00281278
-0.00646448
0.000951736
-0.00720904
0.039841
0.041786
0.011643
0.0312341
0.0288967
-0.0124924
0.014014
0.0183251
0.00349124
0.154843
0.12311
-0.0224206
0.169304
0.148993
-0.000135521
0.164775
0.153379
0.00720086
0.134893
0.149167
0.0128753
0.151572
0.183014
-0.074362
0.0485053
0.149711
0.0978912
0.0329306
0.108998
0.120235
0.00317893
0.121934
0.107249
-0.000217317
0.0922552
0.11706
0.0144969
0.0777981
0.105395
0.0211256
0.0808203
0.0967638
0.00731512
0.090362
0.0850162
0.0170249
0.0796694
0.0681412
0.0242268
0.0453325
0.0530055
0.0240841
0.048877
0.0677993
-0.0331183
0.192057
0.192696
-0.00554466
0.175849
0.170378
-0.0223032
0.194595
0.1717
-0.0195159
0.174813
0.145021
-0.0222632
0.174507
0.213143
0.0394534
0.121702
0.190709
-0.0508947
-0.0162046
-0.017993
0.0185985
-0.0309397
-0.0145552
0.0163848
-0.0252136
-0.0102423
0.0193438
0.0127554
-0.000197861
0.0107921
0.0154232
0.00396425
0.0162326
-0.0137299
0.0018618
0.017458
0.0130144
0.00420547
0.0121516
-0.0131776
0.00950059
0.012686
0.0135518
0.0103621
0.0200752
-0.0141535
-0.00631624
0.0215467
-0.00448953
0.0211995
0.010679
0.0207889
0.0236935
0.0157301
-0.0506319
-0.0869027
0.0920453
-0.131701
-0.0506088
0.0405135
0.16982
-0.0531867
-0.00759661
-0.146683
-0.29539
0.128798
-0.0517674
-0.0613767
-0.0462067
-0.309558
-0.213574
0.0286839
-0.000572427
-0.0146742
-7.68215e-05
0
-0.00136246
0.000242725
-0.26714
0
0
0.00725452
-0.0144086
-0.0134801
-0.11742
0.162988
0.0520415
0.261101
0.248096
-0.21104
0.37658
0.205073
0.286535
0.391906
0.0926036
0.238492
0.262873
0.485388
-0.273659
0.207263
0.533583
-0.246395
0.184723
0.418256
0.214441
0.194912
0.393107
-0.210322
0.167446
0.398706
0.19013
0.127626
0.330868
0.174589
0.268517
0.0334431
-0.200745
0.296493
0.0504911
-0.150717
0.17216
-0.0523149
0.195898
0.226265
-0.0308436
-0.186588
-0.083574
0.139852
0.19623
0.0790684
-0.105157
0.187319
0.112482
-0.111907
0.188595
-0.0654167
0.0736668
0.168621
-0.0479993
0.114783
0.173266
-0.127533
0.122429
-0.113028
-0.0151215
0.114656
-0.130786
0.00213411
0.119822
-0.120048
-0.0160725
0.104521
-0.113106
-0.0147237
-0.102692
-0.0957147
-0.0126505
0.0955065
-0.0938019
-0.000616505
-0.0898105
-0.0894138
-0.00196479
0.0807093
-0.05409
-0.00805818
0.067376
-0.0236169
0.0138365
0.0571026
-0.0116742
0.0328713
-0.0483547
-0.0129683
0.0367347
-0.041818
-0.0354477
0.0300047
-0.179498
0
0
0
0.045084
0
0.062421
-0.102674
0.0151785
-0.113905
0.0629843
0.0954047
0.0443299
-0.0475429
-0.0825279
0
0
0
0
-0.0117704
0
0
-0.350837
0
0
0
0
0
-0.073235
-3.06867e-06
0
-0.109166
0
0
0
0
0
0
0
0
0
0
-0.000442972
-0.000458991
0.000290201
0
-2.19711e-05
0
0
0
0
-0.000331628
0
-8.36985e-05
0
0
0
0
0
0
-0.000115815
0
-0.000125927
0
0.000111222
0.000162696
-0.000154969
0
0
0
0
0
-4.97208e-05
0
0
0.00490675
0
-0.00239798
0
-0.00305882
0
0
-1.13092e-05
0.000143649
0
0
0
-2.63033e-05
-0.000102325
1.474e-05
0
5.22341e-06
0
0
-5.58576e-05
0
-7.1288e-05
0.000123083
-0.000133939
0
5.72156e-05
0
-3.28618e-05
-6.0012e-05
-9.93966e-05
0
0.000108586
0
0
0
0
1.42484e-05
0
3.41695e-05
0
1.07444e-05
2.71218e-05
0
0
0
0
-0.000126072
0
0
-3.5829e-05
0
0
0
0
0
0
0
-8.78327e-05
0
0
0
0
0
-0.000157334
0
5.59864e-05
0
0
0
0.000836035
0
0
0
0
0
0
-0.000127419
3.79543e-05
0.00674376
0.00709248
0.0215434
0.0131957
0.00617505
0.0198722
0.0108986
0.00988826
0.0273521
0.0188436
0.010145
-0.0255625
0.0208569
-0.0121392
0.0326139
-0.0878252
0.128444
0.0348401
-0.10181
-0.104649
-0.0982894
0.0466923
-0.143914
-0.115262
0.0565581
0.167792
-0.121319
0.0679461
0.188055
-0.126167
0.0804435
-0.197282
-0.134868
0.0735847
-0.19684
-0.147151
-0.207982
-0.0701744
0.0692335
-0.21579
0
0
0
0
0
0
0
-1.01833e-05
0
0
0
-0.0354373
0.0375764
0.0126776
0.0316459
0
0
0
0
0
0
0
-0.093096
-0.027503
0.000127932
0
6.85903e-05
-2.23531e-05
5.95715e-05
4.39295e-05
0
2.15264e-05
0
0
0
0
0
0
-0.0763697
-0.0691174
-0.128643
-0.046992
0.00361381
0.0322222
0.0166123
-0.00516983
0.0148466
0.0302881
-0.0540253
-0.119862
-0.0354524
-0.00785358
0.0216371
-0.0336421
-0.0203251
0.0213455
0.0453936
-0.0339589
0.025743
-0.0691669
-0.0939318
0.0316137
0.000218726
0
0
0
6.97592e-05
0
8.34383e-05
0.000122217
-1.3765e-05
3.65933e-05
7.54694e-05
0.000158563
-7.23535e-05
0
0.00014795
0
0
0.00049746
0
0
0
0
0.000519659
-0.000147376
0.000404231
-0.000402275
0.00103473
0.000252173
-3.30652e-05
0
0
-4.13161e-06
0
-7.62746e-05
0
0
0.000144945
-0.000116097
0
0
0
0
0
0
0
0
0
0
0
-3.1807e-06
0
0
-0.000491656
-0.000638889
0
0
0
0
0
0
0
0
0
0
0
0
-0.14186
-0.121644
-0.0658472
-0.16229
-0.169679
0.0306835
-0.166004
-0.197782
0.0550301
-0.225435
-0.205333
0.0333284
0.144694
-0.177305
-0.210399
0.0807852
-0.0905346
-0.103239
-0.00870716
0.0243465
-0.224633
0.166437
-0.0497288
-0.0133774
0
0
0
0
-0.0851873
-0.0281417
0.0118652
-0.0756092
-0.076794
-0.0571057
0.0901812
-0.0713081
0.0515041
0.152306
0.0539598
0.055873
0
0
0
-0.0130415
0
0.00420597
0
0
0
0
0
0
0
0
0
-9.28122e-05
0
6.2069e-05
-0.00860661
0.0011049
-0.0125688
-0.0130081
0.00374514
-0.0175359
-0.0173502
0.00484324
0.0242884
-0.0170824
0.00688544
0.0262432
-0.017785
0.00437789
0.00719541
0.0267517
0.0194234
-0.00488246
0.00689242
0.0297488
0.00394081
0.010397
-0.00132633
-0.0013154
0.0029633
-0.00181714
-0.00540109
-0.00125833
0.00169277
-0.00911784
-0.00172801
0.00739058
0.0416803
0.0296115
0.0228192
0.0224184
0.0178679
0.010007
0.0117145
0.00998448
-0.00652195
0.14988
0.101254
-0.0309781
0.16128
0.140446
0.00637555
0.156032
0.137117
-7.13528e-05
0.120704
0.144526
0.0224191
0.12714
0.121449
-0.00490618
0.137312
0.128022
0.00389105
0.108214
0.0972677
0.00866584
0.116867
0.0968198
-0.00342802
0.0825874
0.106109
-0.0176918
0.0857937
0.100866
-0.00602122
0.096001
0.0918182
-0.0174028
0.086529
0.0753576
-0.0246871
0.0776736
0.0560396
0.034729
0.0306702
0.052547
-0.0370391
0.0364964
0.0678533
0.0468408
0.216195
0.187182
0.0401165
0.162632
0.16695
-0.023659
0.181232
0.166434
0.0110327
0.151969
0.14141
0.0111006
0.157892
0.226892
-0.0590621
0.101424
0.191787
0.0571133
-0.0119587
-0.00586739
0.02441
0.0327547
-0.0086465
0.0235168
-0.0296497
-0.0250601
0.0241293
-0.000312697
0.000294094
0.0290937
0.0269252
0.00310006
0.0182423