/*--------------------------------*- C++ -*----------------------------------*\
  =========                 |
  \\      /  F ield         | OpenFOAM: The Open Source CFD Toolbox
   \\    /   O peration     | Website:  https://openfoam.org
    \\  /    A nd           | Version:  8
     \\/     M anipulation  |
\*---------------------------------------------------------------------------*/
FoamFile
{
    version     2.0;
    format      ascii;
    class       surfaceScalarField;
    location    "4800";
    object      phi;
}
// * * * * * * * * * * * * * * * * * * * * * * * * * * * * * * * * * * * * * //

dimensions      [0 3 -1 0 0 0 0];

internalField   nonuniform List<scalar> 
788991
(
-0.0842483
-0.00219322
-0.0538316
-0.0752705
0.00431435
-0.0695993
-0.0265925
0.0319136
-0.0713606
0.0775286
-0.0447318
0.100524
-0.0221735
-0.10362
-0.0777486
-0.0972873
0.078005
-0.0208037
-0.115784
0.0731234
0.0333987
0.0405604
-0.0651192
0.0409922
-0.0458401
0.0451312
-0.0617443
0.0701624
0.0512321
0.0482763
-0.0107934
0.0578025
0.0755555
-0.00921977
0.0601049
0.0172298
-0.0194005
-0.0435173
-0.0753459
0.018528
-0.0289536
0.043223
0.0184489
-0.0579365
0.0770431
-0.0232339
-0.0496463
0.0554953
-0.0159382
-0.0870256
-0.0789559
0.077464
-0.0758497
-0.00112956
0.0570428
0.0254096
0.0976609
-0.156401
-0.00289915
0.033057
0.0568992
-0.0176571
-0.0940717
0.017948
-0.0283286
0.0826616
-0.0358081
-0.0686488
0.0556399
-0.0280146
-0.0873428
0.038526
0.189392
-0.134188
-0.0242155
-0.0718966
0.0283566
-0.0670409
-0.0110719
0.0569792
0.0704614
-0.0884097
0.0462215
-0.029637
-0.0127845
-0.0218597
0.0621486
-0.0478329
-0.0574736
0.0159642
0.0624958
0.0211476
-0.0481505
-0.0489754
-0.0347267
0.0611446
0.0301383
0.0220538
-0.0225992
0.0395802
0.0295139
0.0272133
0.000687468
-0.0015587
0.0272764
0.0125289
0.0207656
-0.00309943
0.0135522
-0.0145793
0.0127872
0.0206554
0.00730993
0.00530348
0.0165285
-0.0237648
0.0213376
-0.000819131
5.59234e-05
-0.0100662
-0.0303403
-0.0145372
-0.0219296
0.00882429
0.017065
0.035096
-0.00087754
0.0276563
0.0135377
-0.0261403
0
0
0
0
0
0
-0.080743
-0.0259378
0.0193349
-0.00195446
0.14955
-0.0504923
-0.0541292
0.102903
0.188394
0.0089933
0.0532828
0.119886
0.0205127
0.0278199
0.0253013
-0.0269774
0.0177932
-0.00491948
0.0192909
0.00215696
-0.0044201
-0.0133465
0.00922316
-0.0183637
0.0301896
0.000626945
-0.0143009
-0.00625129
-0.0253057
0.0185059
-0.00872832
0.00504667
0.0281916
-0.0411072
0.00930264
-0.0384767
0.0231843
0.0576372
0.0296835
0.0153812
0.0561124
0.0242039
0.0652062
0.0347193
0.0591355
-0.0354275
0.0221532
0.0434763
-0.0151029
0.0163718
-0.0415813
0.0270802
0.0783376
0.00934675
0.0231656
0.0699622
0.00674407
0.0526796
-0.018804
0.0486297
-0.0376689
-0.0158044
0.018036
0.00550642
-8.83372e-05
0.0129524
-0.0127021
0.0289827
0.00859219
0.0188393
-0.0176558
0.0109003
0.0489373
0.00269594
-0.0396106
0.023547
-0.00743358
0.0606789
0.0647952
-0.0140746
0.0580266
0.0408366
0.0580867
0.010082
0.0404647
0.043885
0.0167431
-0.0149323
0.0192014
0.0235654
0.00103487
0.0182695
0.0234101
-0.00368294
0.0194794
0.0321062
0.0198259
-0.0517723
0.0452538
-0.00927357
0.00428185
-0.0553227
0.0231321
-0.0023164
-0.00198835
0.011662
-0.0255872
-0.0121601
-0.0355086
0.00496993
0.0344102
0.0630719
0.0297809
0.0759403
-0.058969
0.0352468
0.0571873
-0.0253607
0.0365222
0.0639516
-0.00830985
0.0309955
0.0599239
0.0280937
0.0160462
0.034396
-0.0151892
0.0482863
0.0599572
0.0186202
0.0599283
0.0509767
-0.017293
0.0571015
0.0368594
0.0259138
-0.00825326
0.0451639
0.00441991
0.0254992
-0.00597152
0.012116
0.0422752
0.0641954
-0.0211721
-0.0146719
-0.0482069
0.0479593
-0.0495732
-0.0141429
-0.0484053
-0.06402
0.0293475
-0.0517232
-0.0800441
-0.0556799
-0.0029872
-0.0231791
0.0956332
-0.097921
0.0981672
0.0584181
0.00846703
-0.0514056
-0.0170449
0.0320938
-1.79278e-05
-0.0555052
-0.0168878
0.0212615
-0.031206
-0.01237
-0.00672294
-0.0331719
0
0
0.0231331
0.0523935
0.0708374
0
0
0
0
0
0
0
0
-0.0418905
-0.0686995
0.0284886
-0.00123885
-0.0623348
0.0440076
-0.0770191
-0.0438465
0.0499668
-0.0619797
-0.0270364
-0.0489386
-0.0424692
-0.00227743
0.0357049
-0.016975
0.0131044
0.0245626
-0.00207092
0.0149607
0.00810093
0.00909235
0.00858103
-0.00382207
0.0119389
0.00304324
-0.00887591
-0.0208708
0.0126674
-0.0243154
-0.00182574
0.0140857
-0.0118537
0
0
0
0
0
0
0
0
0.0325815
0
0.0794761
-0.10126
0.0675798
-0.0664498
0.180753
-0.0408271
-0.0338796
0.128835
0.216381
0.0285549
0.0629829
0.149368
0.0308499
0.024327
0.0835124
-0.0369021
-0.0402432
0.0527456
0.062111
0.00457094
0.00789712
-0.0050472
3.51815e-05
0.000362162
0.00787515
-0.0057838
0.0301981
-0.0188184
-0.00114372
0.0553004
-0.0474242
-0.0274814
0.0082828
0.0200788
-0.0489225
0.0210493
-0.0283673
-0.0450998
0.00164716
-0.0242323
-0.0509386
0.00744491
0.0302118
-0.0804333
-0.0356943
-0.013738
0.017405
0.0176311
-0.00622747
-0.0512794
-0.0231404
0.0115579
0.011479
-0.00750375
-0.061387
0.0239213
0.0567503
-0.061578
-0.0118867
-0.0346151
-0.0341655
0.0291119
-0.0437831
-0.0259845
-0.0357039
-0.00340638
-0.0154552
-0.00704281
0.0110186
-0.00992977
0.0194834
0.0130956
0.00863105
0.0748336
-0.00647231
-0.0293337
-0.0421605
0.0290717
0.0461815
-0.0538282
0.0355217
-0.000728629
-0.0332035
0.023833
0.011711
0.00162005
0.0123147
0.0202848
-0.00752987
0.0261166
0.0254825
0.0160619
0.0401826
0.0511441
-0.0313863
-0.115737
0.0678987
-0.00378948
0.00402076
-0.117887
-0.0256684
0.0346214
-0.0333137
0.0330136
-0.0142321
0.01119
0.105143
0.0220461
0.0961933
-0.0730177
0.0393646
0.0764274
-0.0285636
0.03634
0.0507682
-0.000165514
0.0284173
0.0331271
-0.0125744
0.0232952
0.0236232
-0.0323413
0.0615558
0.0721408
-0.0366178
0.0665305
0.0669675
0.0238859
0.0220026
0.0182844
0.00809976
0.0351662
-0.00446885
-0.0109216
0.0135259
-0.0293112
-0.0262304
-0.0121257
-0.00229444
-0.0024767
0.000671371
0.0234471
-0.0164011
0.0805144
0.0252
-0.00319011
0.0547028
-0.0408854
0.0702041
0.0139993
0.0253471
0.0167336
-0.0196109
0.0218084
-0.0277544
0.0129101
-0.00510562
0.016959
-0.00731145
-0.0263798
-0.0179425
0.0308201
-0.0235857
-0.039487
-0.0481877
-0.00122525
-0.0487419
0.0255258
0.0214719
-0.00973306
-0.0232335
-0.0308428
-0.00986732
0.0234505
0.0587142
-0.0372093
0.0174663
0.0581898
0.0131905
0.139864
0.130411
-0.0436372
0.143739
-0.170635
-0.0288424
0.0982725
-0.08307
-0.0276799
0.0415949
-0.0496726
-0.0356603
0
0
-0.0692521
0
0
0.0369403
0
-0.0832395
0
0
0
0
0
0
0
0
0
0
0
0
0
0
-0.0222453
-0.0902609
0.0682938
0.0209788
-0.0873498
0.0831816
-0.0746951
-0.0210214
0.064373
-0.0461692
-0.00782105
0.0456801
-0.0197248
0.00903434
-0.0312696
-0.00478234
0.0173541
0.0245719
0.011834
0.0197429
-0.00718734
0.0114599
0.0115449
0.00973552
-0.000938773
0.0151129
-0.0133779
-0.0103053
0.00886702
0.0172888
-0.0110149
-0.000832017
0.00466962
1.55298e-05
0
5.63984e-05
0
0
3.30987e-05
2.43327e-05
-3.76812e-05
-3.51256e-06
9.86435e-05
0
-6.84881e-05
0
0
0
0
6.41311e-05
0
0
-4.24283e-06
0
0
0
0
0
0
0
0
0
0
-0.149298
0
-0.0689731
-0.075923
-0.0418604
0.0271349
0.149662
-0.0428303
0.0358473
0.104097
0.181162
-0.0557133
0.053023
0.146808
0.0650742
-0.00655455
0.110804
0.0811025
-0.0627181
0.0705338
0.0942963
-0.00742176
-0.0116502
0.0173188
-0.00269187
0.0218672
-0.0222808
-0.0107475
0.0105404
0.0410875
-0.0248355
0.00427074
-0.0446546
-0.0163351
0.00113976
-0.0326887
-0.00627459
0.0339326
0.0112947
0.0553742
0.0245523
-0.00759183
-0.0642524
-0.0539977
0.0565144
0.00847106
-0.0286348
0.0200161
-0.0289925
0.0113588
0.0204709
0.0105932
0.0412695
-0.0401035
0.00625618
-0.00181945
0.0147581
0.0189337
-0.0315861
-0.029285
0.0205525
0.0209042
0.0536792
0.0297655
0.0185462
-0.0477255
0.0570829
-0.0567507
-0.0593835
0.00642051
-0.052682
0.020902
0.00904176
0.0739356
-0.0910885
-0.0690277
0.0247932
-0.0765829
0.00154514
0.0181442
-0.0796021
-0.0536291
0.0343638
-0.0308613
0.0154236
0.119477
-0.0369575
-0.0199877
-0.0243786
0.0189048
-0.0169669
-0.0272224
0.00692796
0.0170398
-0.0438732
0.0058615
-0.00853686
-0.0162069
0.00770708
0.00647377
-0.00881984
0.0326305
0.0265789
-0.0108888
0.0438931
0.0438603
0.027549
0.0475539
0.070886
0.0429165
-0.156376
0.141948
-0.0508103
0.00334236
-0.1249
0.174207
-0.22677
-0.0920235
0.123498
0.023347
0.0262071
0.00279883
0.0248815
0.021698
0.0201082
0.00903925
0.00524122
0.0169391
0.00981225
0.00733303
0.000685359
0.0343517
0.0254932
-0.031059
0.0278841
0.0708559
-0.0300033
0.0167604
0.0647637
0.0186361
0.00516709
0.0287199
-0.00556621
-0.00908337
-0.00213762
-0.0121494
0.00530942
0.0023403
0.012349
0.0278505
0.00543377
0.0423486
0.0172079
0.0247206
0.0146335
0.031116
0.0337818
-0.00573202
0.0209566
0.0280542
0.00291499
0.0153797
0.0778952
-0.0169864
0.0222417
0.0393031
-0.0247194
0.0667659
0.00490928
-0.0299954
0.0727903
0.0134245
0.0668901
0.108928
0.0249285
-0.000996521
0.0681877
0.0124968
0.00109422
-0.00297795
0.00746949
0.00279959
-0.0167179
-0.0281145
-0.0242915
-0.025453
-0.0323281
0.0207267
-0.0847873
0.0135687
0.00419659
0.00016213
0.026843
0.0440745
0.117331
0.112905
-0.0569872
0.0614834
0.0234795
0.0113112
-0.0347311
-0.00580308
-0.0110203
-0.0181014
0.0170635
0.00432293
-0.0280885
-0.00836282
0
0
0
0
0
0
0.0175922
0
0.0112044
0
0
0
0
0
0
0
0
0
0
0
0
0
0
0
0
0
0
0
0
0
0
0
0
-5.74554e-06
0
-2.19647e-06
0
-1.72317e-06
-6.43253e-06
4.70908e-06
0
-4.52937e-06
1.15499e-06
1.32584e-06
0
2.88729e-07
0
0
0
0
0
0
0
0
0
0
0
0
0
0
0
0
0
-0.000415894
-0.0871238
-0.0797281
0.035067
-0.083128
0.0895808
-0.0509828
-0.00286819
0.0540882
-0.0217406
0.00735567
-0.0380059
-0.00129795
0.0134447
-0.0357389
0.00962534
0.019456
0.0176318
0.0122945
0.015244
-0.00479464
0.00638349
0.0171201
-0.00184836
-0.000418721
0.0155935
0.00703889
-0.00688027
0.0162267
0.0102124
-0.013025
0.0126741
0.00159648
0
0
0
0
0
0
0
0
0
0
0
0
0
0
0
0
0
0
0
0
0
0
0
0
0
0
0
0
0
0
0
0
0
0
0
0
0
0
0
0.000161825
0.000214933
0
0
0
0.000286528
0
0.000196234
-0.00154533
0.0135249
0.0328061
-0.0827331
0.025982
-0.0354749
-0.0803682
-0.0641278
-0.0249048
0.102587
-0.0541919
0.0269712
0.0839191
0.140713
0.0523948
0.0291853
0.131713
-0.0722512
-0.0269417
0.096767
0.0877399
-0.0624557
0.0595905
-0.0861749
0
0
0
1.10941e-06
0
0
0
0
0
0
0
0
0
0
0
0
0
0
0
0
0
0
-0.0124198
0.00145402
0.0380877
-0.0158881
-0.00206
0.0174085
-0.0294123
0.0141717
-0.013591
-0.0210067
-0.00209712
-0.0474411
-0.0412986
-0.00648225
-0.0321125
-0.0320698
-0.0238245
0.038815
-0.0321235
0.0135515
0.0466024
-0.0121875
0.0338093
-0.0176651
-0.0544205
-0.0121699
0.0178281
-0.0205293
-0.0279306
-0.0358481
0.0261277
-0.0744411
-0.0134712
0.0390194
-0.0110832
0.0236478
-0.0137221
-0.00313763
0.0111307
-0.0714029
-0.0560276
0.0464449
-0.037753
-0.0232966
0
0
0
0
-0.0785872
0.136622
0.0319213
-0.0746876
0.0513652
-0.0531845
-0.114825
-0.0211912
0.0530199
-0.0609055
0.112328
-0.0828991
0.0664471
-0.0954025
-0.0231037
0.0409288
-0.0979666
-0.0438503
0.0427455
-0.017284
-0.0324941
-0.0114507
-0.0604802
-0.0274681
-0.0307803
-0.061041
0.0163131
0.00874906
-0.0409962
0.0044869
0.0520152
-0.0101592
-0.0245479
-0.0262468
-0.00661661
0.00631785
-0.0324255
-0.0149462
-0.0258557
-0.000244734
0.0451159
0.0303544
0.0060766
0.0235636
0.0403328
-0.0420959
0.0125037
0.0211125
0.0914471
0.0983107
0.0647943
-0.101592
-0.352316
0.13401
-0.301884
-0.0849359
-0.00727823
-0.0302526
0.012178
-0.00449755
-0.0317633
0.00607923
-0.0283002
0.0301369
0.0100036
-0.0662996
-0.0446922
0.0250181
-0.0318589
-0.0024527
0.0536074
0.0497218
0.0108213
0.0438228
0.0764941
-0.020296
0.00786064
0.052894
0.0147566
0.00996145
0.0330481
-0.0141047
0.0342975
0.0488085
0.00753087
0.050168
0.064563
0.0189097
0.0592272
0.047063
0.0297808
0.0786375
0.0394565
-0.0361998
0.0592805
0.0495855
-0.00834332
0.0477615
0.0190682
0.0165243
0.0264918
0.0208107
-0.0208715
0.00353099
0.0269873
-0.0267245
-0.00444972
0.0212215
-0.0252379
0.0389001
-0.000377354
-0.0346855
0.0545275
-0.00501555
-0.0433601
0.0962001
-0.00368402
-0.051351
0.113371
0.0181838
0.0520841
0.0770334
0.0333106
0.0321601
-0.0612451
0.0545009
-0.0576535
0.0607775
-0.0119897
0.016337
0.0527136
0.0132178
0.0730143
0.018569
-0.0496698
0.0282384
-0.0382422
-0.00106491
0.00786183
-0.0354164
0.0364297
-0.0275577
-0.000374275
-0.00491256
-0.0333843
0.0445668
-0.0320349
0.00940271
-0.0026454
0.0386109
-0.0446946
-0.0322052
0.00723441
0.0154214
-0.0372238
0.0359797
-0.0385371
0.0116965
0.0129967
-0.0305719
0.0308269
-0.0375428
0.00267593
-0.0122518
-0.0226518
-0.0292181
0.0262978
-0.0100485
0.0295955
0.0216365
0.00259246
-0.0219542
-0.0118025
0.00764022
-0.000163943
-0.00734539
0.0111298
0.0327348
-0.00492088
-0.00719626
-0.132891
0.0407337
-0.082665
-0.026006
-0.00112971
-0.00941562
-0.0326569
-0.0562297
0.0313204
-0.0468897
-0.000717973
0.0760754
-0.0600179
0.0242764
0.0870348
0.0491944
-0.092733
0.0932312
-0.0281875
-0.0262077
0.0269272
0.0126752
-0.0126359
0.0495006
0
-9.41615e-05
1.41362e-06
0
0
0
0
0
0
0
0
0
0
0
0
0
4.01218e-05
0.000103928
0
0
0
-9.29747e-05
0
0
0
0
0
0
0
0
0
-2.75926e-05
-0.000142337
0
0
0
0
0
0
0
0
0
0
0
0
-5.89208e-07
0
0
0
0
0
0
0
0
-0.000179901
2.4343e-07
0
0
0
0
0
0
-0.000193275
-9.29713e-05
0
0
0
-0.000199962
-5.85067e-05
-0.000146509
-5.80008e-05
5.23229e-05
-0.000145454
-1.50293e-05
-9.09206e-05
0
-9.2984e-05
-0.000155141
0
-6.38621e-06
0
0
0
0
0
0
0
0
0
0
0
0
0
0
0
0
-0.000119574
0
5.5111e-05
0
-6.46362e-05
0
0.0145195
-0.0597739
0.065005
0.0318229
-0.0584958
-0.0651736
-0.0204305
0.00874461
-0.0360405
-0.00142169
0.0126163
0.0301471
0.0116383
0.0217525
0.0102265
0.0122269
0.0194824
0.00662675
0.00884296
0.0163275
0.0110476
0.00367413
0.00292865
0.00512568
-0.0119642
0.00242571
0.0166612
-0.00159022
0.000117771
0.021399
-0.00338264
0.0116749
0.00723005
0
0
0
-0.000238926
0.000405762
0.00253775
0
0
0
0
0
0
0.00100786
0.028866
0.023889
0
0
0
0
0
0
0
0
0
0
0
0
0
0
0
-5.31169e-05
0
0
6.22745e-05
6.85538e-05
4.14546e-05
0
-5.90478e-05
0
-0.000975162
0
0.0370846
-0.0109982
0.0598734
-0.0536035
-0.0852017
-0.0342575
0.033647
-0.0850362
-0.0743897
0.0119428
0.0641239
-0.0576461
0.00226855
0.0564058
0.0782063
-0.0281502
0.00624317
0.0877681
-0.051857
-0.0290787
0.0482391
0.0533986
-0.0420676
0.0408815
0.0271606
3.2517e-05
0
0
1.20103e-05
0
1.97765e-05
0
-8.54672e-07
0
-7.17522e-08
0
3.13294e-06
-1.95388e-06
0
0
0
0
0
0
0.00010952
0
0
0.000182104
0
0
0
0
0
0
0
0
0
0
0
0
0.00460676
0.0329634
-0.00631703
-0.0171814
-0.0123419
-0.0155347
-0.0240482
-0.00122059
-0.0199614
-5.82668e-06
-0.00377846
-0.00740421
-0.00946867
0.0136453
-0.00446826
-0.0034032
0.0028776
0.0208653
-0.0353277
-0.0294419
0.0117894
0.00426489
-0.0140296
0.00278872
0.039662
0.000194317
0.000348351
-0.0593234
-0.000176791
0.0440253
-0.0531122
-0.00778513
0.0201433
0
0
0
0
0
0
-0.0429514
-0.0228699
0
0
0
0
0
0
0
-2.34835e-05
0
-2.16299e-05
-0.0639363
-0.0835147
-0.0447389
-0.09293
-0.139057
-0.0458044
-0.085722
-0.110137
-0.00426784
-0.117275
-0.0734675
-0.0712902
-0.0485336
-0.0371386
0.00282865
-0.0593434
-0.0537335
-0.0121588
-0.0230253
-0.0330081
-0.003981
-0.0357847
-0.0196119
0.00237904
-0.0429695
-0.0241207
-0.00186322
-0.0403003
-0.0378551
0.00326686
-0.0416984
-0.044769
-0.00246693
-0.0475172
-0.0492171
0.00274687
-0.0316694
-0.020071
0.0156734
-0.0175184
0.00996049
-0.0387961
-0.0394923
-0.0130026
-0.13812
-0.0396934
-0.0588363
-0.0981758
-0.0795848
0.0356852
-0.0564959
-0.00655717
0.0298096
-0.112054
-0.0594232
-0.0308813
-0.00978725
-0.00892801
0.0551372
-0.0125201
0
0.000426469
0.0109499
-0.033622
-0.0346641
0.0405565
-0.000191751
-0.0313094
0.0249761
0.00879463
0.00548113
0.0574155
0.0179307
0.00440152
-0.0590987
-0.0227575
-0.0398769
-0.0360431
0.00556859
0.0243056
-0.297889
-0.0823748
0
-0.056119
0
0.0660978
0.0147881
0.0224647
-0.0761726
0.0376232
-0.0108287
-0.0138737
-0.0213211
-0.0111422
0.00540337
0.0159018
-0.0757248
0.0207747
0.048909
0.0511584
0.0354985
0.0402738
0.0706024
0.00992727
0.0152283
0.0303806
0.0147907
0.0285059
0.021466
-0.0507387
0.038341
0.0483572
0.0235857
0.0396467
0.0463284
-0.031617
0.0463543
0.0928452
0.0364452
0.0434986
0.00321825
0.0193224
0.0742189
0.0301223
-0.0209154
0.00637878
-0.00295745
-0.00150562
0.0228442
-0.00473652
0.0119159
0.0199442
-0.002058
-0.0180701
0.00190562
0.0413212
-0.0385398
0.0112046
0.0695733
0.045649
0.0625658
0.0358239
-0.0475649
0.0605604
0.0105034
0.058803
0.0876374
0.00926833
-0.0591291
0.0861446
0.0314301
-0.0641754
0.0662623
0.02789
0.0745182
0.0918953
0.0217282
0.0620495
0.0456932
0.00833135
-0.0434789
0.0372179
0.000601699
-0.041336
0.0458679
-0.00171331
-0.0469281
0.0613802
0.00750622
-0.0428213
0.0386675
0.0162471
-0.0411446
0.0265048
0.00236111
-0.0244155
0.0116373
0.0229302
0.0267868
0.00160085
-0.0677946
-0.0153403
0.00217803
0.00400199
0.0248106
-0.00606954
-0.00816121
-0.00598637
-0.00895225
-0.0152545
0.00558971
0.00752911
-0.00387942
-0.00331152
0.000637693
-0.00330439
-0.0765326
0.0229567
-0.0208745
0.0228238
-0.00690721
-0.033168
0.00541795
0.0300149
-0.0420256
-0.0300654
0.0461599
-0.00928888
0.0370321
0.00420649
-0.0395077
-0.0887045
0
0
0
0.0254939
0.0381468
0.00969242
-0.0747406
0
0
-0.0811835
0
-0.128279
-0.0334712
0.0382138
0.0136177
0.00189887
0.00757183
-0.0265687
-0.0544293
-0.00193616
-0.0105937
0
0
0
0
0
0
4.77748e-05
5.92771e-05
7.89805e-06
0
0
0
-4.08159e-05
0
0.000128534
0
-5.62866e-05
0
0
0
0
0
0
0
0
-7.33157e-06
-6.19503e-05
0
0
0
0
-0.000184499
0
0
0
0
0
0
0
0
-1.2377e-06
-2.99599e-06
0
0
0
0
-6.39601e-05
-2.67797e-05
0
0
0
-9.76764e-05
0
0
0
0
0
-0.00013601
0
0
-0.00015947
0
0
0
0
0
0
0
0
-0.000147627
0
8.34043e-05
-5.90469e-05
0
5.9844e-06
0
-5.29694e-05
0
0
0
0
0
0
0
0
1.76001e-06
0
0
0
0
0.0131306
-0.0218653
0.035954
0.00939277
-0.0259622
-0.0251787
0.00567617
0.0104316
-0.0172514
0.022341
0.0159262
0.0028474
0.0215126
0.0190768
0.021833
0.0164314
0.0177446
-0.0273846
0.0105311
0.0122806
-0.0104517
0.00907766
0.0125869
0.000885308
-0.0225078
0.00163316
0.0107176
0.00363214
0.00800807
0.0126953
-0.0109051
0.00228521
0.00808784
-0.00145294
0
-0.000216044
0
-0.000599302
-0.00016685
0
0
0
0.0996766
0
0.023628
0
0.0220387
0
0
0
0
0
0
0
0
0
0
0
0
0
0
0
0
-9.4143e-05
0
0
0
0
0
0
0
0
-0.025818
0.0253353
0
-0.0569272
-0.00819823
-0.0217904
-0.0826994
-0.0347893
0.0288109
-0.0827598
-0.0728432
-0.00351239
0.032334
-0.0580911
0.0255232
0.04158
0.018932
0.00254352
-0.000599099
0.0425175
-0.000542622
-0.0159563
-0.0221861
0.00971865
-0.000826767
-0.00460176
-0.00262299
0
0
0
0
0
0
0
0
0
0
2.1403e-06
0
0
0
0
0
0.000113133
0
-2.67994e-05
-0.00690176
8.64806e-05
0
0
-7.44427e-05
0
0
0
0.000272225
0
-0.000196115
0.00858644
-0.00160888
-0.00308436
0
0
0
0
0
0
0
0
0
0
-0.00482157
0
-0.025397
-0.0137562
-0.000278394
-0.00968082
-0.00041781
0.0080858
-0.0142194
-0.0181534
-0.017473
0.00463441
0.0188871
0.0230566
0.0101413
-0.0207049
-0.00207698
-0.0115515
-0.0210853
-0.0213009
0
0
0
0
-0.00147402
0.000312877
-0.000409703
-0.0464288
-0.00187506
0.0274132
0.00134427
0.0126002
-0.0169074
-0.0191639
0.00949358
0.013594
0
-1.89426e-06
0
-0.000489934
0
0
0
-5.26393e-05
1.92799e-05
0
0
0
0
0
0
0
0
0
0.00530473
0.00132133
0.0168442
-0.00780014
-0.00433664
-0.0188965
0.00611123
0.0252514
0.0167861
0.0188945
-0.0181005
0.00731718
-0.00420746
0.00793783
0.023907
-0.00109986
0.0190082
0.0015532
-0.0142529
0.00513838
-0.0112795
0.0265246
-0.0272032
0.00265878
-0.00353575
-0.0234675
0.019961
-0.0212946
0.00520187
-0.00625524
0.0372076
-0.0277218
0.00618926
0.0134139
-0.0110784
-0.0333146
-0.00826895
-0.0170767
0.004501
0.00124753
-0.0175705
-0.000127587
0.0186903
0.009283
-0.00544663
-0.0715376
-0.0894403
-0.0476444
-0.0752799
-0.131401
-0.0339737
-0.0926152
-0.103604
0.00441269
-0.122543
-0.0616283
-0.0549988
-0.0380556
-0.0343752
0.00118526
-0.0591941
-0.0521871
0.0157412
-0.0293165
-0.0273318
0.018403
-0.0161217
-0.0200633
-0.0185871
-0.0330738
-0.0372464
-0.02019
-0.0415525
-0.0457252
-0.0231836
-0.0505258
-0.0569896
-0.00712075
-0.0579512
-0.050742
0.00355404
-0.0359337
-0.0288978
0.00634506
-0.0403203
-0.0355763
0.0163817
-0.0546249
-0.133326
-0.0337314
-0.0708095
-0.0497047
-0.105621
0.0546016
-0.110997
-0.084015
-0.0245509
-0.0263851
-0.000754553
-0.0738814
-0.04255
-0.056261
-0.0635895
-0.0194709
-0.0142007
-0.0163415
0.00477722
-0.0167637
-0.0190322
0.0038703
-0.0157494
-0.0145324
0.00324313
0.00108637
0.000215439
0.00478388
0.0122269
0.0200624
0.0155242
-0.0111229
0.0209591
0.0140938
-0.0119865
0.00456602
0.0119329
0.00476498
0.00164413
0.00601122
0.0146904
-0.0127796
0.000191562
-0.00147227
-0.0881637
-0.00169245
0.0235911
0.0551608
0.0139901
-0.0173027
-0.0452178
0.00635865
-0.0304181
0.0111767
-0.0499991
0.0237996
-0.0344102
0.00418689
-0.0138468
0
-0.00344714
0
0
0
0
0
0
0
0.016838
0
0
-0.0501079
-0.0241189
0.0206504
-0.0178344
0.00468189
-0.0167178
0.0481978
-0.0301217
-0.0244578
0.0151168
0.0040795
0.0846783
0.0205191
-0.00218381
-0.000414009
0.00871298
0.0244281
0.0188191
-0.0238809
0.0210253
0.0429318
0.00947061
0.027764
-0.0587152
0.0389479
0.107482
-0.0451454
0.0492855
0.116099
-0.0404755
0.0447827
0.015782
0.00789371
0.0531018
0.0355314
0.0207871
0.0124344
0.0162752
0.00373908
0.0281912
0.0255325
0.00472041
0.0665037
0.0253552
-0.0245862
0.056208
0.121924
-0.0502503
0.0481894
0.114495
0.0449805
0.0976853
0.0576014
0.0681087
0.0762099
0.0135287
-0.0803609
0.08422
-0.00360408
-0.0625365
0.0719607
0.0248902
0.0909972
0.0816349
0.00570048
0.0713277
0.0587484
0.0090896
-0.0538911
0.0478774
0.00534371
-0.0501025
0.0505221
0.00885138
-0.0512533
0.0594205
0.00285132
0.0511139
0.0593039
0.00761734
-0.0490562
0.0424861
0.0108483
0.0371268
0.0117977
0.0113798
0.0367203
0.00373661
-0.0735583
-0.0172702
0.00500798
0.0941527
0.00262165
-0.0148513
-0.0745069
0.00684605
0.00264328
0.00692824
0.00420377
-0.0261844
-0.0658978
-0.00361587
-0.0565322
-0.0835569
0.00699764
-0.00381524
0
-0.00733161
0.114257
-0.0484387
-0.0136033
-0.128444
-0.112499
0
0
0
0
-0.00173459
0
1.48927e-05
-0.0384433
-0.0810735
0
0
-5.12605e-05
0
-0.0155524
0
-0.0253679
-0.0238872
-0.00948531
0
-0.0115971
0
0
0
0
0
0
2.8869e-05
3.16159e-05
-0.000126424
8.70122e-05
0
7.60059e-05
7.88199e-06
4.26048e-05
1.41098e-05
0
0
0
0
0
0
0
0
0
0
0
0
-3.24953e-05
0
-4.99779e-05
0
0
0
0
0
0
0
0
0
0
0.00309501
0.00194022
0
0
0
0
0
0
-3.7246e-05
0
0
0
0
0
0
0
0
0
0
0
0
-5.43097e-06
-7.29384e-05
0
0
0
0
-0.000663398
-0.000600964
0
0
0
0
0
0
0
0
0
0
0
0
0
0
0
0
0
0
0
0
0
0
0
0
0
0
0
0.00116104
0
-0.00147789
0
0
0
0.00341746
0
-9.00591e-05
0.0154293
0.0135109
-0.00186012
0.024851
0.0140724
-0.0181862
0.0152397
-0.002973
0.0014585
0.00323712
-0.00915594
-0.00170505
-0.0107908
0.00503731
0.0270523
0.00350499
0.00725314
0.029965
0.00762397
-0.026249
0.0251383
0.00903385
0.0404681
0.0257202
-0.000987448
0.00740433
0.0144338
-0.00641769
0.0102292
-0.0180247
-0.00381637
-0.000285732
0.000691475
0.00429525
-0.00146938
-0.00186387
-0.00185199
-7.30621e-05
0
0
0
0
0
0
0
0
0
0
0
0
0
0
0
0
0
0
0
0
-0.026585
0.0255505
0.0368571
0
0
0
0
0
0
0
0
0
0
0
0
0
0
0
0
0
-0.0304561
0.0446105
0.00715798
-0.0751904
-0.034912
-0.00248651
-0.0153241
-0.0126582
-0.0104292
-0.00721677
-0.055829
-0.0720567
-0.0209556
0.0118522
-0.0482655
-0.0282769
0.0486476
-0.00960446
0.0258038
-0.00512833
0.0166219
-0.00334713
0.00600214
-0.00873953
0
0
1.83061e-05
-2.76749e-06
0
0
0
0
0
0
0
0
0
0
0
0
0
0
0
0
0
0
0
0
0
0
0
0
-7.32587e-06
-2.42472e-05
0
0
0
0
0.000130593
5.03547e-05
0.000885896
0
0
0
0.00093548
-0.000683303
0
0
0
0
0
0
0
0
0
0.000459559
0.000690995
0.000523065
-0.013657
-0.0259611
-0.0203923
-0.00673172
-6.47895e-05
0.00131955
-0.00745285
-0.026475
-0.0189726
0.0163056
-0.0282124
-0.0141059
-0.00371278
0
0
0
0.000237881
-0.00995303
-0.00998653
0
0
0
-3.3328e-05
0
0
0
0
0
0.00439535
0
0
-0.046125
0
-0.00676649
0.0264451
0.00926494
0.0488038
0
0
0
0
0
0
0
0
0
0
0
0
0
0
0
0
0
0
-0.0302234
-0.0128242
-0.0114217
-0.00496663
-0.0284536
0.021328
0.0221967
0.0146223
-0.0178705
-0.0363023
-0.006035
-0.0388774
0.0168806
-0.000613538
0.020302
0.0294683
0.00382413
-0.0184395
0.0269621
-0.00653186
0.037086
0.0159975
0.0010118
0.0342414
-0.00249944
-0.0173173
0.00157744
-0.00293348
-0.0191858
0.0019513
0.00362874
-0.00614791
0.00999194
-0.0669238
-0.0873007
-0.0424085
-0.07312
-0.110186
0.0136489
-0.0949407
-0.087464
-0.00317045
-0.107661
-0.0615239
0.027068
-0.03889
-0.0424433
0.0038253
-0.0273259
-0.0612726
-0.0260095
0.00750048
-0.0447747
-0.00164141
0.0275272
-0.0319386
-0.0283871
0.000689538
-0.00749019
-0.0265117
-0.0257747
-0.0204572
-0.0412554
-0.0322402
-0.0356351
-0.0446635
-0.0324017
-0.0571878
-0.0573472
0.00865437
-0.056284
-0.0618164
-0.00811317
-0.0369142
-0.0229569
-0.00658219
-0.0396842
-0.0371876
0.00508623
-0.0865942
-0.0656726
-0.00370294
-0.0802026
-0.10032
0.0164578
-0.06967
-0.104452
0.044721
-0.0976416
-0.0755493
-0.00404026
0.0636339
-0.0245444
0.0530409
-0.00328253
-0.0591958
0.0520146
-0.0222702
0.00404084
-0.0343749
-0.0126712
-0.0177612
0.00736016
-0.0140605
-0.00371957
0.0165725
-0.00262609
0.0110484
0.010237
0.0187622
0.0144527
0.0185869
-0.0173592
-0.00234228
0.0276344
0.0176794
-0.012777
0.00389473
-0.0132971
-0.0137698
-0.00402429
0.0149387
-0.00708396
0.0118663
-0.0222632
-0.00974983
0.0299081
-0.000808217
0.0290167
-0.00185246
0.0144937
0.0198788
0.015376
-0.00124692
-0.000752817
-0.000348853
-0.00189891
-0.0297421
-0.000124238
0.0543648
-0.0427532
0.0143126
0.0127794
-0.0759408
0
0.000769887
0
0
0
0
0
-0.000104946
0
3.99985e-05
0
-1.87355e-05
-2.32528e-05
0
0
0
0
4.94952e-05
4.12504e-05
0
-0.0815106
0.0402305
0.0203768
-0.147789
-0.00759309
0.026657
0.0101782
-0.00417588
0.0416854
0.00175506
-0.0204742
-0.0149907
0.00340692
0.0191211
-0.0115079
-0.00131552
-0.0378013
0.0304799
0.0349144
0.061453
0.0518987
0.0735529
-0.0719392
0.0529687
0.0855615
0.0379443
0.0237683
0.0617885
-0.00592605
0.0279901
0.0336253
-0.0125499
0.0348448
0.014778
-0.017555
0.0333725
0.0490957
-0.00785022
0.0306872
0.0353616
-0.00795389
0.0882208
0.0488622
-0.0308973
0.061496
0.109892
-0.059652
0.0432805
0.0885235
-0.0497367
0.0835474
0.0402269
-0.0740955
0.0451158
0.0035374
-0.0777757
0.0669304
-0.0365651
0.0789064
0.020231
-0.0742988
0.0694672
0.00101215
-0.0549729
0.0550625
0.0121273
-0.0481174
0.0591667
0.0119166
0.0495884
0.0541691
0.00599703
-0.0534933
0.0539018
-0.00119602
0.0495201
0.0551598
-0.000220048
-0.0454216
0.0168389
-0.00136839
-0.0399383
0.0190055
-0.0280995
-0.0258578
0.00701299
0.0640771
0.0112664
-0.0162759
-0.150856
0.00807694
-0.0177196
0.0936276
-0.0322042
0
0
0
-0.00567293
0
0
0
0
0
-0.0384384
0
0
0
0
0
0
0
0
0
0
0
0.00026495
0
0
0
0
0
0
-6.21883e-06
0
0
0
0
0
0
0
0
0
0
0
0
-0.000139356
-0.00018956
2.12154e-05
0
-4.81202e-06
0
0
0
0
0
0
0
0
0
0
0
0
0
0
0
0
0
0.00187511
-0.00177962
-0.000107084
0
0
0
0
0
0
0
0
-0.00457294
0
-0.002251
0
-0.0118705
0
0
-0.000772994
0.0015399
7.45917e-06
0
-3.47189e-05
0
0
0
0
0
0
0
0
0
0.000213903
0.000185758
0.000445323
0
-2.53547e-05
0
-0.00268719
0.00103253
-0.00125936
0
-0.000691078
0
0
0
0
1.39832e-05
0
-7.72146e-05
0
-3.40025e-05
-3.77051e-05
0
0
0
-1.72084e-06
-2.74081e-05
5.83125e-05
4.37371e-05
-6.1556e-05
0
-1.9923e-05
0
0
0
0
0
1.6416e-05
0
0
0
0
0
-9.46035e-06
0
1.04022e-05
0
0
0
0.000687956
0.000191281
0.000604801
0
0
0
0
0
0
0.0246357
0.00238693
0.00288904
-0.0146636
0.0275779
0.00413791
-0.00572359
0.0306429
0.0282916
0.0284417
-0.000381335
-0.0327741
0.0315467
0.00150836
-0.001821
0.00803763
-0.00807349
-0.0110803
-0.002482
0.00869766
0.0218866
-0.00793414
0.0189874
0.0155799
-0.009403
-0.0351349
0.019742
-0.00876911
-0.0284744
0.0157788
-0.00470018
0.0120772
0.00379912
-0.0103487
-0.00179891
-0.0420235
-0.0076038
-0.022333
-0.00597285
0.00978216
0
0
0
0
0
0
0
0
0
0
0
0.0140661
-0.00261783
-0.0317425
0.0233637
0
0
0
0
0
0
0
-0.0400634
0
0
0
0
-1.4604e-06
0
2.86205e-06
0
1.39839e-06
0
0
0
0
0
0
-0.0094042
-0.0074829
0.0187006
0.0160163
-0.0236749
-0.000751717
-0.0112631
-0.0562311
-0.0553818
-0.0149883
-0.0060031
0.0257085
0.0234405
-0.0307766
-0.0639245
0.0271644
0.0146508
-0.0444164
-0.0322983
0.0210223
-0.0222361
0.0221964
0.0131412
-0.0172899
1.3479e-06
0
0
4.54064e-06
6.93473e-05
-1.51861e-05
9.0383e-05
0.000116631
-2.10941e-05
3.59318e-05
4.45003e-05
0.000152326
-6.54763e-05
0
0.000110099
0
0
-1.99541e-05
5.56836e-05
0
0
0
1.65018e-05
-0.000175741
-3.78185e-05
3.55255e-05
0.000122399
-1.7523e-06
9.5185e-05
0.00018371
0
-6.15956e-05
0.000106942
5.47355e-07
0
0
2.05695e-05
-3.26649e-05
0
0
0
0
0
0
0
0
0
0
0.000253916
0
0
0.000786693
0
0
0
0
0
0
0
0
0
0
0
0
0
0
-0.0398406
0.0240153
0.0188913
0.0162048
-0.0598857
-0.00693279
-0.015038
0.00957563
-0.0288791
-0.0192841
0.00161285
-0.00186993
0
0
0
0
-3.60842e-05
-2.16232e-05
1.74235e-05
-0.0372416
-0.0295941
0
0
-2.12145e-05
0
0
0
0
0
0
0
0
0
0
-0.0424926
0
-0.0192049
0.00208369
-0.0542952
-0.00788479
0
-0.00160352
-0.00151379
-7.55482e-05
0
8.23774e-05
0
0
0
0
0
0
0
0
0
-0.00663565
0
0.00170889
-0.0343221
-0.022832
0.036146
-0.0246857
-0.0407064
0.00283012
-0.00245901
0.0150641
0.026213
0.0350332
0.0756836
0.012105
0.011717
0.0192425
-0.0107268
0.00894088
0.0064756
0.0197103
0.0135982
-0.000300039
0.0174927
0.00584017
0.00580697
0.0272873
0.00284552
-0.0162675
0.0395412
0.00949151
-0.0182291
-0.00421626
0.00595692
-0.0422228
-0.0127851
-0.0273223
0.00666992
0.00799913
-0.00888276
-0.000657419
0.00341166
-0.00843175
-0.0141386
-0.0547617
-0.0742219
-0.0232861
-0.0834436
-0.086426
-0.00369945
-0.0796056
-0.0714756
-0.0163097
-0.0921357
-0.0673517
0.00215365
-0.0351844
-0.0399698
0.0113522
-0.0553634
-0.0557438
-0.0240791
-0.0261307
-0.00265219
-0.0207523
-0.0261074
-0.0154081
0.0023211
0.000692749
-0.0184478
0.0229301
-0.00862712
-0.0224823
0.0268972
-0.0391069
-0.0449366
-0.0219938
-0.049252
-0.0549416
-0.0251996
-0.0487296
-0.0560445
-0.00324562
-0.0222661
-0.0218378
0.00417516
-0.0447097
-0.0253371
-0.0124908
-0.105615
-0.0610931
0.0137878
-0.053751
-0.0696959
-0.0134553
-0.0359304
-0.0719547
-0.0369373
-0.0716764
-0.0849486
0.0312347
0.000106474
-0.0172783
-0.0534843
0.0500054
-0.0306097
-0.0323239
-0.0240889
-0.00785163
-0.0824238
0.0156359
-0.00459116
0.0652879
-0.0272015
-0.0254144
0.00125982
0.00664666
0.00695891
0.0476419
0.0257447
0.00384853
0.0215732
-0.0205494
-0.00458822
0.0161783
0.0224807
-0.0163711
0.0141446
0.0146598
-0.0110813
-0.00129799
0.011377
-0.00568644
-0.000645059