/*--------------------------------*- C++ -*----------------------------------*\
  =========                 |
  \\      /  F ield         | OpenFOAM: The Open Source CFD Toolbox
   \\    /   O peration     | Website:  https://openfoam.org
    \\  /    A nd           | Version:  8
     \\/     M anipulation  |
\*---------------------------------------------------------------------------*/
FoamFile
{
    version     2.0;
    format      ascii;
    class       volScalarField;
    location    "5640";
    object      Hclip;
}
// * * * * * * * * * * * * * * * * * * * * * * * * * * * * * * * * * * * * * //

dimensions      [0 1 0 0 0 0 0];

internalField   nonuniform List<scalar> 
526318
(
0.759893
0.713922
0.786108
0.69978
0.772364
0.724539
0.746644
0.661158
0.718893
0.603349
0.575511
0.700035
0.644533
0.689045
0.64565
0.668738
0.646713
0.844458
0.74965
0.797239
0.790525
0.746499
0.512516
0.754721
0.630077
0.494922
0.773193
0.772202
0.771565
0.784694
0.814235
0.861202
0.84083
0.721335
0.720779
0.691762
0.69731
0.792468
0.716018
0.661891
0.720921
0.69917
0.36109
0.405822
0.312818
0.369385
0.341128
0.46486
0.645403
0.544031
0.630758
0.631737
0.580693
0.54432
0.0477485
0.27796
0.285882
0.0670435
0.802051
0.813136
0.828775
0.785014
0.734807
0.855589
0.85473
0.81038
0.806728
0.796258
0.709478
0.699171
0.806833
0.58284
0.642453
0.531484
0.490962
0.483038
0.580436
0.575362
0.487023
0.531824
0.607857
0.611144
0.566913
0.517711
0.550477
0.617699
0.615562
0.594431
0.53046
0.61919
0.519826
0.470081
0.47078
0.393207
0.395297
0.392796
0.395577
0.393934
0.38614
0.388863
0.001
0.001
0.001
0.001
0.001
0.001
0.301625
0.117331
0.427902
0.389018
0.429466
0.552737
0.774009
0.662456
0.772692
0.787303
0.846746
0.821699
0.869373
0.387605
0.386762
0.391269
0.39427
0.346112
0.387708
0.300805
0.34019
0.250506
0.301245
0.252643
0.248044
0.237822
0.214408
0.208583
0.231239
0.176666
0.229098
0.178719
0.196159
0.14141
0.149646
0.170081
0.201684
0.186931
0.144076
0.140654
0.160351
0.144711
0.143415
0.146087
0.160795
0.144755
0.156525
0.150128
0.158237
0.119723
0.160652
0.155139
0.115406
0.0783474
0.161007
0.0969374
0.156859
0.65175
0.743125
0.69486
0.674294
0.481038
0.547968
0.476855
0.48605
0.480042
0.485131
0.501801
0.482709
0.416878
0.387881
0.354249
0.291594
0.35383
0.398239
0.398368
0.397728
0.283409
0.336235
0.220292
0.229847
0.238225
0.226075
0.230797
0.232653
0.225298
0.228874
0.223567
0.213113
0.193803
0.213419
0.207195
0.18359
0.160359
0.188183
0.169966
0.156889
0.18742
0.171907
0.174501
0.139033
0.161853
0.186463
0.187745
0.640483
0.654619
0.679962
0.66494
0.640747
0.637379
0.641588
0.513877
0.552922
0.2991
0.282985
0.281965
0.400145
0.538803
0.413564
0.449557
0.452786
0.397973
0.378507
0.00104547
0.001
0.0206156
0.228636
0.001
0.001
0.001
0.001
0.001
0.001
0.851023
0.832519
0.878755
0.871613
0.843138
0.838932
0.739247
0.827124
0.671648
0.619927
0.614076
0.61275
0.620164
0.617527
0.605799
0.601612
0.514534
0.586225
0.401952
0.456868
0.388322
0.400894
0.00100536
0.001
0.001
0.00100202
0.001
0.001
0.001
0.0205634
0.398533
0.210348
0.447502
0.448742
0.561943
0.66093
0.784796
0.784762
0.820986
0.79786
0.863501
0.897887
0.366862
0.366812
0.32863
0.296729
0.194348
0.234398
0.161522
0.16984
0.159926
0.154739
0.14274
0.147972
0.0776499
0.0986774
0.126434
0.170609
0.225905
0.189457
0.158354
0.145203
0.090792
0.0675725
0.124663
0.17774
0.112545
0.143309
0.139406
0.107387
0.110975
0.0786284
0.0756228
0.0355482
0.0323329
0.0388872
0.0249848
0.149643
0.191148
0.143939
0.19043
0.543354
0.5177
0.412232
0.50239
0.418724
0.474569
0.482378
0.471166
0.479055
0.482387
0.397274
0.305668
0.237914
0.216836
0.298553
0.234655
0.222675
0.337283
0.222375
0.275727
0.211038
0.213616
0.221768
0.212067
0.228775
0.219511
0.222958
0.225431
0.22338
0.224707
0.23423
0.225916
0.239599
0.230085
0.23333
0.221573
0.228682
0.21582
0.189737
0.186524
0.212432
0.242257
0.238973
0.212499
0.197101
0.219226
0.257045
0.258535
0.268304
0.236749
0.252681
0.284378
0.335338
0.279871
0.265367
0.307323
0.359191
0.457235
0.535186
0.454681
0.486183
0.557853
0.620554
0.544404
0.397588
0.508741
0.412724
0.43741
0.174761
0.116009
0.14525
0.134583
0.250415
0.373792
0.3052
0.372372
0.3741
0.393833
0.375301
0.001
0.001
0.001
0.001
0.0303602
0.001
0.001
0.00100998
0.001
0.00100962
0.001
0.00100889
0.001
0.001
0.001
0.001
0.879088
0.867068
0.904236
0.890102
0.869532
0.841765
0.765142
0.682137
0.621407
0.623468
0.605729
0.597169
0.587577
0.586206
0.563956
0.559939
0.518195
0.557936
0.478907
0.426307
0.368651
0.329357
0.001
0.00111888
0.00111876
0.001
0.001
0.001
0.001
0.001
0.00111987
0.00112071
0.001
0.00100984
0.001
0.00100942
0.00126052
0.001
0.001
0.001
0.001
0.001
0.001
0.001
0.001
0.001
0.102939
0.001
0.310591
0.471701
0.487924
0.574224
0.793406
0.694204
0.810756
0.808204
0.821022
0.852491
0.884544
0.902032
0.28676
0.285362
0.238962
0.265984
0.20327
0.167911
0.159252
0.159443
0.154592
0.159495
0.114188
0.112386
0.0505038
0.0651423
0.121697
0.0883744
0.0671326
0.115147
0.113312
0.130071
0.0359132
0.0240287
0.051163
0.0575138
0.0629752
0.0175749
0.0225428
0.0177517
0.0227245
0.00698019
0.0056365
0.29752
0.279965
0.268592
0.277876
0.299382
0.403727
0.360497
0.342424
0.223412
0.277556
0.266963
0.26274
0.161948
0.098875
0.275243
0.397282
0.271867
0.282838
0.261588
0.346584
0.325585
0.399267
0.430074
0.353918
0.332388
0.372119
0.247058
0.220494
0.218849
0.218299
0.139644
0.186372
0.114348
0.0618889
0.0462283
0.166194
0.163182
0.213235
0.212702
0.210626
0.216471
0.213025
0.217028
0.217247
0.223479
0.219342
0.237073
0.229099
0.237561
0.242393
0.261676
0.245231
0.271276
0.272508
0.224394
0.202669
0.275984
0.256061
0.242151
0.256769
0.241517
0.236403
0.291208
0.264116
0.370768
0.372906
0.328099
0.366719
0.361778
0.343537
0.431362
0.396778
0.473131
0.49235
0.51848
0.434578
0.434075
0.431648
0.397137
0.378929
0.341885
0.435745
0.288817
0.26196
0.312707
0.33949
0.0161543
0.0621633
0.146767
0.266159
0.298406
0.334118
0.235548
0.207845
0.164081
0.113685
0.001
0.001
0.001
0.001
0.001
0.0119276
0.001
0.001
0.00100979
0.001
0.001
0.001
0.001
0.001
0.001
0.001
0.001
0.001
0.001
0.001
0.001
0.00101
0.001
0.00100021
0.001
0.001
0.00118628
0.001
0.001
0.00118629
0.00118629
0.00118628
0.001
0.001
0.001
0.001
0.001
0.001
0.001
0.001
0.00100959
0.001
0.00100809
0.00100869
0.001
0.001
0.872176
0.882475
0.903751
0.89148
0.867124
0.797262
0.622314
0.700862
0.587944
0.584174
0.562502
0.569753
0.55522
0.555966
0.555467
0.551101
0.492569
0.470049
0.372777
0.4086
0.26833
0.303014
0.001
0.001
0.001
0.001
0.001
0.001
0.001
0.001
0.001
0.001
0.001
0.001
0.001
0.001
0.001
0.001
0.001
0.00100737
0.001
0.001
0.001
0.001
0.001
0.001
0.001
0.001
0.00101
0.001
0.001
0.001
0.001
0.001
0.00153221
0.001
0.289777
0.116504
0.491304
0.451418
0.522395
0.620663
0.731464
0.808466
0.821858
0.80877
0.850361
0.879873
0.866671
0.866736
0.00101
0.001
0.001
0.001
0.001
0.001
0.001
0.001
0.001
0.001
0.001
0.001
0.001
0.001
0.001
0.00101
0.001
0.264845
0.26693
0.268249
0.226923
0.149566
0.19019
0.10944
0.104182
0.064903
0.0616204
0.0190036
0.0168781
0.0476646
0.0412329
0.00292242
0.0397789
0.0301214
0.0916617
0.0587624
0.0706332
0.001
0.001
0.001
0.00211481
0.0086214
0.00921046
0.001
0.001
0.001
0.001
0.001
0.001
0.504432
0.473028
0.513979
0.520422
0.473163
0.425284
0.597595
0.61469
0.679318
0.689887
0.238812
0.286941
0.324376
0.409741
0.234653
0.189128
0.218295
0.21703
0.0526208
0.110158
0.157761
0.0474759
0.26592
0.26047
0.264069
0.262526
0.28505
0.260151
0.274484
0.289449
0.172608
0.163631
0.0644271
0.151619
0.135901
0.0978775
0.0554792
0.0688401
0.00633946
0.0304638
0.0143146
0.0986794
0.157469
0.0916782
0.159921
0.215215
0.213241
0.214607
0.216019
0.215114
0.233044
0.232344
0.242283
0.23599
0.262894
0.256431
0.287806
0.285491
0.282872
0.283757
0.298419
0.286871
0.313812
0.291314
0.266481
0.269797
0.321467
0.28751
0.292459
0.336083
0.378671
0.383682
0.388534
0.385611
0.415656
0.462911
0.541363
0.549134
0.566151
0.537297
0.678617
0.612257
0.749617
0.787774
0.778885
0.816439
0.871877
0.738162
0.826039
0.845052
0.924514
0.972638
0.993828
1.01611
1.04919
0.988482
1.04243
1.00028
1.08231
1.08339
1.12865
1.09734
1.16076
1.18879
1.18074
1.12701
1.19502
1.21714
1.18292
1.17983
1.24624
1.21743
1.25484
1.19093
1.19179
1.26214
1.23003
1.1748
1.17647
1.21197
1.24097
0.230745
0.197761
0.371005
0.368072
0.336314
0.329994
0.327707
0.104821
0.222792
0.001
0.001
0.0640071
0.0467131
0.001
0.00582746
0.001
0.167924
0.0696456
0.0695837
0.001
0.001
0.001
0.00593617
0.001
0.0010199
0.001
0.001
0.001
0.001
0.00101
0.001
0.001
0.001
0.001
0.00143432
0.001
0.001
0.001
0.001
0.001
0.001
0.001
0.001
0.00123033
0.001
0.001
0.001
0.001
0.001
0.001
0.001
0.001
0.001
0.00100231
0.001
0.001
0.001
0.001
0.001
0.00116945
0.001
0.00100983
0.001
0.001
0.00101011
0.00106593
0.001
0.00105021
0.001
0.00105035
0.00105089
0.00102105
0.001
0.001052
0.00105144
0.001
0.001
0.00101
0.001
0.001
0.001
0.001
0.001
0.00100983
0.00100977
0.001
0.001
0.001
0.001
0.001
0.001
0.001
0.00119317
0.001
0.001
0.859217
0.850631
0.820224
0.820409
0.737939
0.808734
0.632556
0.563683
0.555079
0.559531
0.555386
0.558225
0.497329
0.500553
0.344627
0.304291
0.266882
0.440902
0.439937
0.387943
0.390355
0.388571
0.001
0.001
0.00105985
0.00105972
0.001
0.001
0.001
0.001
0.00105965
0.001
0.001
0.00100893
0.001
0.001
0.001
0.001
0.001
0.001
0.001
0.001
0.001
0.001
0.00123329
0.00123353
0.001
0.001
0.001
0.00153331
0.116472
0.001
0.28311
0.453125
0.482
0.510041
0.593877
0.704481
0.774147
0.750038
0.793337
0.72795
0.778168
0.817497
0.775993
0.771027
0.00123217
0.001
0.00101
0.001
0.001
0.00120045
0.001
0.001
0.00120046
0.001
0.001
0.00100947
0.001
0.001
0.001
0.001
0.001
0.001
0.001
0.001
0.001
0.001
0.001
0.001
0.00143188
0.0010104
0.236779
0.239678
0.159834
0.177992
0.0561776
0.0783997
0.0153658
0.0150841
0.0132741
0.015744
0.001
0.001
0.001
0.001
0.001
0.001
0.0557151
0.0179881
0.0570191
0.0579926
0.001
0.001
0.001
0.001
0.001
0.001
0.001
0.001
0.001
0.001
0.00124192
0.001
0.728215
0.726831
0.559275
0.471673
0.458793
0.437666
0.719421
0.640051
0.882339
0.95709
0.851868
0.781696
0.971413
0.953374
1.01842
1.0704
1.09817
1.09586
1.12291
1.09759
1.15018
1.17426
1.17315
1.17043
1.19753
1.17719
1.17904
1.22906
1.16521
1.16093
0.29559
0.217214
0.356867
0.4237
0.215813
0.166989
0.218386
0.217662
0.0477682
0.0945017
0.001
0.098993
0.001
0.261573
0.199504
0.261611
0.257747
0.261758
0.158674
0.0595595
0.001
0.001
0.001
0.0192535
0.001
0.001
0.001
0.001
0.0256456
0.0199975
0.001
0.0410112
0.107024
0.0564426
0.165473
0.104125
0.151435
0.205771
0.236459
0.218319
0.246755
0.24718
0.271386
0.261136
0.290748
0.29595
0.290249
0.305416
0.315618
0.318215
0.351058
0.364279
0.352765
0.347434
0.346788
0.346816
0.363492
0.370612
0.430253
0.413934
0.385182
0.407278
0.414705
0.449614
0.487092
0.537542
0.573752
0.574549
0.580381
0.654279
0.731419
0.809133
0.820378
0.943792
0.819867
0.870772
1.02243
1.04077
1.04487
1.07834
1.12996
1.17696
1.19109
1.19258
1.22402
1.25261
1.28074
1.27961
1.28
1.27577
1.28681
1.26307
1.19749
1.25933
1.23159
1.18463
1.18291
1.21725
1.24618
1.2514
1.18561
1.24428
1.20055
0.025045
0.0145612
0.0952949
0.158444
0.0488878
0.136765
0.260152
0.191184
0.22031
0.0517992
0.001
0.001
0.001
0.0276112
0.0196914
0.001
0.001
0.001
0.001
0.00145944
0.00145781
0.001
0.001
0.001
0.00990837
0.001
0.001
0.00112604
0.001
0.0012693
0.00126943
0.001
0.001
0.001
0.00143398
0.001
0.001
0.001
0.001
0.001
0.00101
0.001
0.00122991
0.001
0.001
0.001
0.001
0.001
0.001
0.00100779
0.001
0.00105268
0.001
0.001
0.001
0.00108465
0.001
0.001
0.001
0.001
0.001
0.001
0.001
0.001
0.001
0.001
0.001
0.001
0.001
0.001
0.001
0.001
0.00130569
0.001
0.00103792
0.001
0.00100962
0.001
0.001
0.001
0.001
0.001
0.001
0.001
0.001
0.774199
0.76889
0.747526
0.758913
0.68678
0.750245
0.558256
0.616193
0.515828
0.520415
0.462177
0.44336
0.390876
0.390418
0.300675
0.198185
0.174291
0.345476
0.386272
0.389305
0.390913
0.392045
0.00106003
0.001
0.00106011
0.001
0.001
0.001
0.001
0.001
0.00100548
0.001
0.001
0.001
0.001
0.001
0.001
0.00100999
0.001
0.001
0.001
0.001
0.001
0.001
0.001
0.00101
0.001
0.001
0.001
0.001
0.181729
0.0145561
0.320677
0.458245
0.427964
0.54003
0.704443
0.6095
0.684607
0.687112
0.676421
0.706606
0.764059
0.757509
0.7641
0.734178
0.001
0.001
0.001
0.001
0.001
0.001
0.001
0.001
0.001
0.001
0.001
0.00105203
0.001
0.001
0.001
0.001
0.001
0.001
0.001
0.00116179
0.001
0.00115711
0.00120151
0.001
0.00101
0.001
0.001
0.001
0.001
0.001
0.001
0.113554
0.113002
0.0785331
0.0578183
0.0157016
0.037263
0.00217587
0.00214057
0.157675
0.101319
0.0808183
0.001
0.001
0.001
0.00100989
0.00134679
0.00134657
0.001
0.001
0.0301263
0.001
0.0199522
0.00350207
0.001
0.001
0.001
0.001
0.001
0.00100971
0.001
0.001
0.001
0.001
0.001
0.001
1.30089
1.30961
1.33612
1.31332
1.3554
1.34399
1.36712
1.35368
1.41337
1.39755
1.36743
1.41958
1.38176
1.43843
1.26874
1.22564
1.2362
1.28551
1.27164
1.23952
1.24214
1.29439
1.30053
1.27587
1.25599
1.31035
1.29196
1.30339
1.33055
1.17935
1.1815
1.18394
1.18368
1.20048
1.21862
0.772195
0.719181
0.619223
0.517917
0.424341
0.506398
0.70339
0.692243
0.928315
0.950006
0.843496
0.920468
0.961636
1.0098
1.05488
1.10052
1.09331
1.09757
1.0909
1.12217
1.13534
1.16097
1.14722
1.15227
1.15675
1.16582
1.14173
1.14078
0.344486
0.272892
0.205399
0.202399
0.259084
0.424047
0.412882
0.134554
0.199667
0.0727047
0.00315058
1.28834
1.30378
1.32481
1.33088
1.33264
1.34652
1.34907
1.37781
1.35928
1.37699
1.37357
1.42353
1.44793
1.47214
1.47388
1.48067
1.49191
1.51632
0.001
0.001
0.00138251
0.188125
0.0707213
0.24391
0.14716
0.0675983
0.00120525
0.001
0.00120646
0.00120683
0.001
0.001
0.001
0.001
0.001
0.001
0.0307357
0.001
0.001
0.0569286
0.0578408
0.0529618
0.112679
0.0665534
0.192925
0.141165
0.228066
0.191682
0.231487
0.253343
0.274087
0.293819
0.33042
0.330893
0.34068
0.333272
0.3832
0.371666
0.367291
0.3632
0.411013
0.382027
0.456069
0.425005
0.395908
0.440809
0.487095
0.479193
0.499063
0.53404
0.537228
0.477563
0.593114
0.615428
0.587882
0.58588
0.660739
0.75118
0.815783
0.885262
0.83423
0.848266
0.977153
1.03419
1.07717
1.05752
1.12424
1.1544
1.19743
1.2151
1.21106
1.22955
1.28983
1.26914
1.27963
1.28445
1.29026
1.28012
1.27813
1.26797
1.27928
1.28398
1.2739
0.0131273
0.00218891
0.0244866
0.001
0.001
0.001
0.001
0.0747091
0.001
0.001
0.001
0.001
0.001
0.001
0.00138305
0.001
0.001
0.001
0.001
0.00145908
0.001
0.001
0.001
0.001
0.001
0.001
0.001
0.001
0.00111133
0.001
0.00126776
0.001
0.00106879
0.001
0.001
0.001
0.001
0.001
0.001
0.001
0.00100984
0.001
0.00110978
0.001
0.001
0.001
0.00100238
0.001
0.001
0.001
0.001
0.00241157
0.001
0.00100904
0.001
0.001
0.001
0.001
0.00100993
0.001
0.001
0.001
0.001
0.001
0.00108929
0.001
0.001
0.001
0.001
0.00108768
0.001
0.001
0.001
0.001
0.001
0.001
0.001
0.001
0.00101
0.001
0.001
0.001
0.001
0.001
0.001
0.001
0.001
0.001
0.001
0.00194368
0.001
0.001
0.001
0.001
0.00194595
1.46963
1.43424
1.39179
1.5083
1.53896
1.53981
0.749904
0.749995
0.73446
0.733046
0.662308
0.717676
0.553994
0.474249
0.40317
0.422586
0.388961
0.389501
0.389174
0.389728
0.262641
0.182577
0.277016
0.35058
0.354339
0.001
0.001
0.001
0.001
0.001
0.001
0.001
0.001
0.001
0.001
0.00100943
0.0010396
0.001
0.001
0.001
0.0141436
0.00100998
0.001
0.001
0.001
0.001
0.001
0.001
0.001
0.001
0.001
0.001
0.155209
0.301399
0.41345
0.407409
0.731657
0.646748
0.665894
0.446445
0.536148
0.62566
0.67634
0.680313
0.677065
0.695119
0.725852
0.715414
0.001
0.00112648
0.001
0.001
0.001
0.001
0.00100904
0.001
0.001
0.001
0.001
0.001
0.001
0.001
0.00100996
0.001
0.001
0.00101344
0.001
0.001
0.001
0.001
0.001
0.001
0.00101494
0.001
0.001
0.001
0.001
0.001
0.00101
0.001
0.001
0.001
0.001
0.00116239
0.001
0.115744
0.150504
0.138471
0.0806855
0.0815743
0.0523704
0.0691514
0.001
0.001
0.001
0.001
0.0825761
0.0684515
0.001
0.001
0.001
0.001
0.001
0.001
0.001
0.001
0.001
0.001
0.001
0.001
0.001
0.001
0.001
0.001
0.001
0.001
0.001
0.001
0.001
0.001
0.001
0.001
1.2978
1.31628
1.33824
1.35533
1.3652
1.36317
1.40993
1.37067
1.23221
1.2351
1.21549
1.23295
1.26999
1.22957
1.27432
1.24824
1.16586
1.15382
1.15735
1.18824
1.21689
1.19455
0.776509
0.701836
0.593582
0.68711
0.526425
0.439695
0.695244
0.694929
0.935963
0.941125
0.952261
0.85633
0.928668
1.04302
0.986611
0.929871
0.972682
1.06903
1.08679
1.07523
1.08241
1.08704
1.11424
1.14264
1.1276
1.14559
1.14122
1.13834
1.14465
1.13818
1.14467
0.181602
0.185858
0.329284
0.412983
0.192429
0.267976
0.427058
0.438349
0.184644
0.112226
0.0334115
0.0941855
1.3192
1.27584
1.29843
1.3426
1.33947
1.34134
1.35013
1.3717
1.39131
1.39988
1.40286
1.40812
1.42918
1.47256
1.45598
1.475
1.49212
1.54005
1.51313
1.3478
1.35658
1.37141
1.5429
1.54273
1.54534
0.00138213
0.00138157
0.00138193
0.001
0.001
0.00941009
0.001
0.001
0.001
0.001
0.001
0.001
0.001
0.00122273
0.001
0.00122269
0.001
0.001
0.001
0.001
0.00178132
0.001
0.0580281
0.001
0.133669
0.16147
0.0953158
0.132485
0.193439
0.159107
0.28916
0.222647
0.309361
0.317304
0.314133
0.305941
0.34597
0.390447
0.428963
0.427661
0.438093
0.421772
0.445359
0.424834
0.479715
0.481119
0.509928
0.506637
0.488534
0.484811
0.606078
0.656824
0.554359
0.616848
0.661264
0.627687
0.726557
0.774842
0.870999
0.913322
0.889421
0.978958
1.03217
1.12842
1.11543
1.17421
1.14816
1.24743
1.25075
1.24814
1.27862
1.30426
1.30537
1.35702
1.3256
1.35511
1.3111
1.31288
1.33789
1.27844
1.33442
1.27286
0.001
0.001
0.001
0.001
0.001
0.001
0.001
0.001
0.00101
0.001
0.001
0.001
0.001
0.001
0.001
0.001
0.001
0.001
0.001
0.001
0.001
0.001
0.001
0.001
0.001
0.001
0.001
0.001
0.00110993
0.0011109
0.001
0.001
0.001
0.001
0.00101
0.001
0.0010004
0.001
0.001
0.001
0.001
0.001
0.00199647
0.001
0.001
0.001
0.001
0.001
0.001
0.001
0.001
0.00219949
0.001
0.001
0.001
0.00122272
0.00116674
0.001
0.00100983
0.001
0.001
0.001
0.001
0.001
0.00108885
0.00108832
0.001
0.001
0.00108756
0.00108798
0.001
0.001
0.001
0.001
0.00136223
0.001
0.00136197
0.001
0.001
0.001
0.001
0.0010023
0.00105728
0.00105586
0.001
0.001
0.001
0.001
0.001
0.001
0.001
0.001
0.001
0.001
0.00116665
0.001
0.00100958
0.00100997
0.001
0.001
0.001
0.001
0.00101
1.45455
1.43052
1.4422
1.44792
1.48223
1.58459
1.55749
1.56224
1.58724
1.52245
0.653302
0.649871
0.585809
0.581159
0.543465
0.574824
0.478958
0.439125
0.423876
0.389835
0.366024
0.362504
0.275109
0.284347
0.150294
0.194038
0.194991
0.001
0.001
0.001
0.00101
0.001
0.001
0.001
0.00132074
0.125978
0.001
0.001
0.001
0.001
0.001
0.001
0.001
0.00101
0.001
0.001
0.00102234
0.001
0.001
0.001
0.001
0.001
0.522467
0.526908
0.567114
0.265193
0.413745
0.406643
0.44376
0.567172
0.636326
0.597026
0.50787
0.589619
0.614871
0.620093
0.541918
0.5674
0.001
0.001
0.00112655
0.00103502
0.001
0.001
0.00101825
0.0011921
0.001
0.001
0.001
0.00193051
0.001
0.001
0.001
0.0029296
0.00293312
0.00293096
0.001
0.001
0.001
0.00101344
0.001
0.001
0.001
0.00100998
0.001
0.001
0.001
0.001
0.001
0.001
0.00100136
0.001
0.001
0.001
0.00114776
0.001
0.001
0.001
0.001
0.001
0.001
0.001
0.001
0.131792
0.142859
0.156194
0.0178196
0.0406652
0.001
0.001
0.001
0.001
0.001
0.001
0.00107575
0.00207575
0.001
0.001
0.001
0.001
0.001
0.001
0.001
0.001
0.001
0.001
0.001
0.001
0.00609248
0.001
0.001
0.00113546
0.001
0.00117799
0.001
0.001
0.001
0.001
0.00101
0.001
0.001
0.00113504
1.31224
1.25744
1.34188
1.29669
1.30639
1.34468
1.34127
1.41548
1.31805
1.4128
1.35252
1.36622
1.42603
1.40992
1.20618
1.19772
1.19314
1.20119
1.21526
1.22459
1.22254
1.24004
1.14329
1.14152
1.16576
1.15077
1.18336
1.19319
0.777817
0.702073
0.618812
0.697568
0.487681
0.578568
0.695008
0.704258
0.932606
0.930408
0.929548
0.861024
1.01656
1.06324
0.975902
0.930568
1.06624
1.06725
1.07934
1.06763
1.10559
1.12954
1.13022
1.14243
1.13956
1.13085
1.14137
1.13875
1.13624
1.13959
0.179486
0.176715
0.343259
0.427298
0.323618
0.250875
0.479388
0.418794
0.152038
0.180454
0.14214
0.0688536
1.32068
1.36973
1.33769
1.36215
1.3798
1.373
1.40748
1.41296
1.38936
1.40058
1.39216
1.40318
1.40674
1.43234
1.45449
1.47245
1.47553
1.52744
1.50033
1.54821
1.55857
1.42669
1.44024
1.55715
1.56537
0.001
0.001
0.001
0.001
0.001
0.001
0.001
0.001
0.00101
0.001
0.001
0.001
0.001
0.001
0.001
0.001
0.00178126
0.001
0.001
0.001
0.001
0.001
0.0446496
0.001
0.150944
0.148569
0.111805
0.0682012
0.179425
0.234073
0.278452
0.278657
0.290574
0.274533
0.407466
0.359408
0.453443
0.446051
0.479228
0.474626
0.458318
0.508623
0.55379
0.529296
0.501498
0.536725
0.584768
0.574104
0.555018
0.592858
0.684315
0.678846
0.683771
0.693194
0.823316
0.737862
0.912885
0.935357
0.938952
1.00165
1.07539
1.15176
1.15885
1.1709
1.2232
1.26654
1.30935
1.30478
1.34687
1.31998
1.36872
1.38567
1.38384
1.3833
1.38198
1.38554
1.34641
1.40114
1.34072
0.001
0.001
0.00648494
0.00102562
0.001
0.001
0.001
0.001
0.001
0.001
0.00101212
0.00127948
0.001
0.00128032
0.00128006
0.00128029
0.0012804
0.001
0.00127977
0.00619638
0.001
0.001
0.001
0.0020763
0.001
0.00207561
0.00207617
0.001
0.001
0.00100217
0.001
0.001
0.001
0.001
0.00101035
0.00104358
0.001
0.001
0.00100986
0.001
0.001
0.001
0.00178065
0.001
0.001
0.001
0.001
0.001
0.001
0.001
0.001
0.001
0.00100941
0.001
0.001
0.001
0.00100992
0.001
0.001
0.001
0.00101
0.001
0.001
0.001
0.001
0.001
0.001
0.001
0.001
0.001
0.001
0.00100949
0.001
0.001
0.001
0.001
0.001
0.001
0.001
0.001
0.001
0.001
0.00113743
0.001
0.001
0.001
0.001
0.001
0.001
0.001
0.001
0.001
0.001
0.001
0.001
0.001
0.001
0.001
0.001
0.001
0.001
0.001
0.001
0.001
0.001
0.001
0.001
0.001
0.001
0.001
0.001
0.001
0.00106784
0.001
0.001
0.001
0.001
1.61316
1.60417
1.61599
1.60569
1.62041
1.61716
1.45355
1.4389
1.52329
1.48635
1.5955
1.62093
1.58373
1.49921
1.45443
0.521662
0.523319
0.526369
0.512828
0.519654
0.452851
0.499618
0.284747
0.342626
0.206655
0.206439
0.151403
0.152922
0.15043
0.001
0.001
0.001
0.001
0.001
0.151802
0.001
0.001
0.001
0.001
0.001
0.001
0.001
0.001
0.001
0.001
0.001
0.001
0.00101067
0.001
0.0010108
0.001
0.001
0.001
0.525787
0.519575
0.52658
0.52507
0.526369
0.238673
0.350813
0.29224
0.412374
0.476595
0.502368
0.430234
0.512369
0.466385
0.464809
0.450669
0.001
0.00113948
0.001
0.001
0.001
0.001
0.001
0.00101518
0.001
0.001
0.00101401
0.001
0.001
0.001
0.001
0.001
0.001
0.001
0.001
0.00101581
0.001
0.001
0.001
0.001
0.001
0.00100972
0.001
0.001
0.001
0.001
0.001
0.001
0.001
0.001
0.001
0.001
0.001
0.001
0.00116605
0.00107394
0.001
0.001
0.001
0.001
0.001
0.001
0.001
0.001
0.001
0.001
0.001
0.001
0.001
0.001
0.001
0.001
0.001
0.128979
0.0569277
0.0490301
0.001
0.001
0.001
0.001
0.001
0.001
0.001
0.00100956
0.001
0.001
0.001
0.001
0.001
0.001
0.001
0.001
0.001
0.001
0.001
0.001
0.001
0.001
0.001
0.001
0.001
0.001
0.001
0.001
0.001
0.001
0.00182909
0.00182628
0.001
0.001
0.001
0.001
0.00100972
0.001
1.25208
1.25252
1.28242
1.279
1.27939
1.2849
1.34963
1.34905
1.34921
1.31914
1.40586
1.36351
1.35901
1.18873
1.19597
1.21683
1.21144
1.2255
1.23009
1.25314
1.23328
1.14242
1.14964
1.17381
1.15787
1.17474
1.18034
0.81542
0.739036
0.66091
0.697925
0.644824
0.545795
0.736481
0.699953
0.938095
0.934356
0.893383
0.935216
1.02654
1.07083
0.94078
0.983625
1.07786
1.06893
1.09148
1.07616
1.11307
1.13273
1.13456
1.13677
1.12145
1.1409
1.13725
1.13336
1.13116
1.13449
0.174449
0.237353
0.424427
0.396991
0.331955
0.403212
0.418601
0.502864
0.169371
0.170172
0.157528
0.0801525
0.001
0.001
0.0384801
1.39887
1.39968
1.41511
1.40873
1.44034
1.44158
1.44903
1.44249
1.48346
1.46104
1.47313
1.43705
1.46743
1.48306
1.50584
1.52477
1.53447
1.53423
1.58254
1.58626
1.60689
1.58855
1.50007
1.50311
1.62217
1.62507
0.001
0.001
0.00101
0.001
0.001
0.00122534
0.00122517
0.001
0.001
0.001
0.001
0.00191961
0.00123352
0.001
0.001
0.001
0.00100232
0.001
0.001
0.001
0.001
0.001
0.001
0.00980354
0.001
0.0944691
0.164562
0.0452127
0.253092
0.210177
0.272713
0.288618
0.3711
0.317848
0.429763
0.471524
0.470079
0.455547
0.588862
0.55024
0.519567
0.571491
0.604713
0.602258
0.589231
0.582499
0.591692
0.599455
0.680833
0.7175
0.756651
0.711144
0.758354
0.780774
0.921232
0.857753
0.953045
0.934203
1.01683
1.08973
1.1772
1.17232
1.21102
1.24461
1.32229
1.31615
1.33523
1.34337
1.36869
1.37934
1.39397
1.38684
1.40111
1.39383
1.3861
1.40393
1.39028
1.38673
0.001
0.001
0.00101
0.001
0.001
0.001
0.001
0.001
0.001
0.00127939
0.001
0.001
0.001
0.00128038
0.00128022
0.00128014
0.00128081
0.00127987
0.00128035
0.001
0.001
0.00100461
0.001
0.001
0.001
0.00100179
0.001
0.001
0.001
0.001
0.001
0.00101
0.001
0.001
0.00100863
0.00104352
0.001
0.001
0.001
0.0035577
0.001
0.001
0.001
0.00100992
0.001
0.001
0.001
0.00100983
0.001
0.001
0.00100647
0.001
0.00100976
0.001
0.001
0.001
0.001
0.001
0.00356337
0.001
0.001
0.001
0.001
0.001
0.00115005
0.00114994
0.00114995
0.001
0.001
0.001
0.001
0.001
0.001
0.001
0.001
0.001
0.001
0.001
0.001
0.001
0.001
0.001
0.001
0.001
0.001
0.001
0.001
0.001
0.001
0.001
0.001
0.001
0.001
0.001
0.001
0.001
0.001
0.001
0.001
0.001
0.001
0.001
0.001
0.001
0.001
0.001
0.00101
0.001
0.00109538
0.001
0.00116792
0.001
0.001
0.00107412
0.001
0.00110875
1.63651
1.65273
1.66535
1.62245
1.62896
1.60605
1.62194
1.51433
1.53754
1.53861
1.53941
1.57248
1.60744
1.61542
1.44328
1.4688
1.41201
1.48216
1.46082
0.518069
0.516146
0.418428
0.382927
0.478461
0.408694
0.419676
0.283624
0.317325
0.178579
0.151018
0.151008
0.154569
0.125827
0.001
0.001
0.0677459
0.174646
0.001
0.001
0.001
0.001
0.001
0.001
0.001
0.001
0.00112845
0.001
0.001
0.001
0.001
0.00107964
0.001
0.001
0.0010363
0.001
0.001
0.001
0.482905
0.523123
0.501164
0.476268
0.243389
0.242733
0.263063
0.336306
0.451868
0.45217
0.403811
0.452234
0.451273
0.00100999
0.001
0.001
0.001
0.001
0.001
0.00131822
0.00131892
0.001
0.001
0.00102116
0.00100946
0.001
0.001
0.00100978
0.001
0.001
0.00183463
0.001
0.001
0.001
0.001
0.001
0.001
0.001
0.001
0.001
0.001
0.00129512
0.001
0.001
0.001
0.001
0.001
0.001
0.001
0.001
0.001
0.001
0.001
0.001
0.001
0.001
0.001
0.001
0.001
0.001
0.001
0.001
0.001
0.001
0.00178851
0.001
0.001
0.001
0.001
0.001
0.001
0.001
0.001
0.001
0.001
0.001
0.0484416
0.001
0.001
0.001
0.001
0.001
0.001
0.001
0.00120742
0.001
0.001
0.001
0.001
0.001
0.001
0.001
0.001
0.001
0.001
0.001
0.001
0.001
0.001
0.001
0.001
0.001
0.001
0.001
0.001
0.001
0.001
0.001
0.001
0.001
0.00139305
0.00101
0.001
0.001
0.001
0.001
0.00100999
0.001
0.001
1.31433
1.27185
1.28817
1.30387
1.24451
1.30872
1.32133
1.3194
1.33014
1.37915
1.32106
1.40857
1.38641
1.44434
1.1716
1.1929
1.19181
1.21014
1.19333
1.21893
1.22975
1.20799
1.13293
1.14276
1.14618
1.1621
1.16837
1.16241
0.871273
0.794705
0.677817
0.699572
0.596258
0.693885
0.706803
0.76517
0.939582
0.940331
0.938163
0.917623
1.03667
1.07788
0.997728
0.951257
1.08075
1.07627
1.08961
1.10363
1.13127
1.11052
1.12938
1.12779
1.14155
1.12705
1.13565
1.14264
1.13214
1.12202
0.258583
0.161644
0.429495
0.430716
0.34654
0.439347
0.429908
0.537548
0.163207
0.15761
0.135682
0.119236
0.0594891
0.160873
1.40709
1.41321
1.44044
1.47285
1.47439
1.4899
1.50049
1.51182
1.52001
1.50851
1.51377
1.53849
1.5564
1.5681
1.56907
1.57549
1.5998
1.61775
1.63125
1.6319
1.64046
1.51995
1.50685
1.66145
1.68293
0.001
0.001
0.001
0.001
0.001
0.001
0.001
0.001
0.001
0.00191947
0.001
0.001
0.001
0.001
0.001
0.00106806
0.00106808
0.001
0.001
0.001
0.001
0.001
0.0306514
0.02641
0.001
0.0977157
0.100304
0.180445
0.252844
0.223726
0.290584
0.23935
0.422257
0.352284
0.462781
0.463639
0.47183
0.539565
0.662765
0.674435
0.615566
0.634919
0.676511
0.624638
0.728238
0.656678
0.632329
0.669281
0.798759
0.81496
0.876765
0.930314
0.813275
0.906597
1.0504
0.996164
1.06632
1.03764
1.23103
1.19492
1.26338
1.27914
1.35203
1.36107
1.42472
1.38919
1.43621
1.41812
1.43744
1.47153
1.44141
1.47396
1.4817
1.44085
1.4288
1.47532
1.47372
1.44232
0.001
0.001
0.00101
0.001
0.001
0.001
0.001
0.001
0.001
0.001
0.001
0.001
0.001
0.001
0.001
0.001
0.00100968
0.00128051
0.001
0.001
0.00127916
0.00100991
0.001
0.001
0.00131932
0.001
0.001
0.001
0.001
0.001
0.00111048
0.00102186
0.001
0.001
0.001
0.001
0.001
0.00100967
0.001
0.001
0.001
0.001
0.001
0.001
0.001
0.001
0.0010215
0.00102162
0.00102187
0.001
0.001
0.001
0.001
0.00108438
0.001
0.001
0.00108426
0.001
0.001
0.001
0.00100996
0.00109528
0.001
0.00107335
0.001
0.001
0.001
0.001
0.00101
0.001
0.001
0.001
0.001
0.001
0.001
0.001
0.001
0.001
0.001
0.001
0.001
0.001
0.001
0.001
0.001
0.001
0.001
0.001
0.001
0.001
0.001
0.001
0.001
0.001
0.001
0.001
0.001
0.001
0.001
0.001
0.001
0.001
0.001
0.001
0.001
0.001
0.001
0.001
0.001
0.001
0.001
0.001
0.001
0.001
0.001
0.001
0.001
0.00116792
0.001
0.001
0.001
0.00107244
0.001
0.001
1.68706
1.67584
1.6861
1.6577
1.65284
1.6774
1.66088
1.64226
1.66043
1.51678
1.54009
1.53531
1.55175
1.61033
1.66538
1.68499
1.56909
1.45902
1.49889
1.44668
1.44307
1.44853
1.50693
1.37467
0.28345
0.381386
0.281482
0.319774
0.32312
0.231431
0.227099
0.23122
0.229345
0.234745
0.20246
0.129714
0.0992071
0.0192118
0.0208178
0.129163
0.238104
0.001
0.001
0.00121939
0.001
0.001
0.00121345
0.001
0.001
0.001
0.00101732
0.001
0.00113784
0.001
0.001
0.001
0.00113777
0.001
0.00108734
0.001
0.001
0.390551
0.313066
0.289565
0.3767
0.242954
0.266305
0.403634
0.333471
0.376486
0.453015
0.447897
0.00111735
0.001
0.001
0.0011653
0.001
0.001
0.00131865
0.00131875
0.001
0.001
0.00100995
0.001
0.001
0.001
0.001
0.001
0.0020057
0.00206837
0.001
0.001
0.00205585
0.001
0.00178883
0.001
0.001
0.001
0.001
0.00293953
0.001
0.00129497
0.00302595
0.001
0.001
0.001
0.001
0.001
0.001
0.001
0.001
0.001
0.001
0.001
0.001
0.00101
0.001
0.001
0.001
0.001
0.001
0.00107088
0.001
0.001
0.001
0.00130876
0.001
0.001
0.001
0.001
0.001
0.001
0.001
0.001
0.001
0.001
0.001
0.001
0.001
0.001
0.001
0.001
0.001
0.001
0.001
0.001
0.001
0.001
0.00120646
0.00120645
0.001
0.001
0.001
0.001
0.001
0.001
0.001
0.001
0.00153526
0.001
0.001
0.001
0.001
0.001
0.001
0.00153526
0.001
0.001
0.001
0.001
0.001
0.001
0.001
0.001
0.001
0.001
0.0423953
0.001
0.001
0.00101
0.00108039
0.001
0.00101251
0.001
0.001
0.001
0.001
0.001
0.001
0.001
1.22909
1.25003
1.23631
1.2649
1.25034
1.28386
1.25464
1.28736
1.31135
1.34455
1.33874
1.34119
1.38127
1.3507
1.44607
1.16437
1.16777
1.17475
1.17901
1.17727
1.17653
1.18509
1.20288
1.19156
1.14277
1.15134
1.14978
1.16065