/*--------------------------------*- C++ -*----------------------------------*\
  =========                 |
  \\      /  F ield         | OpenFOAM: The Open Source CFD Toolbox
   \\    /   O peration     | Website:  https://openfoam.org
    \\  /    A nd           | Version:  8
     \\/     M anipulation  |
\*---------------------------------------------------------------------------*/
FoamFile
{
    version     2.0;
    format      ascii;
    class       volScalarField;
    location    "5640";
    object      nut;
}
// * * * * * * * * * * * * * * * * * * * * * * * * * * * * * * * * * * * * * //

dimensions      [0 2 -1 0 0 0 0];

internalField   nonuniform List<scalar> 
526318
(
0.000217652
0.000202326
0.000207798
0.000240304
0.000216346
0.000186293
0.000288533
0.000269021
8.24953e-05
0.000305676
9.76389e-05
0.000257259
0.000216636
0.000250722
0.000265836
0.000169124
0.000267155
0.000198827
0.000189395
0.000185705
0.000192139
0.000149511
0.000228628
0.000260083
0.000143685
7.17589e-05
0.000220357
0.000321157
0.000122578
0.000205341
0.000232438
0.000214105
0.000180447
0.000184549
0.00023999
0.000138211
0.000112201
0.000195471
0.000114863
9.67627e-05
0.000143169
0.000253126
0.000263814
0.000216824
6.79966e-05
0.000251784
0.000118199
0.000251138
0.000231398
0.000206221
0.000149102
0.000120405
3.13564e-05
0.00014483
0.000126497
0.000323885
0.000279767
0.000402533
0.000215222
0.000248064
0.000133174
0.000131816
0.00015913
0.000196268
0.000216568
0.000149868
0.000172162
9.72247e-05
0.000189664
0.000185603
0.000110426
5.1542e-05
7.76663e-05
9.41185e-05
6.51847e-05
4.4163e-05
6.28498e-05
9.77984e-05
4.88521e-05
8.29011e-05
6.96591e-05
8.91353e-05
0.000177147
4.57858e-05
3.1058e-05
0.000115532
9.52195e-05
0.000157789
0.000120424
0.000145951
0.000106227
0.000141272
9.28898e-05
0.000117566
0.000212754
0.000129669
0.000102378
4.73586e-05
0.00010347
6.13993e-05
0
0
0
0
0
0
0.000133552
0.000138182
0.000162721
0.000281559
0.000278149
0.000135222
0.000229041
0.000214576
9.25346e-05
0.000225115
0.000240304
0.000110163
8.7314e-05
0.000130326
0.000136158
0.000158466
0.000161651
0.000121189
0.000164321
0.000148631
0.000146164
4.09254e-05
0.000100211
0.000116738
6.85079e-05
6.6286e-05
6.02903e-05
5.14207e-05
5.49356e-05
8.58535e-05
0.000104309
3.84561e-05
7.49923e-05
7.40461e-05
4.52648e-05
3.63494e-05
0.000108746
5.84412e-05
2.44878e-05
7.63959e-05
6.05296e-05
0.000101682
4.0184e-05
9.44078e-05
4.96374e-05
6.84319e-05
5.94426e-05
4.39158e-05
6.56553e-05
5.25251e-05
5.15254e-05
1.91223e-05
2.3151e-05
2.7889e-05
6.45007e-05
6.69101e-05
7.64532e-05
4.57647e-05
0.000127772
5.3255e-05
8.35817e-05
4.75349e-05
0.000105036
4.52888e-06
0.000110415
3.86438e-05
0.00014672
0.000130129
1.24537e-05
3.6293e-05
0.000127637
0.000204271
6.9138e-05
0.000151173
0.000112058
0.000142343
0.000157442
0.000140471
0.000211696
0.00012532
0.000102148
9.54079e-05
8.77936e-05
5.31449e-05
6.39461e-05
2.16784e-05
8.83144e-05
7.02622e-05
8.30307e-05
6.57251e-05
5.74066e-05
4.21196e-05
2.55178e-05
3.04293e-05
4.52828e-05
8.54761e-05
4.0799e-05
1.5308e-05
6.33429e-05
1.32753e-05
6.29721e-05
1.72034e-05
4.38082e-05
9.35773e-05
4.22103e-05
0.000150765
0.000131351
8.7863e-05
8.65855e-05
0.000120071
3.22906e-05
7.30657e-05
0.000148766
0.000315313
0.000208663
0.000284566
0.000126595
7.493e-05
0.000141493
7.25548e-05
4.94689e-05
0.00010022
5.83162e-05
2.01337e-06
0
9.48734e-05
0.000106905
0
0
0
0
0
0
0.000122579
0.000180863
0.000138565
0.000149985
0.000144854
0.000118241
0.000183414
0.000163522
0.000108801
0.000145242
0.000103229
9.20603e-05
7.36647e-05
7.25264e-05
7.03874e-05
9.00888e-05
0.000100698
7.34651e-05
8.77142e-05
4.29453e-05
5.17448e-05
7.20111e-05
0
0
0
0
0
0
0
2.09722e-05
0.000175054
0.000164419
0.000158645
0.00025882
0.000250783
0.000141292
0.000180753
0.000171381
0.000162767
4.40499e-05
0.000101128
0.000128956
8.97755e-05
9.2882e-05
5.94075e-05
8.92073e-05
4.20557e-05
5.51841e-05
8.68821e-05
1.88847e-05
4.1402e-05
5.84309e-05
1.83384e-05
6.19287e-05
6.2257e-05
4.07313e-06
1.68517e-05
3.18164e-05
3.82205e-05
2.51025e-06
1.54646e-05
7.61862e-05
4.18885e-05
7.05074e-05
7.40361e-05
3.55984e-05
1.85535e-05
2.0096e-05
3.27586e-05
8.60095e-05
4.09522e-05
1.99498e-05
1.74709e-05
1.714e-05
5.28604e-06
9.78481e-06
2.88814e-06
4.45018e-05
2.25397e-05
2.48508e-05
4.3187e-05
0.000148094
0.000163837
6.3423e-05
8.46618e-05
6.89153e-05
8.45108e-05
8.3008e-05
4.2886e-05
0.000167852
6.55904e-05
6.56455e-05
0.000103602
0.000130914
6.86605e-05
0.000214754
3.07699e-05
0.000196438
0.000217086
0.000288718
0.000125711
0.000115606
1.7587e-05
5.32285e-05
7.97627e-05
4.21952e-05
5.5295e-05
1.29579e-05
5.43141e-05
7.11257e-05
4.28107e-05
6.54772e-05
6.32631e-05
4.95178e-05
6.70082e-05
9.24126e-05
3.38295e-05
8.63284e-05
4.63301e-05
5.71265e-05
1.92362e-05
7.38462e-05
0.000100315
1.2308e-05
5.76133e-05
3.78091e-05
3.57702e-05
4.95018e-05
5.05565e-05
7.59132e-05
8.19438e-05
0.000145013
7.84658e-05
0.00015793
0.000149489
0.000211621
8.18305e-05
0.000211989
0.000144319
8.63586e-05
0.00013819
0.000177571
0.000112486
9.24417e-05
9.65523e-05
2.18329e-05
9.22128e-05
0.000143084
0.000158498
0.000110171
4.79764e-05
7.89587e-05
3.37813e-05
0.000150099
0.000108953
0.00017168
0.000191436
0.000165577
0.000197691
0.000125029
0
0
0
0
2.12014e-05
0
0
0
0
0
0
0
0
0
0
0
0.000125047
8.78746e-05
0.000103981
8.83932e-05
0.000197215
0.000147624
0.000183091
0.000120152
0.000138121
0.00015471
0.000166464
0.000103346
9.82787e-05
0.000100223
0.000119092
0.000136727
7.91742e-05
3.34148e-05
3.38106e-05
3.45098e-05
2.4595e-05
4.96622e-05
0
6.65036e-10
2.81318e-09
0
0
0
0
0
5.85901e-10
5.72443e-10
0
0
0
0
2.27739e-09
0
0
0
0
0
0
0
0
0
8.48798e-05
0
0.000294706
0.000189549
0.000288963
0.000226944
0.000166095
0.000251848
0.000168493
0.00013628
0.000159427
7.95188e-05
0.000205067
8.79941e-05
1.65317e-05
8.19803e-05
0.00010375
1.61998e-05
1.04868e-06
6.91032e-05
7.52109e-05
2.55756e-05
4.28116e-05
4.05832e-05
3.55769e-05
3.29201e-05
2.11482e-05
1.75442e-05
1.87558e-05
2.45298e-05
9.77611e-06
5.1892e-05
6.2355e-05
3.33387e-05
1.4778e-05
1.95657e-05
4.87995e-05
3.08546e-05
3.13588e-05
8.28624e-06
1.32661e-05
8.60489e-06
1.95444e-05
4.53949e-06
2.64544e-06
8.39157e-05
7.66033e-05
0.000143647
0.000201066
0.00016139
0.000171595
0.000225361
0.000109288
2.48824e-05
9.29649e-05
0.000119589
3.26413e-05
5.32266e-05
1.07721e-05
0.000157313
0.000145081
8.68025e-05
8.75555e-05
3.62297e-05
3.36435e-05
5.95922e-05
3.65442e-05
0.000106559
6.41265e-05
0.000132128
5.56712e-05
2.88115e-05
0.000155675
5.62227e-05
0.000306334
0.000146921
0.000209429
0.000159015
0.000154569
8.11315e-05
0.000167919
3.88617e-05
7.7986e-05
5.94188e-05
3.8076e-05
6.76482e-05
1.80696e-05
4.38223e-05
2.60813e-05
0.000101525
6.02251e-05
7.51967e-05
9.12458e-05
8.39485e-05
1.98978e-05
0.000126009
0.000110985
0.000104129
9.88849e-05
6.9428e-05
9.00767e-05
6.74737e-05
3.14943e-05
4.52857e-05
5.11722e-05
5.36407e-05
6.13498e-05
0.000176076
4.0802e-05
0.000122275
0.000165335
0.000102119
0.000128461
0.000130564
9.09749e-05
0.000154246
0.000230809
0.00020719
0.000203266
0.000173105
0.000142729
5.32988e-05
0.000129284
2.24316e-05
0.000111211
9.00453e-05
0.000210462
0.000139696
3.69117e-05
6.22802e-05
6.36789e-05
9.62852e-06
5.01704e-05
3.46001e-05
6.82132e-05
0.000161293
0.000160488
0.000141908
0.000114008
2.05933e-05
4.29385e-05
0
0
0
0
0
5.29531e-06
0
0
0
0
0
0
0
0
0
0
0
0
0
0
0
0
0
0
0
0
1.0202e-10
0
0
1.62813e-10
4.6677e-11
9.12759e-11
0
0
0
0
0
0
0
0
0
0
0
0
0
0
0.000162119
0.000196555
0.000216267
0.000165666
0.000224755
0.000162853
5.27649e-05
0.000170758
8.18244e-05
0.000124555
2.44879e-05
8.72202e-05
0.000101293
5.33932e-05
0.000123736
7.1482e-05
6.29347e-05
6.35315e-05
3.83819e-05
3.35235e-05
4.55891e-05
4.63568e-05
0
0
0
0
0
0
0
0
0
0
0
0
0
0
0
0
0
0
0
0
0
0
0
0
0
0
0
0
0
0
0
0
3.85028e-08
0
7.71449e-05
5.47001e-05
0.000281524
0.000173157
0.000257749
0.000320892
0.000315085
0.000270871
0.000219568
0.000248648
0.000337902
0.000217325
0.000218667
0.000293795
0
0
0
0
0
0
0
0
0
0
0
0
0
0
0
0
0
3.81218e-05
6.52085e-05
5.55829e-06
5.07151e-05
2.21006e-05
2.48727e-05
5.80671e-05
2.56838e-05
5.15139e-05
1.8881e-05
2.66091e-06
9.99506e-06
6.03908e-05
6.00614e-05
9.82958e-07
6.22409e-06
1.16355e-05
4.6689e-05
2.08646e-05
4.34432e-05
0
0
0
1.14089e-06
1.28811e-06
2.26338e-06
0
0
0
0
0
0
0.000214687
0.000207066
0.000235507
0.00025239
0.00021039
0.00023286
0.000203585
0.000225084
0.000227914
0.000259846
0.00010773
0.000115584
0.000192086
0.000213814
9.79206e-05
0.000134759
0.000106871
6.19721e-05
4.16303e-05
4.28383e-05
6.44092e-05
2.71507e-05
9.87096e-05
7.1439e-05
1.53224e-05
6.13263e-05
1.81869e-05
8.22722e-05
6.92871e-05
0.000140529
2.90585e-05
7.97994e-05
2.17276e-05
0.000176468
0.000489137
0.000136398
0.000148086
0.000386057
6.46946e-06
1.12699e-05
1.8925e-05
8.74938e-05
2.09368e-05
3.59116e-05
3.2112e-05
7.12046e-05
4.53758e-05
6.26269e-05
7.85023e-05
5.34997e-05
4.50053e-05
9.43528e-05
0.000132719
7.74835e-05
8.49313e-05
0.000116818
9.63994e-05
4.63722e-05
1.6526e-05
8.74661e-05
5.21459e-05
2.95639e-05
0.000120708
6.0457e-05
8.2738e-05
5.61585e-05
4.3211e-05
3.11657e-05
7.37887e-05
0.000193861
0.000138643
0.000175942
1.74311e-05
0.000144812
0.000173364
0.000364277
0.000114139
0.000352043
8.25231e-05
0.000294768
0.000326554
0.000133976
0.000198934
0.000201836
0.000207674
0.000204166
0.000219704
0.000229993
0.000210494
0.000189285
0.000229678
0.000204206
0.000187834
0.000208294
0.000242862
0.000177193
0.000146787
0.000128759
0.000200935
0.000246038
0.000160002
0.000157415
0.000213792
0.000188199
0.000246541
0.000144275
0.000232904
0.000163353
0.000190489
0.000159316
0.000154696
0.000181413
0.000152203
0.000142283
0.000152477
0.000112714
0.000177004
0.000162687
0.00014107
6.62093e-05
0.000255329
8.32541e-05
3.32376e-05
0.000161305
0.000112405
3.54319e-05
3.65599e-05
0.000219457
0.000107348
0.000328814
0
0
2.59094e-05
4.24518e-05
0
9.4665e-07
0
0.000128774
6.41146e-05
7.31542e-05
0
0
0
5.21121e-06
0
2.98903e-09
0
0
0
0
0
0
0
0
0
4.64815e-09
0
0
0
0
0
0
0
0
4.32576e-09
0
0
0
0
0
0
0
0
0
0
0
0
0
0
0
4.57265e-09
0
0
0
0
0
4.62207e-08
0
2.47318e-09
0
3.20969e-09
2.74503e-09
8.23441e-10
0
4.21263e-09
3.12682e-09
0
0
0
0
0
0
0
0
0
0
0
0
0
0
0
0
0
3.66961e-09
0
0
0.000236303
0.000221209
0.000192486
0.000235275
0.000149449
0.000181738
0.00013719
9.54829e-05
0.000102337
7.45339e-05
0.000122654
4.76023e-05
0.000100069
5.73469e-05
2.67869e-05
6.6723e-05
3.63548e-05
2.15289e-05
1.8793e-05
1.54508e-05
6.65093e-05
6.22584e-05
0
0
1.92229e-09
1.3582e-09
0
0
0
0
1.21629e-09
0
0
0
0
0
0
0
0
0
0
0
0
0
4.58228e-09
3.48003e-09
0
0
0
1.09057e-08
0.000100187
0
5.68663e-05
5.02378e-05
9.17972e-05
0.000251856
0.000238111
0.000316358
0.000292543
0.00028453
0.000276118
0.000303519
0.000354531
0.000246269
0.000266313
0.000219842
7.74334e-10
0
0
0
0
2.08649e-11
0
0
8.59061e-11
0
0
0
0
0
0
0
0
0
0
0
0
0
0
0
1.83636e-07
0
6.20217e-05
2.77583e-05
5.67511e-05
3.77634e-05
1.98366e-05
1.2095e-05
3.94974e-06
5.20692e-06
5.0018e-06
5.10103e-06
0
0
0
0
0
0
4.07056e-05
5.44408e-06
6.19397e-05
3.34275e-05
0
0
0
0
0
0
0
0
0
0
5.9127e-10
0
0.000169829
0.000223397
0.000224125
0.000203195
0.000164784
0.000239914
0.000237054
0.000222021
0.000251559
0.000208938
0.000217738
0.000274318
0.000202623
0.000162285
0.000166676
0.000178001
0.00018557
0.000110526
0.000214569
0.000151669
0.000188232
0.000189937
0.000161891
0.000208721
0.000135886
6.095e-05
0.000111562
0.000152876
0.000123443
0.000109682
0.000132766
8.98919e-05
0.000152399
0.000223777
5.02362e-05
0.00012924
6.79149e-05
1.81759e-05
3.07425e-05
0.000101132
0
4.91736e-05
0
6.06193e-05
8.18807e-05
5.87442e-05
4.66766e-05
4.58031e-05
9.98667e-05
5.3631e-05
0
0
0
2.0469e-05
0
0
0
0
1.68316e-05
2.3348e-05
0
1.56574e-05
2.41493e-05
2.28635e-05
6.75954e-05
1.74031e-05
3.13857e-05
4.69573e-05
9.56725e-06
8.54937e-05
0.000134573
6.00878e-05
0.000171192
3.83744e-05
2.00174e-05
0.000169186
0.000118531
0.000205523
7.7415e-05
0.000107138
0.000100282
9.79119e-05
4.66685e-05
0.000103434
6.89888e-05
0.000128063
9.66215e-05
1.87165e-05
6.7028e-05
9.935e-06
4.45578e-05
0.00018172
0.000101143
4.53715e-05
0.000156681
0.000214024
0.000214236
0.000135495
0.000102564
0.000324523
0.000138801
0.000219975
0.000203212
0.00022706
0.000235805
0.000264655
0.00029213
0.000190636
0.00031041
0.000189921
0.000316661
0.000204175
0.000263541
0.000141586
0.000201857
0.000105592
8.22594e-05
0.000161208
9.63416e-05
0.000326734
0.000211317
0.000217074
0.000224413
0.000380547
0.000112995
0.000155364
0.000175335
0.000172332
0.000158382
6.94125e-05
0.000190562
0.000165011
0.000116338
2.07357e-05
1.18168e-05
7.44843e-05
0.000160167
3.98076e-05
0.000227107
0.0001248
0.000343952
0.000310568
0.000264821
0
0
0
1.38868e-05
1.19743e-05
0
0
0
0
9.3873e-09
5.30103e-08
0
0
0
4.35268e-07
0
0
1.78776e-08
0
5.15351e-09
5.90184e-09
0
0
0
6.08937e-09
0
0
0
0
0
0
0
5.09628e-09
0
0
0
0
0
0
0
0
6.05228e-11
0
0
0
1.479e-09
0
0
0
0
0
0
0
0
0
0
0
0
0
0
0
0
4.25897e-09
0
1.50668e-09
0
0
0
0
0
0
0
0
0
0
0.000179941
0.000173775
0.000150907
0.000197846
0.000106333
0.00011395
2.44961e-05
7.72106e-05
6.99381e-05
4.46916e-05
6.77857e-05
9.55932e-05
3.94775e-05
3.02719e-05
6.38033e-05
5.17388e-05
2.71884e-05
2.99449e-05
3.52451e-05
2.53711e-05
4.16264e-05
5.31019e-05
1.67346e-09
0
9.6585e-10
0
0
0
0
0
0
0
0
0
0
0
0
0
0
0
0
0
0
0
0
0
0
0
0
0
6.31424e-05
3.73729e-06
2.07102e-05
6.2093e-05
5.84044e-05
0.000134116
0.000250219
0.000173244
0.000225775
0.000237683
0.000287602
0.000197866
0.000192738
0.000183272
0.000160578
0.000283206
0
0
0
0
0
0
0
0
0
0
0
2.83555e-09
0
0
0
0
0
0
0
1.69799e-08
0
4.289e-08
8.61863e-08
0
0
0
0
0
0
0
0
3.81153e-05
3.71394e-05
1.0084e-05
1.14766e-05
2.49195e-06
1.0588e-05
7.43146e-08
7.19793e-08
3.07619e-05
4.8859e-05
9.19483e-06
0
0
0
0
6.0046e-10
6.50949e-10
0
0
1.27114e-05
0
9.41638e-06
1.28039e-06
0
0
0
0
0
0
0
0
0
0
0
0
0.000284156
0.000163424
0.000195215
0.000205361
0.000138634
0.000131924
0.000193098
0.000199408
0.000165541
0.000132125
0.000170079
0.000214409
0.000211502
0.000149884
0.000141163
0.000105679
0.000107092
8.17855e-05
0.000110223
3.17995e-05
0.000108529
0.000145044
0.000180231
0.000171513
6.78436e-05
0.000233369
0.000100727
0.000155817
0.000164373
8.77809e-05
0.000167447
0.000172714
0.00017852
0.00016483
0.000124404
0.000207592
0.000250762
0.000209372
0.000221211
0.000191268
0.000198186
0.000279722
0.000280993
0.000202789
0.000339226
0.000252223
0.000291219
9.83814e-05
0.000191374
0.000122867
0.000176318
0.000175282
0.000166645
0.000213944
0.000241261
0.000243723
0.00025636
0.000197541
0.000242679
6.60546e-05
9.6197e-05
9.15154e-05
0.00017573
0.000114488
8.96014e-05
6.50932e-05
6.73802e-05
9.6219e-05
0.000229742
0.000134917
9.35321e-05
9.93911e-05
7.32111e-05
2.29995e-06
0.000138597
5.87865e-05
0.000164543
0.000192626
0.0001196
0.000180417
0.000130444
0.000153248
0.000104991
0.000127247
0.000114154
9.14848e-05
6.19563e-05
2.7637e-05
3.62716e-05
0.000140078
5.73734e-05
3.62728e-05
0
0
2.09014e-09
0.000135147
6.04986e-05
6.64551e-05
1.92715e-05
2.14495e-05
3.70422e-09
0
2.83179e-09
4.12009e-09
0
0
0
0
0
0
8.24957e-06
0
0
4.58246e-05
3.89929e-05
7.54252e-06
2.47104e-05
0.000105806
5.84753e-05
8.88443e-05
4.34598e-05
0.000114598
1.75326e-05
9.74822e-05
6.89037e-05
0.000196593
4.77754e-05
0.00022309
0.000130896
0.000158009
0.00018366
8.20078e-05
0.000129651
4.79765e-05
0.000320076
0.00020212
7.77449e-05
8.48959e-05
0.000142588
0.000132052
0.000118168
0.000123933
0.000170039
9.76742e-05
0.000139407
0.000182958
5.82752e-05
0.000330973
0.000304488
0.000184688
0.000196197
0.000209575
0.000241719
0.000302698
0.00036273
0.000318619
0.000307736
0.00023178
0.000344483
0.000211628
0.000348336
0.000219459
0.000183371
0.000305698
0.00022799
9.72451e-05
0.000156533
0.000144226
0.000109145
0.000260598
0.000249144
0.000332933
0.000204832
0.000638153
0.000150343
0.000372066
0.000193988
7.6453e-06
9.5746e-07
1.85236e-05
0
0
0
0
9.95537e-05
0
0
0
0
0
0
5.4969e-09
0
0
0
0
1.92376e-08
0
0
0
0
0
0
0
0
6.98861e-10
0
1.45934e-08
0
6.38442e-10
0
0
0
0
0
0
0
0
0
3.26363e-09
0
0
0
0
0
0
0
0
2.68126e-07
0
0
0
0
0
0
0
0
0
0
0
0
3.44648e-09
0
0
0
0
1.08917e-09
0
0
0
0
0
0
0
0
0
0
0
0
0
0
0
0
0
0
0
8.12794e-10
0
0
0
0
1.76812e-09
7.07515e-05
0.000221226
0.000199753
0.000176802
1.99438e-05
0.000106663
9.034e-05
0.000105473
0.000115634
0.000106041
4.86384e-05
9.83453e-05
7.09501e-05
3.8208e-05
3.44535e-05
5.30047e-05
8.25834e-05
6.74493e-05
3.53365e-05
5.17562e-05
5.63248e-05
3.37733e-05
1.88833e-05
1.71063e-05
4.06443e-05
0
0
0
0
0
0
0
0
0
0
0
8.94967e-10
0
0
0
5.22955e-06
0
0
0
0
0
0
0
0
0
0
0
2.59117e-05
7.45052e-05
6.81485e-05
1.52709e-05
6.58374e-05
4.94191e-05
0.000128374
5.77625e-05
5.7929e-05
7.73532e-05
0.000138735
9.9651e-05
0.000166486
0.000223192
6.46169e-05
0.000149239
0
5.00312e-10
0
0
0
0
0
0
0
0
0
0
0
0
0
0
0
3.66624e-10
0
0
0
0
0
0
4.65465e-09
0
0
0
0
0
0
0
0
0
0
1.35657e-08
0
4.38233e-05
3.40542e-05
4.50893e-05
2.92362e-05
4.68448e-05
2.21169e-05
1.7152e-05
0
0
0
0
2.94753e-05
2.96226e-05
0
0
0
0
0
0
0
0
0
0
0
0
0
0
0
0
0
0
0
0
0
0
0
0
0.000129522
0.000167598
0.000188025
0.00020675
0.00030185
0.000297177
0.000384295
0.000467021
0.00011226
8.92439e-05
3.53279e-05
0.000109748
8.6417e-05
0.000110818
0.000109245
0.000184829
9.57044e-05
5.58257e-05
0.000107546
0.000171701
0.00011363
0.000150196
0.000249935
0.00026311
0.000260074
0.000239318
0.000262913
0.000190521
0.000247312
0.000285771
6.37051e-05
0.000317924
0.000382589
0.000194342
0.000211162
0.000138364
0.000276373
9.72023e-05
9.27366e-05
0.00015797
0.000145386
0.000184932
0.000204724
0.000217902
0.000251189
0.000288878
0.000219398
0.000282445
0.000231082
9.05039e-05
6.17353e-05
0.000254337
0.000234814
8.24805e-05
5.68656e-05
0.000171321
0.000107114
7.48841e-05
5.49433e-05
0.000157523
0.000187722
6.7208e-05
6.20418e-05
4.15405e-05
1.80559e-05
0.00013728
0.000198031
0.000216642
0.000118311
0.00015906
0.000102521
0.000123364
8.09068e-05
7.76513e-05
9.80188e-05
8.74563e-05
8.40848e-05
0.00011178
6.54257e-05
0.000114431
2.14235e-05
9.787e-06
1.90928e-05
3.17905e-05
3.38231e-05
7.37231e-05
0.000102735
9.00084e-05
1.46775e-05
6.48292e-05
3.59084e-09
1.25902e-08
4.0571e-09
0
0
1.47229e-06
0
0
0
0
0
0
0
2.97172e-09
0
1.36892e-09
0
0
0
0
3.23684e-09
0
5.09024e-05
0
0.000119329
5.39048e-05
0.000284621
0.00013661
0.00014045
6.51158e-05
0.000141911
0.000179725
0.000158864
0.000272858
0.000284053
0.000171704
0.000186352
0.000218052
0.000269979
0.000263352
0.000258761
0.000312525
0.000146018
7.07331e-05
0.000161294
0.000120226
0.000173712
0.000227854
0.000212988
0.000260272
0.000309063
0.000163255
0.000274243
0.000298128
0.000368385
0.00019309
0.000435177
0.000192236
0.00020092
0.000509084
0.000469707
0.000306704
0.000290842
0.000343244
0.000220451
0.00022613
0.000347253
0.000328289
0.000181846
0.000115262
0.000285334
0.000248915
0.000121214
0.000217517
8.43493e-05
2.45945e-05
0.000294926
0.000471702
0.00055875
0.000222309
0.00066173
0.000546509
0
0
0
0
0
0
0
0
0
0
0
0
0
0
0
0
0
0
0
0
0
0
0
0
0
0
0
0
2.2069e-09
2.63452e-09
0
0
0
0
0
0
0
0
0
0
0
0
2.11236e-07
0
0
0
0
0
0
0
0
3.47802e-07
0
0
0
1.75117e-09
1.36819e-09
0
0
0
0
0
0
0
3.41623e-09
3.66198e-09
0
0
2.50428e-09
3.22318e-09
0
0
0
0
3.4628e-09
0
5.22434e-09
0
0
0
0
0
8.02127e-10
1.23701e-09
0
0
0
0
0
0
0
0
0
0
1.61319e-09
0
0
0
0
0
0
0
0
0.000233885
4.55041e-05
6.47716e-05
6.00215e-05
0.000147701
9.19854e-05
0.000193161
5.37432e-05
0.000125304
0.000188273
9.45402e-05
6.82498e-05
9.38424e-05
2.8144e-05
4.17369e-05
6.79338e-05
6.39107e-05
5.43356e-05
4.84173e-05
6.78165e-05
8.05084e-05
7.16999e-05
4.20854e-05
7.26292e-05
2.4614e-05
1.19224e-05
1.47045e-05
0
0
0
0
0
0
0
8.78784e-09
7.01332e-05
0
0
0
0
0
0
0
0
0
0
5.60655e-11
0
0
0
0
0
6.21203e-05
3.47214e-05
8.87592e-05
8.82772e-05
4.4839e-05
3.20692e-05
7.26111e-05
5.13294e-05
4.49421e-05
5.98955e-05
0.000124235
1.54553e-06
7.241e-05
3.85419e-05
0.000103013
0.000104869
0
0
4.67911e-10
2.59613e-09
0
0
3.03401e-09
2.0109e-09
0
0
0
6.1815e-09
0
0
0
4.40234e-09
2.84856e-09
3.43028e-09
0
0
0
3.8716e-10
0
0
0
0
0
0
0
0
0
0
0
0
0
0
1.37678e-08
0
0
0
0
0
0
0
0
2.85387e-05
2.90808e-05
4.89557e-05
9.72319e-06
1.43035e-05
0
0
0
0
0
0
1.0596e-09
1.38964e-09
0
0
0
0
0
0
0
0
0
0
0
0
9.26488e-07
0
0
4.01838e-10
0
2.48247e-09
0
0
0
0
0
0
0
1.21686e-09
0.000247334
0.000150782
0.000323309
0.000254306
8.57758e-05
0.000240577
0.000160548
0.000257359
0.000114925
0.000255491
0.000534945
0.000469732
0.000104343
0.000171093
6.94969e-05
8.00885e-05
9.61649e-05
9.38435e-05
0.000139371
0.000144938
0.000194909
0.000155028
0.00013815
7.79426e-05
0.00016031
7.01008e-05
0.000111532
7.59119e-05
0.000222099
0.000243722
0.000204511
0.000258229
0.000182865
0.000251657
0.000217381
0.000317773
5.89952e-05
0.00012117
0.000170106
0.000209493
2.71431e-05
0.000136397
6.37667e-05
9.83382e-05
0.000120357
7.1072e-05
0.000203617
0.000114222
0.000169523
0.000298769
0.000224634
0.00027072
4.42104e-05
0.000124765
0.000163363
0.000199275
0.000145105
7.68351e-05
6.76745e-05
0.000121889
0.000147448
0.000158889
0.00013896
0.000143073
0.000195021
0.000166918
5.63235e-05
6.43069e-05
3.21697e-05
8.64867e-05
0.000585546
0.000582563
3.12579e-05
9.59954e-05
0.000230692
0.00018535
0.00010652
7.76282e-05
0.000177924
0.000132749
0.000148593
0.000123937
8.51378e-05
4.23618e-05
2.9232e-05
7.77071e-05
1.8117e-05
4.54143e-05
1.91814e-05
3.33289e-05
4.63691e-05
0.00015538
0.000186952
7.55633e-05
4.27555e-05
0
0
0
0
0
0
0
0
0
0
0
0
0
0
0
0
3.51708e-09
0
0
0
0
0
0.000232652
0
0.000155889
7.57137e-05
0.000201819
0.000162629
9.86061e-05
9.24929e-05
0.000102319
6.19234e-05
0.000124777
0.000199776
0.000133633
7.45194e-05
0.000179695
5.66612e-05
0.000250178
0.000132715
0.000179874
0.000164591
2.66891e-05
9.26826e-05
0.000197601
0.000194379
0.000255135
0.000108449
0.000205835
0.000243425
0.000280926
0.00028859
0.00023358
0.00025634
0.000317998
0.000368834
0.000454054
0.000222284
0.000361214
0.000275386
0.000343892
0.000255073
0.000348285
0.000243235
0.000348402
0.000220734
0.000321624
0.000158564
9.85124e-05
0.000293272
0.000239956
0.000134013
0.000154283
0.000169958
0.000228674
0.000268664
0.000461533
0.000378819
0.000728924
0
0
1.82994e-06
6.5958e-11
0
0
0
0
0
0
6.45028e-09
6.11252e-10
0
6.82031e-10
8.12866e-10
1.95486e-09
6.17367e-10
0
2.52802e-09
4.51767e-07
0
0
0
3.72304e-09
0
7.204e-09
5.6382e-09
0
0
0
0
0
0
0
4.81465e-09
4.87065e-11
0
0
0
0
0
0
8.89406e-07
0
0
0
0
0
0
0
0
0
0
0
0
0
0
0
0
0
0
0
0
0
0
0
0
0
0
0
0
0
0
0
0
0
0
0
0
0
0
0
4.562e-09
0
0
0
0
0
0
0
0
0
0
0
0
0
0
0
0
0
0
0
0
0
0
0
0
0
0
0
0
0
2.71391e-10
0
0
0
0
8.4007e-05
8.50385e-05
8.0716e-05
0.000132829
0.00029245
7.54789e-05
0.0001939
9.8635e-05
0.000257738
0.000198291
0.000184027
0.000132074
0.000465189
6.7457e-05
0.000570053
6.25101e-05
3.52444e-05
5.8303e-05
4.99765e-05
3.74217e-05
3.6889e-05
1.57805e-05
2.1983e-05
2.33363e-05
4.33314e-05
8.71718e-05
2.7746e-05
3.70395e-05
1.8775e-05
0
0
0
0
0
8.16735e-05
0
0
0
0
0
0
0
0
0
0
0
0
1.98964e-10
0
2.00223e-10
0
0
0
3.25126e-05
4.2234e-05
3.20067e-05
4.49538e-05
6.11584e-05
9.77139e-05
8.92392e-05
8.14906e-05
9.83074e-05
8.09066e-05
5.63939e-05
9.27382e-05
0.00013811
2.98645e-05
7.60872e-05
4.84134e-05
0
9.88513e-10
0
0
0
0
0
1.34851e-09
0
0
1.38198e-09
0
0
0
0
0
0
0
0
2.9241e-11
0
0
0
0
0
0
0
0
0
0
0
0
0
0
0
0
0
0
1.0596e-09
8.03273e-09
0
0
0
0
0
0
0
0
0
0
0
0
0
0
0
0
0
5.13264e-05
6.04357e-05
1.41095e-05
0
0
0
0
0
0
0
0
0
0
0
0
0
0
0
0
0
0
0
0
0
0
0
0
0
0
0
0
0
0
8.97915e-09
1.15216e-08
0
0
0
0
0
0
0.000217063
0.000131702
0.000371014
0.000199621
0.000487673
0.000357608
0.000411108
0.000287553
0.000451565
0.000366532
0.000269359
0.000125968
0.000189764
5.23347e-05
0.000134829
8.56515e-05
9.2649e-05
0.000137377
0.000107925
0.000246165
0.000229208
0.000176441
0.000143984
0.000124137
0.000156251
0.000155728
0.000119891
0.000325537
0.000231265
0.000196653
0.0002495
0.00028722
0.000155756
0.00032115
0.000193412
0.000101249
0.000143757
0.000244325
0.00021326
9.28007e-05
0.000125579
5.94979e-05
0.000129182
4.66701e-05
0.000148632
0.000192958
8.93657e-05
0.000149582
0.000271101
0.000522496
0.000407242
0.000543489
0.000310948
0.000194126
0.000110392
0.000299274
0.000136419
0.000136069
0.000112341
0.000163261
0.000133248
0.000149602
0.000184207
9.32432e-05
0.00028415
6.46324e-05
8.79186e-05
8.02838e-05
5.13115e-05
0
0
3.36405e-05
0.000559893
0.000335847
0.000130242
0.000140597
0.000304108
0.000179297
0.000229918
0.00012584
0.000170465
0.000199531
7.23835e-05
8.07368e-05
3.37147e-05
5.26416e-05
1.71766e-05
1.58854e-05
8.18899e-05
4.14699e-05
3.96733e-05
5.01796e-05
7.60318e-05
6.87868e-05
4.15045e-05
5.4874e-05
6.6698e-05
0.000100486
0
0
0
0
0
2.95996e-09
1.00209e-09
0
0
0
0
4.158e-09
1.91888e-09
0
0
0
0
0
0
0
0
0
0
6.00884e-06
0
0.000128008
7.68008e-05
6.02217e-05
7.94863e-05
6.54237e-05
0.000112684
3.12112e-05
0.000150551
0.000186333
8.87544e-05
0.00011944
9.47393e-05
0.000160372
0.000325909
0.000307352
0.000228758
0.000250738
0.000130905
0.000110031
2.55409e-05
0.000208575
0.000249014
4.93305e-05
0.000239459
0.000114114
0.000204542
0.000319505
0.0002129
0.000325849
0.000175968
0.00034249
0.000399605
0.000277854
0.000384781
0.000275224
0.000371632
0.000271741
0.000325653
0.000251929
0.000176338
0.000356379
0.000135861
0.000312869
0.00029777
0.000100724
0.000216431
7.89308e-05
0.000103603
4.0086e-05
0.000281244
0.000294164
2.53043e-05
0.000235484
0
0
0
0
0
0
0
0
0
5.71668e-09
0
0
0
4.03652e-09
3.03209e-09
8.97085e-10
2.17945e-09
9.34892e-10
5.20628e-09
0
0
0
0
0
0
0
0
0
0
0
0
0
0
0
0
1.7792e-10
0
0
0
1.18511e-07
0
0
0
0
0
0
0
0
0
0
0
0
0
0
0
0
0
0
8.41568e-08
0
0
0
0
0
8.31775e-10
2.77724e-10
1.2486e-09
0
0
0
0
0
0
0
0
0
0
0
0
0
0
0
0
0
0
0
0
0
0
0
0
0
0
0
0
0
0
0
0
0
0
0
0
0
0
0
0
0
2.22784e-09
0
2.93208e-10
0
0
3.48457e-10
0
2.62705e-09
4.87165e-05
0.000119118
0.000102435
6.44521e-05
0.000103121
0.000313572
0.000198331
6.70844e-05
0.000185949
0.000151921
2.06327e-05
0.000182405
0.000559072
0.000167749
0.000282465
0.000233184
6.70722e-05
0.000336744
7.91456e-05
4.95725e-05
4.40679e-05
5.84965e-05
1.39616e-05
6.76119e-05
7.86547e-05
6.56567e-05
5.40379e-05
1.10634e-05
3.39792e-05
5.65164e-05
3.05658e-05
3.41511e-05
2.56805e-05
0
0
7.26603e-05
1.90654e-05
0
0
0
0
0
0
0
0
6.62508e-09
0
0
0
0
4.31666e-09
0
0
3.39832e-09
0
0
0
4.27548e-05
9.90861e-05
2.88087e-05
0.000138895
7.54374e-05
2.9213e-05
2.57445e-05
7.97861e-05
3.23045e-05
9.15917e-05
2.51444e-05
8.60277e-05
5.39253e-05
0
0
0
0
0
0
5.89177e-09
2.87913e-09
0
0
1.24742e-09
0
0
0
0
0
0
2.73486e-07
0
0
0
0
0
0
0
0
0
0
1.68676e-08
0
0
0
0
0
0
0
0
0
0
0
0
0
0
0
0
0
0
0
0
0
0
7.15101e-09
0
0
0
0
0
0
0
0
0
0
0
2.68766e-05
0
0
0
0
0
0
0
2.17269e-09
0
0
0
0
0
0
0
0
0
0
0
0
0
0
0
0
0
0
0
0
0
0
0
0
0
1.82694e-09
0
0
0
0
0
0
0
0
0.000842406
0.000195616
0.000275146
0.000127559
0.000647762
0.000286504
0.00011355
7.46964e-05
0.000262361
0.000167671
0.000169266
4.43743e-05
0.000144069
0.00016595
0.000136131
0.000130792
5.46008e-05
0.00012863
4.91057e-05
0.000156076
0.000281713
8.84521e-05
0.00016632
0.00021774
0.00018416
0.000150659
9.60346e-05
3.31127e-05
0.000333049
0.000208415
0.000183789
0.000268626
0.00010304
0.000282309
0.00020861
0.000322996
0.000113454
0.000166946
0.000229834
0.000226306
5.13984e-05
0.000185556
0.000130728
1.56067e-05
6.5248e-05
0.00010515
0.000103811
0.000254638
0.000357128
0.000225477
0.000250637
0.000124982
0.000126459
0.000313881
0.000137176
0.000150494
0.000120039
6.80405e-05
0.000118439
2.58164e-05
0.000184887
7.81607e-05
0.000104836
0.00018416
8.60861e-05
0.000299522
4.54624e-05
4.54456e-05
2.21743e-05
8.93006e-05
5.19887e-05
7.56822e-05
0.000250876
7.2935e-05
8.56015e-05
0.000125954
0.000244085
0.000199942
8.42046e-05
6.65596e-05
3.64819e-05
3.4705e-05
3.52222e-05
6.37995e-05
1.54046e-05
1.2599e-05
8.65901e-05
6.75776e-06
6.21983e-05
6.75258e-05
5.55333e-05
0.000130178
8.91735e-05
4.47007e-05
4.46358e-05
0.000163168
0.00011686
0
0
0
0
0
0
0
0
0
4.698e-09
0
0
0
0
0
4.68985e-10
2.33765e-10
0
0
0
0
0
2.26054e-05
2.22604e-05
0
7.15347e-05
2.01386e-05
3.49601e-05
0.000228314
0.000139184
0.00021954
0.000214865
0.000158987
0.000105973
4.80204e-05
7.54734e-05
0.000148276
0.000263225
0.000249449
0.000169848
0.00018623
0.000261687
0.000250466
0.000209635
0.000115447
0.000259095
0.000235609
0.000293663
0.000326667
0.000215496
0.000330181
0.00019467
0.000311141
0.000245038
0.000375487
0.000193076
0.00032522
0.000383967
0.000304533
0.000359201
0.000249544
0.000325629
0.000300146
0.000209667
0.000328512
0.000137555
0.000296391
0.000109383
7.45594e-05
0.000258237
4.29212e-05
0.000220191
0.000177574
0.000102393
0.000138532
0.000264198
0.000215083
6.21589e-05
0
0
0
0
0
0
0
0
0
0
0
0
0
0
0
0
0
7.78938e-09
0
0
2.28711e-08
0
0
0
4.08192e-09
0
0
0
0
0
6.13373e-11
3.22927e-09
0
0
0
0
0
0
0
0
0
0
0
0
0
0
1.74621e-09
2.64675e-09
2.50932e-09
0
0
0
0
1.04485e-09
0
0
1.29612e-09
0
0
0
0
2.1912e-09
0
1.97265e-09
0
0
0
0
0
0
0
0
0
0
0
0
0
0
0
0
0
0
0
0
0
0
0
0
0
0
0
0
0
0
0
0
0
0
0
0
0
0
0
0
0
0
0
0
0
0
0
0
0
0
0
0
0
9.7603e-10
0
0
0
2.51724e-09
0
0
0.000129132
0.000107499
0.000120047
0.000193399
0.000122857
0.000139153
5.39197e-05
5.27467e-05
0.000123684
9.80641e-05
0.00020124
0.00019805
0.000766806
0.000382778
0.000123045
0.000115836
0.000376374
7.45764e-05
0.00010334
0.000201101
0.000206258
6.97938e-05
0.000566346
0.000211655
1.24415e-05
1.54685e-05
5.38823e-05
8.72266e-05
5.37924e-05
7.8692e-05
3.21221e-05
6.03607e-05
8.1697e-05
4.03656e-05
2.91176e-05
2.18174e-05
1.78503e-05
3.39308e-06
1.65506e-05
0.000114345
7.1922e-05
0
0
6.33317e-09
0
0
5.32225e-09
0
0
0
6.04201e-09
0
1.39904e-10
0
0
0
7.02994e-10
0
1.79248e-09
0
0
8.32359e-05
4.03438e-05
2.85675e-05
9.10591e-05
5.01318e-05
4.66249e-05
6.37025e-05
2.47229e-05
7.40652e-05
2.751e-05
5.72184e-05
9.02965e-10
0
0
5.04004e-10
0
0
6.78034e-10
2.35609e-10
0
0
0
0
0
0
0
0
1.11976e-07
2.18301e-07
0
0
7.60046e-08
0
6.66457e-09
0
0
0
0
6.39935e-07
0
2.28753e-09
9.42548e-08
0
0
0
0
0
0
0
0
0
0
0
0
0
0
0
0
0
0
6.04601e-09
0
0
0
7.83279e-09
0
0
0
0
0
0
0
0
0
0
0
0
0
0
0
0
0
0
0
0
0
0
2.261e-09
8.69438e-10
0
0
0
0
0
0
0
0
1.07126e-09
0
0
0
0
0
0
7.07864e-10
0
0
0
0
0
0
0
0
0
0
2.39817e-05
0
0
0
1.47361e-09
0
9.3155e-11
0
0
0
0
0
0
0
0.000424633