/*--------------------------------*- C++ -*----------------------------------*\
  =========                 |
  \\      /  F ield         | OpenFOAM: The Open Source CFD Toolbox
   \\    /   O peration     | Website:  https://openfoam.org
    \\  /    A nd           | Version:  8
     \\/     M anipulation  |
\*---------------------------------------------------------------------------*/
FoamFile
{
    version     2.0;
    format      ascii;
    class       volScalarField;
    location    "14700";
    object      alpha;
}
// * * * * * * * * * * * * * * * * * * * * * * * * * * * * * * * * * * * * * //

dimensions      [0 0 -1 0 0 0 0];

internalField   nonuniform List<scalar> 
526318
(
0.000135538
0.00036515
0.00029085
0.000411912
0.000312964
0.000318473
0.000760589
0.000869803
0.0001602
0.00116036
0.000219524
0.000158601
0.000369853
0.000454719
0.000669655
0.0004062
0.000340094
0.000129248
0.000350406
0.000321264
0.000122302
0.000311717
0.000596379
0.000372257
0.00137567
0.000741108
7.20105e-05
0.000638388
0.000329671
0.0002632
0.000232456
0.000379299
0.000209419
0.000251683
0.000245719
0.000606053
0.000181665
0.000388467
0.000154365
0.000435832
0.000303832
3.86278e-05
0.00274347
0.00353386
0.00168689
0.00234147
0.000916735
0.00153019
0.0006054
0.00022388
0.000706579
6.06866e-05
0.000318257
0.000117327
0.031938
0.00626159
0.00727542
0.0223465
0.000240845
0.000125874
0.000257157
0.000149264
0.000462353
0.000114879
0.000179091
0.000396546
0.000228343
0.000434644
0.00024535
0.000105622
0.000450676
0.000798789
0.000312914
0.000497602
0.000599199
0.000407972
0.000443915
0.000222169
0.000157366
0.0005163
0.000344294
0.000142028
0.000331675
0.00023965
0.000291543
0.000431293
0.00031807
0.000188375
0.00060215
0.000279828
0.000346302
0.00046283
0.000561979
0.000540076
0.00129177
0.000537673
0.000810705
0.00106454
0.00107237
0.00112949
0
0
0
0.37617
0.0482416
0
0.00530298
0.00652597
0.00156877
0.00080404
0.001756
0.00103865
0.000311421
0.00123157
0.000451877
0.000280186
0.000163103
0.000129528
0.000148864
0.00111411
0.00111868
0.00112601
0.00079951
0.00149055
0.00101637
0.00178427
0.0015471
0.00241435
0.00157348
0.00225881
0.00276823
0.00251921
0.00238075
0.00237248
0.00239575
0.00300612
0.00259949
0.00236992
0.00299339
0.00372973
0.00344193
0.00305266
0.0032778
0.00305629
0.00349047
0.00398425
0.00314281
0.00391135
0.00363482
0.00333092
0.00362427
0.00319435
0.00280843
0.00362056
0.00312795
0.00325988
0.00297894
0.00358845
0.00455088
0.00593957
0.00286862
0.00389693
0.00284669
0.000357045
0.000245675
0.000249553
0.000346246
0.000498614
0.00033638
0.000230328
0.000262366
0.000138472
0.000326041
0.00040243
0.000209986
0.000263335
0.000453924
0.000513064
0.00012944
0.000460151
0.000678849
0.000248515
0.000883145
0.00215512
0.000993986
0.00313335
0.00250295
0.00233351
0.0029244
0.00258814
0.00257844
0.00248352
0.00293264
0.0028728
0.00223946
0.00243216
0.00266544
0.00233631
0.00257943
0.00340702
0.00242324
0.00342928
0.00254476
0.00266122
0.00237556
0.00322498
0.00272143
0.0018744
0.00263535
0.00239917
0.000636226
0.000311012
0.000624803
6.04232e-05
0.000866301
0.000560597
0.000158244
0.000276429
0.000485243
0.00423797
0.000721308
0.00121848
0.000392006
0.000352041
0.00107808
0.000749048
0.000467989
0.000493665
0.000281257
1.58401
0
0.0550512
0.0198324
0
0
0
0
0
0
0.000295584
0.000257195
0.000245329
0.000268894
0.000296753
0.000377303
0.000529608
0.000215582
0.000388566
0.000138127
0.000436034
0.000405633
0.000363553
0.000278851
0.000627254
0.000312782
0.00067364
0.000471584
0.00111034
0.000848326
0.00123292
0.00108158
0
0
0
0
0
0
0
0.00961477
0.00198363
0.0030546
0.0012564
0.000861107
0.00104686
0.00097712
0.000857696
0.000296321
0.000158555
0.000450116
0.0002773
0.000229587
0.00127887
0.00103476
0.00123151
0.00173645
0.0027707
0.00220306
0.00260372
0.00257277
0.00243398
0.00344079
0.0033195
0.00243712
0.00393522
0.00323218
0.00133079
0.00145582
0.00147653
0.00118183
0.00198985
0.00165631
0.00311723
0.00322151
0.00299722
0.00214803
0.00278631
0.0030135
0.00336251
0.00388665
0.00269407
0.00443451
0.00365839
0.00543437
0.00771828
0.00660027
0.00587533
0.00079744
0.000315986
0.00151666
0.00138563
0.000450925
0.000393809
0.000613734
0.00023097
0.000347472
6.77695e-05
6.16511e-05
0.000199229
0.00029072
0.00031493
0.000501711
0.000600825
0.000849135
0.000526528
0.0012663
0.000722744
0.00175223
0.000545823
0.00122607
0.00192142
0.00211261
0.00312355
0.00218491
0.00358619
0.00234473
0.00293358
0.00299216
0.00267778
0.00259961
0.00280988
0.00236406
0.0025551
0.00228518
0.0022412
0.00232022
0.00233603
0.00200837
0.00215106
0.00319856
0.00226282
0.00222407
0.00198351
0.00123409
0.00201019
0.00249859
0.00151322
0.00153878
0.00106326
0.000547682
0.00124445
0.000878485
0.000931457
0.000605956
0.000797193
0.000332338
0.000689829
0.00045645
0.000425291
0.000423501
0.000234646
0.000642783
0.00152832
0.000264071
0.000514694
0.000520543
0.000955228
0.000224518
0.000159953
0.00688606
0.0122622
0.00830236
0.00452167
0.00118657
0.000181007
0.00174132
0.00105274
0.000407356
0.000718966
0.000338247
0
0
0.0578793
0
0.0211577
0.522207
0
0
0
0
0
0
0
0
0
0
0.000172474
0.000431385
0.000110633
0.000396342
0.000152928
0.000214692
0.000360712
0.000206592
0.000327564
0.000650209
0.000517838
0.000500019
0.000464503
0.000402398
0.00052253
0.000592829
0.00064121
0.000601039
0.00079052
0.00111813
0.0011151
0.00152397
0
0.00273522
0.000318382
0
0
0
0
0.000270858
0.00283218
0.00239176
0
0
0
0
0
0
0
0
0
0
0
0
0.0315629
0.155474
0.00167694
0.0074891
0.00115651
0.000758591
0.000525495
0.00077039
0.000631331
0.000840223
0.000685351
0.000453166
0.000482076
0.000125211
0.000219632
0.000244836
0.00112579
0.00166002
0.00193927
0.00135507
0.00247378
0.00290382
0.00261631
0.00247589
0.00350396
0.00177892
0.00301877
0.00402338
0.0040734
0.00204506
0.00296748
0.00263415
0.00351295
0.0021519
0.0031406
0.00020809
0.006074
0.00279362
0.00607364
0.00568054
0.0028978
0.00386071
0.00575308
0.00443846
0.00541361
0.00230066
0.00991183
0.00071856
0.000862886
0.000708509
0.000149621
0.000699064
0.000449852
0.000228341
0.000471918
0.000752101
0.000657297
0.000621741
0.000532825
0.000353094
0.00130599
0.000691724
0.00112096
4.64864e-05
0.000456628
0.000197079
0.000447665
0.000607466
0.000337853
0.000181104
0.000316723
0.000345217
0.000621787
0.00115625
0.00115318
0.000779782
0.00145202
0.00446393
0.00148308
0.0025956
0.00781552
0.0028665
0.00370503
0.00392342
0.0028269
0.00236309
0.00402498
0.00277433
0.00311409
0.00270518
0.00273166
0.00243321
0.00256212
0.0024561
0.00242547
0.00276185
0.00211297
0.00166592
0.00212584
0.00178864
0.00179867
0.00231015
0.00155468
0.0019099
0.00172216
0.00165342
0.00129901
0.00152275
0.00173778
0.00101502
0.00133145
0.000260214
0.000477756
0.000527872
0.000435409
0.000191111
0.000208503
0.000292629
0.000367109
0.000266989
0.000519633
0.000249317
0.000357316
0.000374454
8.42429e-05
0.00019219
0.00149827
0.000500062
0.0017013
0.00187253
0.00127494
0.000260883
0.000337444
0.0205444
0.00346998
0.00472709
0.000133229
0.000521555
0.00140828
0.00148103
0.00107467
0.000742382
0.00102527
0
0
0
0
0.133268
0.0452087
0
0
0
0
0
0
0
0
0
0
0
0
0
0
0
0
0
0
0
0
0.00663747
0
0
0
0.00357207
0.00613236
0
0
0
0
0
0
0
0
0
0
0
0
0
0
0.000203343
0.000134239
0.000133046
0.000154002
0.000275417
6.47346e-05
0.000484062
0.000619919
0.000442038
0.000604255
0.000524486
0.000477383
0.000454588
0.000615719
0.000557601
0.000494292
0.00078669
0.000604903
0.00113381
0.000847582
0.00150793
0.00107945
0
0
0
0
0
0
0
0
0
0
0
0
0
0
0
0
0
0
0
0
0
0
0
0
0
0
0
0
0
0
0.00964032
0
0.00505936
0.000844983
0.000959308
0.00285235
0.000610513
0.000690165
0.000198706
0.000627169
0.000724169
0.000573693
0.000263464
0.000648012
0.000393906
8.50613e-05
2.66224e-05
0.000211089
0.00303651
0
0
0
0
0.0789155
0
0
0
0
0
0
0
0
0
0
0
0.00112972
0.00153435
0.00108342
0.00175082
0.00184617
0.00229779
0.00328989
0.00335096
0.00537399
0.00110634
0.00345805
0.00736093
0.00396055
0.00574214
0.000771048
0.000832121
0.00604274
0.00312059
0.00265635
0.00204499
0.0126584
0.011345
0.0110468
0.00611865
0.00355957
0.00924474
0.00648467
0.00421528
0.0156343
0.0246171
0.127971
0.066494
0.000345362
0.000584955
0.000280823
0.000369704
0.0002772
0.00024498
0.000303044
0.000314904
0.000182688
0.000275342
0.000580589
0.00056451
0.000567329
0.000256808
0.000378572
0.00107517
0.000253935
0.000854178
0.000818026
0.000778431
0.000954861
0.00343475
0.00142902
0.00065185
0.00108465
0.000467378
0.000161996
0.000497487
0.000711848
0.000371781
0.00171195
0.00187544
0.00289519
0.000988814
0.0014353
0.00388305
0.0105715
0.00865553
0.046818
0.00932002
0.0172998
0.00753024
0.00280378
0.0104731
0.00351925
0.00216114
0.00258943
0.00204259
0.00231352
0.00223963
0.0021141
0.00222285
0.00244331
0.00203849
0.00163074
0.00197191
0.00148416
0.00172333
0.00149794
0.00172388
0.00142414
0.00134082
0.00117981
0.00108109
0.00125278
0.00129702
0.000933888
0.00130464
0.000844801
0.000759141
0.000346065
9.71385e-05
0.000365018
0.000606086
0.000154431
5.05571e-05
0.000342459
0.000184907
0.000282462
0.000426043
0.0001651
0.000267964
0.000249392
0.000175355
0.000210459
0.000353832
0.000316512
0.000360109
0.000245675
0.0002178
0.000228952
0.000296169
0.000232179
0.000277926
0.000208813
0.000292849
0.000242498
0.000320258
0.00024183
0.000213888
0.000242817
0.000283319
0.000209006
0.000203178
0.000172922
0.000268494
0.000156487
0.000193543
0.000201776
0.000261835
0.000173834
0.000207119
0.000215391
0.000249889
0.00025076
0.000153755
0.000205501
0.000261164
0.000279597
0.000229533
0.000195594
0.00141548
0.00113309
0.000157893
0.000574572
0.00131183
0.000623594
0.000787701
0.00247007
0.00183533
0.0154991
0.0100646
0.00253209
0.00433344
0.139309
0.00465265
0.00967026
0.0031407
0.00237242
0.0106287
0.00497985
0.0113975
0.0122149
0.00821316
0
0
7.36395
0
0
0
0
0
0
0
0
0.0058814
0
0
0
0
0
0
0
0
0.0110434
0
0
0
0
0
0
0
0
0
0
0
0
0
0
0
0
0.00785645
0
0
0
0
0
0
0.0066759
0
0.00482041
0
0
0
0
0
0
0
0
0
0
0
0
0
0
0
0
0
0
0
0
0
0
0
0
0
0.000274595
0.000134949
0.000181325
0.000181674
0.000500998
0.000357118
0.000476916
0.000204584
0.000727001
0.00049358
0.000401941
0.000574143
0.000303267
0.000644702
0.000900876
0.00100477
0.00126166
0.000584749
0.000739296
0.000689945
0.000780969
0.000819115
0
0
0.00568688
0.00501196
0
0
0
0
0.0096902
0
0
0
0
0
0
0
0
0
0
0
0
0
0.00846677
0.00717182
0
0
0
0.00980474
0.00219539
0.00587774
0.00162422
0.000584111
0.000509957
0.000381069
0.000233506
0.000373618
0.000403528
0.00045126
0.000117862
0.000585964
0.000179843
0.000158812
0.000342228
0.000201194
0.00276728
0
0
0
0
9.78241e-05
0
0
3.62795e-05
0
0
0
0
0
0
0
0
0
0
0
0
0
0
0
0.52834
4.93245
0.0014017
0.00118395
0.00194845
0.00144069
0.00359383
0.00280142
0.00434853
0.00580029
0.00356717
0.00319757
0.00447602
0.00467686
0.0110532
0.00800453
0.0185366
0.013225
0.0045199
0.00147463
0.0019359
0.00423811
0
0.0645435
0.0104314
0.0375021
0.0165329
0.0306751
0
0
0
0
0.0634516
0
0.000329817
0.000262692
0.000117168
0.000876141
0.000424801
0.000504202
0.00024602
0.00012673
0.000372493
0.000308828
0.000322246
0.000347131
0.000342203
0.000360761
0.000341589
0.000267172
0.000243064
0.000306103
0.000287048
0.000307755
0.000324036
0.00028969
0.000332006
0.000329125
0.000223467
0.000289838
0.000261022
0.000188032
0.000331486
0.000342171
0.000408083
0.000304515
0.000490824
0.000271
8.65319e-05
0.00172488
0.000613662
0.000725015
0.0030701
0.000993826
0.00609878
0.00321579
0.00405008
0.000776709
0.000498638
0.000361007
0.000646959
0.000749875
0.00195162
0.000888251
0.0089554
0.00717312
0.00688115
0.00446158
0.00105618
0.0261572
0
0.236422
0.0143472
0.0222341
0.117146
0.0117808
0.00345167
0.00885959
0.00248614
0.00372604
0.00241162
0.00257809
0.00197859
0.00211492
0.00178341
0.00198713
0.00181303
0.00188241
0.00133846
0.00164251
0.00160638
0.00126386
0.00099444
0.00142744
0.00104531
0.00117023
0.00127136
0.00119857
0.00114349
0.000890767
0.000930681
0.0012705
0.000628465
0.000706153
0.000545654
0.000551384
0.000507033
0.000457498
0.000604649
0.000340656
0.000391132
0.000309147
0.000280559
0.000289939
0.000174485
0.000132897
0.000181571
0.000157063
0.000185697
0.000221191
0.000180403
0.000157859
0.000187302
0.000156496
0.00016276
0.00013472
0.000147565
0.00013718
0.000133738
0.00013093
0.000154541
0.000156241
0.00015981
0.000147315
0.000136476
0.000160071
0.00020031
0.000147407
0.000170595
0.000244775
0.000186677
0.000177649
0.000141787
0.000115609
0.000242771
0.000164797
0.000155734
0.00336289
0.0080742
0.00327318
0.00222447
0.0014083
0.00251368
0.000343339
0.00077552
0.00112161
0.000977336
0.00136813
0.0160124
0.0301025
0.00440671
0.00428372
0
0
0.0213764
0
0.00947635
0.0227777
0.0111107
0.00545791
0.00260884
0.00904446
0
0
0
0
0.0208583
0.0268063
0
0
0
0.00696848
0
0
0
0
0
0
0
0.0163142
0
0
0
0
0
0
0
0
9.83728e-05
0
0
0
0
0
0
0
0
0
0
0
0
0
0
0.00269733
0
0
0
0
0
0
0
0
0
0
0
0
0
0
0
0
0
0
0.000227208
0.000341535
0.000135638
8.80659e-05
8.01411e-05
0.000168442
0.00042304
0.000682832
0.000288482
0.000225162
0.000854691
0.000436127
0.000705951
0.000516379
0.000673841
0.00121542
0.00194334
0.000622044
0.000517538
0.000583782
0.000665801
0.000527364
0.00111218
0
0.00138534
0
0
0
0
0
0
0
0
0
0
0
0
0
0
0
0
0
0
0
0
0
0
0
0.0179574
0.00138932
0.00264791
0.0057541
0.0013382
0.000856892
0.000683199
0.000355975
0.000248268
0.000195287
0.000257049
0.00050278
0.000242787
0.000216449
0.000334159
0.000144464
7.60883e-05
5.98105e-05
0
0
0
0
0
0
0
0
0
0
0
0
0
0
0
0
0
0
0
0
0
0
0.488223
0
0
0
0
0
0
0
0
0.000945824
0.00275101
0.0032336
0.00400606
0.00252289
0.00503161
0.00603427
0.00601113
0.00125841
0.00176946
0.00209928
0.027391
0.0147211
0
0
0.00392301
0.0235237
0.0174133
0.00914529
0.00415777
0.0109489
0.00243086
0.00121747
0.168909
0
0.473513
0.0824123
0
0
0
0
0
0
0
0
0.000141158
0.000116278
0.000110963
0.000105007
9.73719e-05
7.05009e-05
7.43237e-05
8.80601e-05
6.71156e-05
3.95661e-05
6.20277e-05
3.71062e-05
0.000144805
5.76245e-05
0.000115276
0.000213837
9.76063e-05
0.000100803
5.55047e-05
0.00012296
9.06371e-05
3.96829e-05
4.83001e-05
7.06195e-05
7.23384e-05
3.49943e-05
7.37806e-05
0.000100317
7.7228e-05
0.000292151
0.000240083
0.000215239
0.000294735
0.000282196
0.000180327
0.000360593
0.000222867
0.000130282
0.000921789
0.000674047
0.000447093
0.000356924
0.000381859
0.000350989
0.000323536
0.000295002
0.000303139
0.000417112
0.000353932
0.000372033
0.000291048
0.000354169
0.000329793
0.000425962
0.000360144
0.000396552
0.000414204
0.000405888
0.000413249
0.000343786
0.000314567
0.000418712
0.000372092
0.000603006
0.000830816
0.00147523
0.000969633
0.000828116
0.000400916
0.000168041
0.000707738
0.00107044
0.00331869
0.00213459
0.00011261
5.97335e-05
7.75796e-05
3.9648e-05
5.01719e-05
4.37976e-05
5.37942e-05
4.49662e-05
5.07475e-05
9.83483e-05
5.91012e-05
9.44583e-05
6.62065e-05
7.43481e-05
4.59746e-05
2.48266e-05
4.23427e-05
2.43178e-05
0.00455745
0.00911967
0.0139624
0.000877688
0.00363703
0.000286145
0.00176052
0.00178163
0.00732102
0.0118616
0.00500852
0.00677395
0
0.30809
0
0
0
0
0.0139306
0.0790204
0
0.00284888
0.011366
0.00677935
0.00585747
0.00365256
0.0027604
0.00177868
0.00234437
0.0019361
0.00214221
0.00215856
0.0016944
0.00177968
0.00164419
0.0011897
0.00142198
0.00118767
0.00106443
0.00118757
0.000925678
0.00129741
0.000766619
0.00112005
0.000714158
0.00077275
0.000722083
0.000851648
0.000495127
0.000541522
0.000562406
0.000403337
0.000378271
0.000673181
0.000328994
0.000327348
0.000350162
0.000379147
0.00027616
0.000237293
0.000212556
0.000137078
0.000221204
0.000309986
0.000221772
9.05634e-05
0.000176641
7.04384e-05
0.000153765
5.0744e-05
8.9084e-05
0.000126907
0.000151117
8.39105e-05
8.91997e-05
0.000168397
8.48757e-05
0.000159881
0.000143831
0.000109869
0.000102377
0.000163958
0.00011347
0.000119127
8.45094e-05
0.00824336
0.00285982
0.0121613
0.0154408
0.00839741
0.00608162
0.0142741
0.00150978
0.00487242
0.0343381
0.0384914
0.0937327
0
0.0335349
0.0290287
0
0
0
0
0.0349784
0
0
0
0
0
0
0
0
0.00260029
0.00302339
0.0183835
0
0
0
0
0
0
0
0
0
0
0
0.00991988
0
0
0
0
0
0
0
0
0.197459
0
0
0
0
0
0
0
0
0
0
0
0
0.00688227
0
0
0
0
0.0137712
0
0
0
0
0
0
0
0
0
0
0
0
0
0
0
0
0
0
0
0.00233224
0
0
0
0
0.00261485
1.76512e-05
0.000148198
9.25322e-05
5.27789e-05
4.99041e-05
6.71493e-05
0.000404364
0.000116423
0.00037164
0.000307079
0.000420349
0.000294638
0.000539576
0.000356817
0.000472864
0.000478806
0.00043169
0.000604742
0.000567735
0.000327994
0.000375558
0.000494714
0.000183693
0.000276643
0.000409829
0
0
0
0
0
0
0
0
0
0
0
0
0
0.031036
0.00683971
0.00717555
0
0
0
0
0
0
0
0
0
0
0
0.00190427
0.00166473
0.000549531
0.000805023
0.000141565
0.000226015
0.000322684
0.000743098
0.00039412
0.000356313
0.000400319
0.000480294
0.000278265
0.000368751
0.000227234
0.000110941
0
0.00102431
0
0
0
0
0
0
0
0
0
0
0
0
0
0
0
0
0
0
0
0
0
0
0
0
0
0
0
0
0
0
0
0
0
0
0
0.000909799
0.00163779
0.000651786
0.00132147
0.00362172
0.00354219
0.00132172
0.0139126
0.0048667
0
0
0.00316693
0.0030972
0
0
0
0
0.37707
0
0.0637555
0
0.00629542
0.00478473
0.00617006
0.0133183
0
0
0
0
0
0
0
0
0
0
0
0
5.82248e-05
0.000153166
0.000172019
0.000111342
0.000120345
0.000111113
0.000151142
7.68194e-05
0.000168541
0.000202766
0.000165437
0.000136501
0.000152723
0.000113114
7.26491e-05
0.000145002
0.000271374
0.00035282
0.000315232
0.0002489
0.000210049
0.000279268
0.000377395
0.000387675
0.000613355
0.00015626
0.00052129
0.000502446
0.000407884
0.000293927
0.000357519
0.000389474
0.000387873
0.000396283
0.000313568
0.000412593
0.000482378
0.000475384
0.000495516
0.000471828
0.000385574
0.000493776
0.000453855
0.000500906
0.000481792
0.000452243
0.000464479
0.000481257
0.000422823
0.000386363
0.000391045
0.000392283
0.000436529
0.0013771
0.00162753
0.000481405
0.000656666
0.00046348
0.00108275
0.000416806
0.000354805
0.00168265
0.00185219
0.00556875
0.000468733
3.81792e-05
6.60546e-05
0.000132796
5.01836e-05
6.84798e-05
5.45817e-05
7.21159e-05
6.36464e-05
5.37818e-05
6.80534e-05
7.88046e-05
7.89132e-05
5.40806e-05
3.29815e-05
6.19884e-05
8.93041e-05
6.85761e-05
4.67501e-05
8.76014e-05
0.000101879
6.72353e-05
7.88698e-05
9.2493e-05
7.21793e-05
0.000103952
0.0219167
0.010588
0.0172354
0.107827
0.00336667
0.00600186
0
0
0
0
0
0
0
0
0
0
0
0
0.794447
0
0.00362929
0.0443083
0.0103373
0.0245715
0.00639501
0.00292266
0.00123349
0.00402885
0.00283988
0.00333372
0.00168787
0.00216148
0.0016337
0.000977916
0.00140929
0.00109825
0.00102795
0.00118993
0.000641914
0.000928022
0.000856221
0.000634063
0.000812423
0.000928427
0.000449412
0.000705689
0.000772126
0.000617008
0.000739879
0.00060477
0.000435448
0.000315595
0.000694156
0.000367803
0.000358493
0.000278063
0.000381996
0.000212461
0.000201433
0.000224079
8.26806e-05
0.000213508
4.35462e-05
0.000149462
3.18863e-05
9.08906e-05
0.000128711
9.70108e-05
0.00011109
9.25125e-05
0.000113118
0.000141916
4.44482e-05
0.000143431
4.88796e-05
0.00011524
4.2127e-05
4.00945e-05
0.000154329
5.89988e-05
0.000153278
8.30427e-05
0
0
0
0
0.0241874
0.0229419
0.0428424
0.0349607
0.0350527
0
0
0
0
0
0
0
0
0
0
0
0
0
0
0
0
0.000279373
0
0
0.00737684
0.00200482
0
0
0
0
0
0
0
0
0
0
0
0
0.276338
0
0
0
0
0
0
0
0
1.11185
0
0
0
0
0.00362422
0
0
0
0
0
0
0
0.00599312
0.00406791
0
0
0.00647712
0.00971166
0
0
0
0
0.00627793
0
0.00838372
0
0
0
0
0
0
0
0
0
0
0
0
0
0
0
0
0
0.00402353
0
0
0
0
0
0
0
0
0.0001183
0.000235642
0.000102035
0.000169797
4.89041e-05
0.000115017
1.58267e-05
5.79456e-05
0.000151973
3.19267e-05
0.00040863
0.000267364
0.000368017
0.000305856
0.000285259
0.000471707
0.000255186
0.00036079
0.000347742
0.000361628
0.000120912
0.000328712
0.00010402
0.000439708
0.00066354
0.000629277
0.000563707
0
0
0
0
0
0
0
0.0160701
0.00270962
0.00514648
0
0
0
0
0
0
0
0
0
7.90532e-05
0
0
0
0
0
0.000512474
0.000473831
0.00020329
0.00119179
0.000716797
0.000626902
0.00054361
0.000355389
0.000381427
0.000218717
0.000149632
0.000312718
0.000349755
0.000102435
0.000341383
0.000212589
0
0
0.000966715
0
0
0
0
0.000476918
0
0
0
0
0
0
0
0.00983166
0
0.00433165
0.00742797
0
0
0
0
0
0
0
0
0
0
0
0.0549163
0
0
0
0
0
0
0
0
0
0
0
0
0
0.00369087
0.00225952
0.000311262
0.000674668
0.00263
0.00523303
0.00351326
0.00781797
0.0133682
0.0291662
0.0155532
0
0
0.0178541
0.0226958
0.0239107
0
0
0
0
0
0.00311607
0
0.316422
0.0255744
0.0363917
0.00300304
0.0305266
0
0.0027661
0
0.00437789
0
0
0
0
0
0
0
0.00361755
0.000165924
8.22052e-05
0.000147814
0.000286684
0.000174012
0.000192806
0.000319874
0.000246575
0.000434552
0.000132763
0.00018261
0.0001235
7.95322e-05
0.000109435
0.000236268
0.000237204
0.000200235
0.000213464
0.000186794
0.000147472
0.000156338
0.000156476
0.000342673
0.000367304
0.000289522
0.000333598
0.000257632
0.000295773
0.000342116
0.00050011
0.000511378
0.00022508
0.000403359
0.000575111
0.000511147
0.00043218
0.000443487
0.000435902
0.000380766
0.000557121
0.00052375
0.000445276
0.000496726
0.000538404
0.000455437
0.000508566
0.000468456
0.000549553
0.000476375
0.000530224
0.000400239
0.00052768
0.000412154
0.000475661
0.000407479
0.000386381
0.000448057
0.00044009
0.00122415
0.00102815
0.000873421
0.000611953
0.00121632
0.00126117
0.00068568
0.000675539
0.00186088
0.00126151
0.00112404
0.00129117
6.85146e-05
0.000190659
6.39245e-05
6.77485e-05
5.49571e-05
9.44814e-05
0.00013622
7.22521e-05
0.000106065
8.17637e-05
7.47062e-05
8.9379e-05
5.57915e-05
9.2762e-05
7.58228e-05
7.18664e-05
6.79136e-05
8.45559e-05
0.000105884
0.000127132
0.000129765
0.000125852
9.73317e-05
0.000111171
3.1016e-05
0
0
0
0
0
0
0
0
0
0
0
0
0
0
0
0
0.003611
0
0
0
0
0.10811
0.00808635
0.0307552
0.00318305
0.00241025
0.00399658
0.00459364
0.000794951
0.00180841
0.00108876
0.00123655
0.00143873
0.000869444
0.000709784
0.000685024
0.000346975
0.000858609
0.00113133
0.000907329
0.000600352
0.000816136
0.000709765
0.000753889
0.000757822
0.00075348
0.0007702
0.000738897
0.000916558
0.000432756
0.000468121
0.000229495
0.000579917
0.000321746
6.98167e-05
0.000361793
0.000226016
0.000139187
0.000179135
0.000105522
0.000116185
0.00010796
0.000100178
0.000152632
8.49332e-05
0.00017474
0.000104945
0.000131788
6.879e-05
0.000128271
0.000125071
5.64592e-05
0.000107072
6.35955e-05
0.000102153
0.000119421
4.52518e-05
0.000130681
6.08474e-05
0
0
0.0140852
0.000187079
0
0
0
0
0
0
0
0.00488904
0
0.00909545
0.00246076
0.00479328
0.00669503
0
0.0065968
0.0725478
0
0
0
0.00490481
0
0.00419632
0.000348394
0
0
0
0
0
0
0
0
0.0055362
0
0
0
0
0
0
0.423974
0
0
0
0
0
0
0
0
0
0
0
0
0
0
0
0
0
0
0
0
0
0
0
0
0
0
0
0
0
0
0
0
0
0
0
0
0
0
0
0
0
0
0
0
0
0
0
0
0
0
0
0
0
0
0
0
0
0
0
0
0
0
0
0
0
0
0
0
0
0.000101452
0
0
0
0
6.39669e-05
7.85941e-05
0.000187215
0.000102104
7.96671e-05
0.000114258
0.000299814
0.000254643
7.83611e-05
0.000187362
0.00016462
0.000262536
4.61952e-05
0.000102777
0.000211597
0.000524379
0.00043808
0.000196131
0.000217681
0.000313187
0.000133946
0.000269693
0.000347286
6.31041e-05
0.000280789
0.000865663
0.000624702
0.000738385
0.000447799
0
0
0
0
0.00541312
0.0020144
0.0119753
0
0
0.0158871
0
0
0
0
0
0
0
0.0129616
0.00804492
0
0.0074392
0
0
0
0.000206726
0.000618388
0.00017231
0.000252692
0.000169169
0.00133903
0.000645732
0.00060078
0.000550031
0.000264947
0.000453981
0.000343781
0.000224129
0.000442999
0.000468094
0.000748241
0
0.00341253
0
0
0
0
0
0.000108233
0
0
0.000392091
0
0
0
0.00085825
0
0
0
0
0
0
0
0
0
0
0
0
0
0
0
0
0
0
0
0
0
0.0389767
0
0.0135714
0
0
0
0
0
0
0
0
0
0
0
0
0
0
0
0
0
0
0.000416313
0.000807939
0.00256097
0.00214564
0.0130247
0
0
0
0
0
0
0
0
0
0
0
0
0
0
0
0
0.0572641
0.00615493
0.0216852
0
0
0
0
0
0
0
0
0
0.0098915
0.00663347
0
0
0
0
0
0
0.000445021
0.00018107
0.000172708
0.00040093
0.000826876
0.000368997
0.000130113
0.000328869
9.87344e-05
0.000435536
0.000300579
0.00025293
0.000163674
0.000242522
0.000282217
0.000213618
0.000259536
0.000204868
0.000246185
5.6858e-05
0.000240175
0.000350468
0.000388582
0.000337329
0.000343347
0.000337935
0.000312049
0.000506341
0.000646783
0.000490684
0.000471038
0.000487283
0.000549566
0.0006019
0.000595231
0.000529455
0.000451665
0.000595064
0.000454948
0.000504747
0.000384349
0.000462557
0.000387601
0.000433973
0.000415577
0.000475461
0.000428109
0.000426651
0.000404936
0.00042536
0.00046823
0.000260317
0.000470832
0.000446347
0.000381371
0.00038583
0.000407073
0.00168222
0.00137148
0.000846262
0.000328594
0.00116356
0.000918866
0.000899061
0.000562699
0.00200465
0.00213603
0.00101734
0.00282114
0.0639909
0.0129399
0.00385954
0.000175938
0.000154238
6.45467e-05
7.62181e-05
0.000118733
0.000144549
0.000150326
0.000113916
0.000142961
0.000130963
9.55079e-05
8.52748e-05
0.00011325
0.00010227
7.78545e-05
0.000108222
0.000106098
0.000111668
0.00012388
0.000106491
9.45089e-05
0.000148392
0.000113039
0.000144545
0.000130189
0.000118458
0
0
0
0
0
0.00627593
0.0100093
0
0
0
0
0.00375115
0.00554519
0
0
0
0
0
0.0784007
0
0
0.0145148
0.00662273
0.00975931
0.00771009
0.00138068
0.00355596
0.00595908
0.00144207
0.00144486
0.000758249
0.00104429
0.000831815
0.000667292
0.000510381
0.000593639
0.000861736
0.000448092
0.000659446
0.000909969
0.000791714
0.000839007
0.000704442
0.000762179
0.000592354
0.000942723
0.000852806
0.00072791
0.000604324
0.000368849
0.000240845
0.000444661
0.000399242
0.00035815
0.000153623
0.000254897
0.000156719
0.000201664
0.000111644
0.000184833
0.000101005
0.000216792
0.000112197
0.000199722
0.000145557
0.000102905
9.34163e-05
0.00011849
0.000133649
7.30134e-05
0.000125347
0.00011018
0.000127415
0.000147434
0.000146318
0.000133354
0.000145271
0.000141
0
0
0
0
0
0
0
0
0
0.0162758
0
0
0
0.0175271
0.0176823
0.0138654
0.0165412
0.0101819
0.0576967
0
0
0
0
0
0
0
0
0
0
0
0
0
0
0
0
0.0102941
0
0
0
0.0146999
0
0
0
0
0
0
0
0
0
0
0
0
0
0
0
0
0
0
0.0198935
0
0
0
0
0
0.0023053
0.00216102
0.00441243
0
0
0
0
0
0
0
0
0
0
0
0
0
0
0
0
0
0
0
0
0
0
0
0
0
0
0
0
0
0
0
0
0
0
0
0
0
0
0
0
0
0.00641042
0
0.00280079
0
0.0107629
0
0
0
9.73586e-05
0.000151637
7.20338e-05
9.38004e-05
0.0001592
0.000103837
0.000129016
0.000543198
5.61733e-05
3.07444e-05
0.000122339
8.89787e-05
0.000162655
0.000100197
0.000347365
0.000360236
4.90316e-05
0.000143495
0.00025176
0.000172672
0.000100011
0.000196141
0.000104931
0.000262664
0.000149826
6.2183e-05
0.000731762
0.000160026
0.000815166
0.00130328
0.00130844
0.000177794
0.000300057
0
0
0.00523984
0.00115374
0.00969232
0
0
0.0215049
0.0681047
0
0
0
0
0
0
0
0
0
0
0
0
0
0
0
9.73762e-06
0.000266177
0.000191572
0.000165569
0.00111
0.000911745
0.000440037
0.000558655
0.000575058
0.000195002
0.000354052
0.000325303
0.000489796
0
0
0
0
0
0
0.00788867
0.0064698
0
0
0
0
0
0
0
0
0
0.00115879
0
0
0
0
0
0
0
0.0581261
0
0
0.0194009
0
0
0
0
0
0
0
0
0
0
0
0
0
0
0
0
0
0
0
0
0
0
0.00233418
0
0
0
0
0
0
0
0
0
0
0
0.00210372
0.0125873
0.00628064
0.087151
0.0558128
0
0.113159
0
0.123612
0
0
0
0
0
0
0
0
0
0
0
0
0
0
0
0.0706911
0
0
0
0.0986363
0.0072233
0.0133073
0
0
0
0.00398601
0
0
0
0
0
0
0
0
0.000248735
0.000296796
0.000606395
0.000225674
0.000893211
0.000315252
0.000228541
8.38084e-05
0.000161154
0.000109367
0.000181824
0.000129877
7.24166e-05
0.000279414
0.000327449
0.000276095
0.000298702
0.000195119
0.000270917
0.000166446
0.000300952
0.000225677
0.000414643
0.000380483
0.000345773
0.000372805
0.000422367
0.000366687
0.00061037
0.000643303
0.000565853
0.000529443
0.000762006
0.000501344
0.000634992
0.000755957
0.00038863
0.000436125
0.000506875
0.000584119
0.000320264
0.000267703
0.000224179
0.00023598
0.00026145
0.000254275
0.000286986
0.000339907
0.000506763
0.000328191
0.000371416
0.000598274
0.000551996
0.000408146
0.000419126
0.000441021
0.000430885
0.000340635
0.00109798
0.00194193
0.000694801
0.000648706
0.00175657
0.00079867
0.00105712
0.000670859
0.00181635
0.00165184
0.00259023
0.00434793
0.00368046
0.00302702
0.000132305
0.000156031
0.000148795
0.000148014
0.000186162
0.000172336
0.000163501
0.0001957
0.000164152
0.000139574
0.000163686
0.000104352
9.38197e-05
0.000107178
0.000113904
0.000126564
9.63136e-05
0.000112204
9.60821e-05
0.000114268
0.00012792
0.000137544
0.000171527
8.16849e-05
9.39091e-05
0
0
0
0
0
0
0
0
0
0.00409931
0
0
0
0
0
9.64398e-05
0.000120319
0
0
0
0
0.0171372
0.00579584
0.00331916
0.031619
0.00291254
0.00305041
0.00114366
0.000625894
0.000559276
0.0013973
0.00162139
0.00067014
0.000680668
0.000534859
0.000639004
0.000897281
0.00054553
0.000760459
0.00056773
0.000713814
0.000829875
0.000672568
0.000765285
0.000480466
0.000687873
0.000762383
0.000663022
0.000371186
0.000458088
0.000247528
0.000274407
0.000307098
0.000379863
0.000149353
0.00025047
0.000257653
0.000152714
0.000213619
0.000134139
0.000201519
0.000140679
0.000115049
0.000139844
0.000111471
9.53155e-05
0.000124281
9.18818e-05
0.000120926
0.000134539
0.000159963
0.000146647
0.000160147
0.000181378
0.000178409
0.000174229
0.000172041
0.00018915
0
0
0
0
0
0
0
0
0
0.000202768
0
0
0
0
0
0
0
0.113288
0
0
0.0928716
0
0
0
0.00372143
0
0
0
0
0
0.00349221
0
0
0
0
0
0
0
0
0
0
0
0
0
0
0
0.00460604
0.00780837
0.00798224
0
0
0
0
0.00333759
0
0
0.00390916
0
0
0
0
0.00615605
0
0.0018478
0
0
0
0
0
0
0
0
0
0
0
0
0
0
0
0
0
0
0
0
0
0
0
0
0
0
0
0
0
0
0
0
0
0
0
0
0
0
0
0
0
0
0
0
0
0
0
0
0
0
0
0
0
0.00308248
0
0
0
0.0117293
0
0
0.000114181
0.000163633
8.56472e-05
9.92086e-05
0.000164032
0.000187402
0.00012408
0.00015979
0.000231981
0.000151407
0.000195952
0.000191363
0.000188893
8.33624e-05
8.65087e-05
0.000129978
0.000129138
0.00036908
0.000128225
0.000202272
0.000164796
0.000101831
4.55626e-05
0.000125186
0.000256929
0.000192334
0.000465582
0.000462399
0.000496472
0.000971728
0.000521314
0.00120027
0.000859452
0.000876608
0.000953158
0.000425341
0.000613903
0.00163946
0.00454795
0.00203802
0.00114374
0
0
0.0229397
0.0574358
0
0
0
0
0
0
0.00336135
0
0
0
0
0.000260426
0
0.00733794
0
0
0.000193448
0.000258847
0.00038372
0.000406742
0.000272741
0.000580125
0.000578281
0.000309392
0.00038929
0.000498141
0.000172496
0.000188299
0
0
0.00016503
0
0
0.00622516
0
0
0
0
0
0
0
0
0
0.000449284
0.00114596
0
0
0.000597907
0
0.00221175
0
0
0
0
0.0515988
0
0.0072592
0.0295178
0
0
0
0
0
0
0
0
0
0
0
0
0
0
0
0
0
0
0.016038
0
0
0
0
0
0
0
0
0
0
0
0
0
0
0
0
0
0
0
0
0
0
0
0.045879
0.050399
0.0117186
0.084769
0.105872
0.0885117
0.033811
0
0
0
0
0
0
0.00166354
0
0
0
0
0
0
0.00114558
0
0
0
0
0
0
0
0.05933