/*--------------------------------*- C++ -*----------------------------------*\
  =========                 |
  \\      /  F ield         | OpenFOAM: The Open Source CFD Toolbox
   \\    /   O peration     | Website:  https://openfoam.org
    \\  /    A nd           | Version:  8
     \\/     M anipulation  |
\*---------------------------------------------------------------------------*/
FoamFile
{
    version     2.0;
    format      ascii;
    class       volScalarField;
    location    "14700";
    object      H;
}
// * * * * * * * * * * * * * * * * * * * * * * * * * * * * * * * * * * * * * //

dimensions      [0 1 0 0 0 0 0];

internalField   nonuniform List<scalar> 
526318
(
0.873183
0.826045
0.90194
0.821046
0.884634
0.843268
0.858427
0.777872
0.831397
0.716883
0.688507
0.808455
0.752018
0.80141
0.75792
0.783267
0.753665
0.957287
0.863331
0.909825
0.899913
0.855906
0.622512
0.86887
0.73955
0.607615
0.881438
0.883446
0.884742
0.900538
0.926233
0.972711
0.959526
0.837458
0.844933
0.809986
0.819247
0.905375
0.82667
0.774433
0.828618
0.81205
0.472008
0.523871
0.432841
0.479427
0.453647
0.581775
0.764695
0.651044
0.744017
0.745025
0.69294
0.655536
0.15245
0.399896
0.387096
0.1989
0.917843
0.929227
0.946109
0.896759
0.847445
0.975609
0.970429
0.929998
0.912496
0.912407
0.81504
0.801566
0.922311
0.704229
0.755871
0.645643
0.604539
0.595501
0.697893
0.683925
0.603461
0.649123
0.72285
0.723622
0.682055
0.628403
0.65821
0.734163
0.732434
0.706683
0.656278
0.727996
0.633842
0.583319
0.582094
0.508128
0.507633
0.508571
0.512071
0.507032
0.502772
0.502274
3.81662e-05
2.15653e-06
0.000946664
0.00487346
0.0697425
0.000154916
0.414106
0.225105
0.541793
0.50195
0.543496
0.668576
0.88605
0.772503
0.888492
0.897181
0.963944
0.933945
0.987077
0.499205
0.502629
0.50227
0.506283
0.459812
0.500853
0.410903
0.453307
0.361567
0.413309
0.36208
0.361556
0.352628
0.328246
0.31918
0.348178
0.288649
0.344555
0.292762
0.31326
0.258097
0.262529
0.285602
0.313777
0.299656
0.257788
0.257564
0.273718
0.261801
0.257369
0.26408
0.27587
0.263662
0.268958
0.267774
0.267352
0.233522
0.267975
0.266741
0.232667
0.191912
0.266271
0.218102
0.275316
0.764122
0.862952
0.803175
0.795315
0.596275
0.663696
0.588159
0.596159
0.592828
0.59555
0.619898
0.595062
0.528957
0.501941
0.466239
0.409748
0.469017
0.509492
0.510101
0.509038
0.394196
0.448331
0.335675
0.34206
0.354462
0.345121
0.348363
0.350995
0.339362
0.341208
0.335747
0.326152
0.30721
0.329607
0.321583
0.296129
0.275714
0.301255
0.285701
0.279279
0.297926
0.284863
0.291378
0.251583
0.273025
0.303355
0.300449
0.749443
0.764982
0.803982
0.774751
0.750646
0.752222
0.7475
0.631112
0.675934
0.414621
0.393446
0.391701
0.519158
0.652247
0.52558
0.557923
0.564226
0.50581
0.490418
0.00242244
9.22163e-07
0.137008
0.328283
0.00027704
9.76159e-09
0.000995694
0.000255125
0.000396609
0.000963311
0.968595
0.945391
0.994291
0.982659
0.955329
0.947355
0.85934
0.93802
0.781683
0.723082
0.732005
0.733911
0.726567
0.724761
0.721561
0.719023
0.636498
0.693231
0.514799
0.574295
0.500869
0.514181
0.00100536
4.55059e-11
0.000154997
0.00100202
4.15142e-05
0.000986064
0.000927277
0.129967
0.509324
0.330007
0.560238
0.563727
0.671988
0.773337
0.89699
0.900478
0.937241
0.909703
0.977402
1.01302
0.480391
0.48139
0.440916
0.410416
0.308436
0.346125
0.273591
0.280486
0.271002
0.264595
0.254647
0.261973
0.189745
0.209965
0.245352
0.285044
0.341035
0.304357
0.271795
0.262886
0.19663
0.189134
0.242183
0.29651
0.219038
0.257016
0.25662
0.226523
0.221976
0.188917
0.184246
0.147174
0.146136
0.155932
0.141483
0.261151
0.301523
0.263126
0.304121
0.666377
0.627387
0.524473
0.607797
0.534916
0.585046
0.59718
0.58652
0.595328
0.594506
0.506416
0.420684
0.347675
0.331898
0.407589
0.352025
0.335272
0.447907
0.337885
0.387073
0.326869
0.325947
0.336437
0.326982
0.342168
0.335761
0.334696
0.338326
0.337184
0.335808
0.343647
0.338604
0.351208
0.347359
0.351712
0.330218
0.344163
0.326951
0.300736
0.30213
0.328122
0.357008
0.351015
0.330322
0.310463
0.332721
0.37693
0.376245
0.386133
0.351782
0.380938
0.398532
0.436486
0.388819
0.395855
0.419471
0.450545
0.574799
0.645822
0.57461
0.607843
0.668848
0.742742
0.649005
0.507927
0.631153
0.530237
0.546299
0.282258
0.228719
0.250843
0.251874
0.367615
0.487244
0.414419
0.482332
0.486752
0.501594
0.492258
2.28064e-10
0.000930828
0.0527584
6.67037e-05
0.128224
0.0270974
0.000599399
0.00100998
0.000476803
0.00100962
0.000664765
0.00100889
0.000730728
0.000955715
0.000582482
0.000952703
0.988347
0.979683
1.01781
0.999265
0.98207
0.955514
0.881163
0.796563
0.736493
0.739611
0.719635
0.71949
0.704153
0.698727
0.676171
0.677434
0.628858
0.670931
0.594605
0.537194
0.48182
0.440958
0.000939206
0.00107351
0.00107352
0.000663073
0.000617121
0.000731205
0.000590115
0.00107353
0.0010736
0.00107353
0.00100999
0.00100984
0.000550093
0.00100942
0.000924102
0.000172183
0.000288255
0.000487392
0.000977135
0.00096135
0.000120135
0.00097721
0.0446814
0.0181636
0.218983
0.0605313
0.42849
0.583375
0.598171
0.693969
0.910075
0.801695
0.92198
0.925461
0.938805
0.964197
1.00246
1.01513
0.399316
0.399367
0.353228
0.379117
0.317331
0.282133
0.273414
0.272905
0.266171
0.271933
0.225328
0.216805
0.163746
0.180855
0.23318
0.212707
0.179621
0.22667
0.224564
0.240483
0.152375
0.140181
0.164832
0.175311
0.175706
0.133485
0.139044
0.130245
0.137274
0.119677
0.119881
0.419594
0.395117
0.392661
0.39295
0.411728
0.518983
0.479077
0.458868
0.341683
0.387936
0.372957
0.376664
0.269825
0.213457
0.390206
0.496311
0.391026
0.395008
0.373515
0.458508
0.436151
0.509098
0.540869
0.470085
0.448608
0.487541
0.3628
0.331887
0.333406
0.330597
0.248669
0.303929
0.227005
0.181268
0.158267
0.277602
0.276967
0.325541
0.326306
0.324234
0.328054
0.325166
0.332838
0.329487
0.339132
0.33265
0.35174
0.342106
0.349803
0.354283
0.378174
0.360237
0.388252
0.389576
0.339009
0.321877
0.387895
0.370506
0.359975
0.375463
0.356808
0.346249
0.398906
0.375249
0.475525
0.486403
0.434249
0.478205
0.487761
0.457467
0.544303
0.517279
0.586483
0.604512
0.631259
0.54228
0.553536
0.54763
0.514603
0.492689
0.457934
0.548633
0.392296
0.380096
0.430931
0.448869
0.127413
0.176881
0.258028
0.385547
0.413117
0.451081
0.350426
0.324855
0.2788
0.231013
0.000965631
0.000248677
0.00100778
1.24698e-07
0.0590091
0.125264
0.000993891
0.000234006
0.00100979
0.000545241
0.00024476
0.000470015
0.000926911
0.000208943
0.000889372
0.000986846
0.000766556
0.000551352
0.000138864
0.000388285
0.00097475
0.00101
0.000137856
0.000999779
0.000901807
0.000354496
0.00119006
0.000826941
0.000933766
0.000974451
0.00118991
0.00118977
0.000916487
0.000999494
0.0009727
0.000201819
9.59135e-05
0.000989075
0.000892979
0.0009482
0.00100959
0.000881287
0.00100965
0.000996543
2.65749e-05
0.000931251
0.986144
0.993075
1.01735
1.00386
0.986301
0.903843
0.737321
0.818059
0.695569
0.701057
0.67566
0.684959
0.669224
0.671731
0.666898
0.66667
0.609965
0.577945
0.482446
0.524002
0.38088
0.418755
0.000970862
0.000636742
0.000948563
0.000967574
0.000969466
0.000982262
0.000979386
0.000870723
0.00101
0.000820014
0.000677989
0.000965569
0.000971308
0.000759356
0.000380116
0.000991326
0.000690401
0.00100737
0.000803925
0.000839513
0.000369052
0.000975289
0.000889611
0.000439439
0.000917861
0.00068906
0.00101
0.000641909
7.20735e-06
4.21304e-05
0.0866242
0.000358523
0.101804
0.10322
0.403464
0.229798
0.606791
0.56739
0.633129
0.740394
0.842045
0.925947
0.934673
0.92474
0.970409
0.994071
0.983452
0.978394
0.00115461
0.000878453
0.000886173
0.000244646
0.00066505
0.00105159
0.00081396
0.000937881
0.000890554
0.000725685
0.000975785
0.00092383
0.000794854
2.99799e-07
0.000880516
0.00101
0.000170373
0.379647
0.378211
0.379601
0.344168
0.265755
0.299489
0.225547
0.21828
0.184418
0.176883
0.1322
0.129792
0.159104
0.160861
0.117657
0.154377
0.145488
0.200128
0.181365
0.185344
0.0982038
0.0751289
0.0737267
0.111901
0.118957
0.121857
0.0966643
0.102297
0.0623349
0.0499818
0.014804
0.0203978
0.621751
0.585041
0.630365
0.63777
0.585789
0.541986
0.711992
0.73237
0.794923
0.803804
0.350046
0.392967
0.441795
0.528715
0.347215
0.299579
0.331185
0.33459
0.169742
0.226858
0.275218
0.163651
0.372067
0.376532
0.374341
0.376356
0.394462
0.372843
0.392437
0.401774
0.288471
0.277106
0.179458
0.259837
0.2546
0.212951
0.163478
0.18542
0.126308
0.144554
0.12344
0.210749
0.273368
0.206937
0.273563
0.326764
0.327407
0.325722
0.328914
0.331545
0.351025
0.342813
0.360517
0.35877
0.378155
0.36994
0.390708
0.393335
0.392724
0.392212
0.400213
0.395883
0.436289
0.405573
0.373662
0.374773
0.439355
0.407913
0.414591
0.45637
0.496579
0.500215
0.49522
0.497117
0.526236
0.581535
0.645246
0.660736
0.674649
0.648115
0.793238
0.732446
0.85913
0.899316
0.888729
0.928449
0.983684
0.845773
0.935564
0.961906
1.03138
1.08037
1.11051
1.12589
1.15566
1.10196
1.15934
1.11453
1.19406
1.19318
1.24524
1.21205
1.27383
1.30518
1.29233
1.2427
1.3079
1.33204
1.29767
1.29514
1.3617
1.33788
1.36924
1.30994
1.30928
1.37345
1.34001
1.2959
1.29496
1.32604
1.35985
0.348279
0.313241
0.481358
0.478332
0.450511
0.442153
0.444731
0.209609
0.341466
0.0482304
0.0716512
0.177117
0.164205
0.0378523
0.125672
0.110163
0.282274
0.192003
0.191976
0.0943723
0.0841219
0.0985008
0.120796
0.000348275
0.00101
0.00106328
4.81555e-05
0.000998748
4.63137e-05
0.00101
0.000966006
0.000995857
0.000556017
1.22377e-05
0.00169437
0.000842141
0.000928041
0.000844807
0.000691483
0.00032447
0.00069126
0.000943677
0.000831092
0.00137073
0.000420861
0.00012748
0.000146108
0.000949
0.000431299
6.93167e-06
1.61879e-05
0.000990101
0.00093513
0.00100829
0.000733638
0.000911134
0.000410555
0.00100928
0.00097142
0.000932694
0.00104703
0.00075839
0.00100665
0.000974989
0.000926586
0.00101
0.00057983
0.0010488
0.000977512
0.00104874
0.000927431
0.00100234
0.00090645
0.00101
0.00101
0.000467339
0.000585417
0.000993933
0.000773625
0.000877713
0.00099375
0.000922247
0.000776475
0.0010078
0.000994205
0.000136415
0.000956593
0.000950381
0.000921886
0.000915695
0.000919934
0.000616133
0.00101
0.000623175
0.000968314
0.974788
0.961773
0.932865
0.933201
0.846305
0.92183
0.743846
0.682402
0.672675
0.673244
0.669002
0.673889
0.608503
0.617196
0.45971
0.421743
0.378038
0.549886
0.555269
0.500516
0.504786
0.5023
0.000958263
0.000417775
0.00109135
0.00109136
0.000962471
0.000414864
0.00093308
0.000410365
0.00109127
0.00091531
0.000161511
0.00100893
0.000972717
0.000941946
0.000297472
0.000985833
0.000726155
0.00091818
0.00021426
0.00071546
0.000410392
0.000951565
0.00140049
0.00140061
2.05815e-05
5.62544e-06
0.000602585
0.0986051
0.229432
0.105724
0.397807
0.567873
0.595502
0.625819
0.702942
0.821031
0.889641
0.866956
0.908304
0.83951
0.890249
0.935163
0.880612
0.884186
0.00102161
0.000998398
0.00101
0.000849207
0.000896911
0.00119338
0.000759493
0.000801315
0.00119338
0.000964874
0.000981161
0.000996251
3.13326e-07
1.14836e-05
0.000994615
0.000373012
2.35714e-23
0.00072123
0.00101
0.000253336
0.000277025
0.000765241
0.00096459
0.000879022
0.00205743
0.0010091
0.351439
0.354294
0.272036
0.289449
0.165997
0.191238
0.127649
0.126601
0.126051
0.12711
0.0983383
0.103672
0.0722117
0.0728411
0.0516765
0.0908293
0.162566
0.131227
0.166776
0.172956
0.000811932
0.0104991
0.0543216
0.0304938
0.0412483
0.0431597
0.000911072
0.000189995
0.000972887
0.000792627
0.00117361
0.000676603
0.840886
0.840616
0.67213
0.581007
0.569117
0.558037
0.836857
0.753567
0.995081
1.07116
0.970209
0.891915
1.08485
1.06637
1.13222
1.18299
1.21288
1.21155
1.24182
1.21443
1.26965
1.29511
1.29272
1.29236
1.30789
1.29536
1.29532
1.33961
1.28691
1.28053
0.401581
0.32876
0.472491
0.54508
0.328069
0.28239
0.331564
0.328296
0.162445
0.214005
0.0479001
0.204811
0.104889
0.369901
0.320403
0.375368
0.365379
0.376311
0.273425
0.171145
0.0939147
0.0775805
0.0931513
0.130928
0.0573929
0.0436612
0.000518681
0.0533099
0.137208
0.130746
0.0520471
0.155059
0.221087
0.169159
0.274753
0.22037
0.261297
0.318797
0.352772
0.331422
0.366226
0.364757
0.375551
0.369511
0.403376
0.408341
0.406999
0.42567
0.426982
0.429943
0.46166
0.476694
0.466587
0.45935
0.465412
0.456249
0.472051
0.49181
0.535973
0.525988
0.494276
0.524336
0.522798
0.557026
0.592763
0.653852
0.684562
0.684346
0.692964
0.765102
0.845248
0.921766
0.932371
1.06381
0.937792
0.981956
1.13226
1.16135
1.15657
1.19858
1.24279
1.29763
1.30322
1.31172
1.33607
1.3654
1.39019
1.38844
1.39053
1.39123
1.38736
1.36974
1.30697
1.37078
1.33932
1.29275
1.2917
1.32389
1.35568
1.36592
1.29214
1.35305
1.31243
0.140001
0.130397
0.201267
0.278007
0.164076
0.23092
0.373757
0.306746
0.332527
0.174514
0.0740712
0.0405541
0.0397245
0.141329
0.129762
0.000238916
0.000820357
0.0848218
0.000837234
0.0859172
0.0864257
0.097793
0.0901779
0.101248
0.122975
0.000871197
0.000795729
0.000978231
0.000339797
0.00148979
0.00148888
0.00086849
0.000172666
0.000415865
0.00169424
0.000981197
0.000692057
0.000478021
0.000315336
0.000459633
0.00101
0.000697396
0.00137036
0.000928609
0.00101
0.000672123
0.000660221
0.000998234
0.000701989
0.000938544
0.000874495
0.00105198
0.000944471
0.000791252
0.000751098
0.000990039
7.57449e-05
0.00099613
0.000976554
0.000151024
0.000641781
0.000544652
0.000936558
0.000843756
0.000935828
0.000989534
0.00102288
0.000978339
0.000943996
0.000974885
0.00092222
0.000207016
0.000979907
0.000919067
0.00101
0.000732523
0.00100962
0.000641972
0.000367709
0.000916152
0.000960434
0.000963999
0.000892128
0.000591225
0.000479733
0.884158
0.883159
0.861312
0.871552
0.801473
0.859809
0.666559
0.739796
0.630395
0.634872
0.576349
0.555688
0.505673
0.501257
0.41525
0.316925
0.288116
0.460245
0.502056
0.502179
0.504225
0.503888
0.00109101
0.000997715
0.0010912
0.000637526
0.000973634
0.000973647
0.00094649
0.000972052
0.00100548
0.000830393
0.000135327
0.000443538
0.00093376
0.000997208
0.00060297
0.00100999
0.00098232
3.53596e-05
0.000985985
0.000873381
0.000276721
0.00043146
0.000655599
0.00101
0.000318924
0.0004766
0.0675544
0.100548
0.29079
0.129666
0.436437
0.569187
0.542547
0.657034
0.818559
0.722252
0.797921
0.801991
0.786882
0.817246
0.874349
0.868923
0.875306
0.8487
0.000769413
0.000922585
0.000563688
0.000958878
0.000712787
0.000933944
0.000627141
0.000452485
0.000819861
0.000879841
0.000957505
0.000856862
0.000968979
3.43917e-15
0.000922039
0.000873917
0.00096514
0.000987798
0.000743529
0.00100999
0.000468733
2.33775e-07
0.0019346
0.000901385
0.00101
0.000860782
0.000668131
0.000489708
0.000136748
3.3211e-13
0.00098545
0.227691
0.2271
0.19157
0.169269
0.132137
0.148579
0.114431
0.117434
0.268678
0.216879
0.196677
0.0424967
0.0550056
0.000156946
0.000687997
0.0523215
0.0529121
0.0493056
0.0833669
0.145453
0.0945722
0.128989
0.11983
0.0104687
0.000879664
0.00496985
0.0231498
0.000587295
0.000997553
1.30661e-05
0.00052455
0.000737284
0.000689738
0.000594218
0.000809015
1.41844
1.42704
1.45137
1.43131
1.4702
1.45934
1.47958
1.47375
1.53047
1.5155
1.478
1.53425
1.50246
1.55214
1.38151
1.33213
1.35365
1.4044
1.38653
1.35277
1.35885
1.41407
1.4176
1.39513
1.37263
1.42879
1.40927
1.41638
1.44462
1.29496
1.29483
1.29292
1.29293
1.31044
1.32963
0.888798
0.833577
0.731123
0.631438
0.547615
0.619351
0.822048
0.805915
1.04231
1.06802
0.9532
1.03951
1.07399
1.12373
1.16928
1.21534
1.21016
1.2139
1.21045
1.24083
1.25307
1.27988
1.26558
1.26921
1.27224
1.28423
1.26002
1.25778
0.447681
0.383109
0.322215
0.31235
0.372786
0.547047
0.523413
0.256593
0.306134
0.185079
0.114763
1.39877
1.42186
1.4359
1.44399
1.45227
1.46362
1.46552
1.49413
1.4762
1.49551
1.49275
1.54205
1.56358
1.58949
1.58713
1.59133
1.60737
1.6299
0.0923224
0.0389188
0.0398241
0.301171
0.187558
0.356093
0.26395
0.177748
0.0791297
0.0798109
0.0793921
0.0805633
0.000344181
0.00811823
0.000879062
0.000603058
1.67405e-61
6.10001e-120
0.145357
0.0741854
1.17859e-07
0.169943
0.168555
0.168065
0.224208
0.180796
0.306594
0.255089
0.340477
0.307493
0.34384
0.366009
0.392711
0.41225
0.433587
0.435461
0.445522
0.436846
0.495318
0.48224
0.476841
0.475025
0.52461
0.501823
0.569538
0.533043
0.515645
0.555668
0.600785
0.591803
0.61555
0.649916
0.652181
0.597696
0.704644
0.737963
0.706694
0.692419
0.775401
0.861063
0.93048
1.00327
0.948571
0.962256
1.09202
1.15522
1.19487
1.18061
1.23999
1.27858
1.31958
1.32784
1.32278
1.34671
1.39989
1.37912
1.39217
1.39981
1.38496
1.38683
1.39068
1.39028
1.38758
1.38516
1.38919
0.127691
0.116648
0.140765
0.0632266
0.0829324
0.0959398
0.0358433
0.176267
0.0804357
0.0183131
0.0359513
0.0153146
0.000675019
0.016978
0.0389061
0.000233799
6.06439e-06
0.000268963
2.22624e-05
0.0857644
0.000771455
0.000210889
0.000894386
0.000429345
0.000642317
0.000932391
0.000916094
0.000934738
0.00112609
0.00112608
0.0014892
0.000669962
0.00101
0.000970991
0.000776109
0.00096702
0.000896738
0.000998449
0.00026155
0.000888291
0.00100984
0.000894905
0.00112602
0.000229809
0.000398457
0.000668916
0.00101
0.000330569
0.000740386
7.65161e-17
4.20743e-11
0.00240277
0.000379096
0.000850418
0.000694792
0.000545923
0.000997667
0.0003892
0.00100993
0.000972649
0.000977525
0.000963111
0.000999516
0.00073834
0.0010138
0.000927362
0.000705585
0.000970984
0.000727676
0.00101388
0.00089779
0.000955844
0.000631827
0.000258775
0.000738298
0.000964465
0.000941166
0.000838222
0.00101
0.000334973
0.000769708
0.000685233
0.000978177
0.000925692
0.000935309
0.000888909
0.00091709
0.000695524
0.000567275
0.00209493
0.0001797
0.000674617
0.000835469
0.000923705
0.00209489
1.5777
1.54772
1.52566
1.62451
1.65916
1.64954
0.863896
0.86263
0.852832
0.847258
0.766266
0.844828
0.662684
0.587744
0.516756
0.537036
0.502416
0.501054
0.503588
0.50342
0.381353
0.297739
0.388917
0.466975
0.467375
0.00093523
0.000796261
0.000875173
0.000890082
0.000922295
0.0009764
0.000965395
0.000493094
0.000931051
0.000554111
0.00100943
0.000959595
0.000969088
0.0654756
0.0978582
0.12579
0.00100998
0.000498781
0.000128694
0.000927014
4.59314e-06
0.000276668
0.000921556
0.000785239
0.000496577
0.000783296
0.000131682
0.272775
0.404834
0.521552
0.522902
0.843691
0.764922
0.780857
0.55866
0.648211
0.738674
0.791555
0.787667
0.790343
0.814267
0.835401
0.828601
0.000701176
0.00116047
0.000625786
0.000982796
0.000704864
0.000720222
0.00100904
0.000845157
0.000718888
0.000865554
0.000823186
0.000932446
0.000763197
0.000831138
0.000896425
0.000536939
0.000627663
0.00100504
0.000978863
0.000935387
0.000938185
0.000682923
0.000770427
0.000937995
0.000997599
0.000978674
0.000347723
0.000953032
0.000978459
0.000973622
0.00101
0.000984843
0.000871643
0.000978065
0.000827832
0.000909418
0.000811322
0.227926
0.265054
0.248799
0.192696
0.190644
0.165202
0.189168
0.0515934
0.0814319
0.000746551
0.000963811
0.19911
0.187527
0.000404715
0.000975669
0.000612942
0.000962556
0.00449408
0.00100592
0.024389
0.000695717
0.0887011
0.0471211
0.0924348
0.102318
0.000154837
0.000680105
0.000702988
0.000398902
0.000653842
0.000551523
0.000693939
9.93495e-05
0.000358069
0.000994303
5.82405e-05
0.000979051
1.41854
1.43108
1.45227
1.47587
1.47901
1.48192
1.51089
1.49242
1.34425
1.34249
1.32861
1.34745
1.38272
1.34444
1.39523
1.36763
1.283
1.27058
1.26823
1.29923
1.32426
1.30164
0.893652
0.815287
0.707954
0.797769
0.641838
0.559085
0.810721
0.809983
1.0483
1.0555
1.06813
0.965065
1.04443
1.15674
1.09907
1.04227
1.08571
1.18549
1.20202
1.19113
1.19932
1.20541
1.22869
1.25507
1.24762
1.25887
1.25796
1.25688
1.25724
1.25523
1.25795
0.297331
0.301722
0.441402
0.516608
0.298625
0.383262
0.537717
0.553749
0.286204
0.231159
0.143398
0.210238
1.4293
1.38893
1.40886
1.45438
1.45528
1.45762
1.46537
1.48811
1.50874
1.51919
1.52116
1.52478
1.54664
1.58865
1.57049
1.58753
1.60699
1.64899
1.62761
1.46054
1.47264
1.48704
1.65467
1.65665
1.65225
0.0404613
0.0400036
0.0403038
0.0118809
0.10812
0.121412
0.000255223
0.000388267
3.58722e-05
0.000600794
0.000729907
0.000931197
0.000578176
0.00101
0.000702905
0.00100987
0.000969713
3.31518e-06
0.0207163
3.30192e-21
0.00188342
0.0974921
0.172674
0.0871797
0.244854
0.273951
0.2053
0.244173
0.308971
0.270952
0.399754
0.338802
0.408581
0.423586
0.433717
0.422477
0.474226
0.511369
0.550959
0.549498
0.556992
0.541437
0.568562
0.548779
0.599645
0.602094
0.624725
0.627473
0.603114
0.607971
0.725309
0.771177
0.66954
0.733545
0.782625
0.741136
0.845569
0.886788
0.985857
1.02582
1.00342
1.09429
1.15016
1.24912
1.23665
1.29842
1.26812
1.362
1.37446
1.36531
1.38886
1.41794
1.41768
1.47072
1.43663
1.45939
1.42427
1.42864
1.46211
1.39016
1.42238
1.39496
0.000254907
0.000210159
0.00079026
0.000667543
0.0522256
0.0351467
0.0362145
0.0172377
0.0331429
0.000727064
0.000910875
0.000502524
0.000318735
0.000899356
0.000491609
0.0002602
0.000684532
0.000159539
0.000508679
2.93742e-05
7.47877e-05
2.71387e-05
5.50518e-07
0.000210029
0.000788457
0.00102977
0.000970845
4.9718e-05
0.00112607
0.00112607
0.000977157
0.000995782
0.000992745
3.82214e-05
0.00101
0.000912008
0.0010004
0.000112849
0.00044385
0.000919656
2.33237e-12
0.000297927
0.0021967
1.7675e-11
0.000984734
5.55056e-05
0.0009581
0.000364482
0.00101
0.000172236
0.00098174
0.00220171
0.000995259
0.000134455
0.00096781
0.00100982
0.00130661
0.000378055
0.00100983
0.000979813
0.000465046
0.000983408
0.00101
0.000808151
0.00101402
0.00101379
0.000896998
0.000916661
0.00101391
0.001014
0.000955402
0.000914019
0.000711032
0.000919589
0.0016023
7.37909e-05
0.00160217
0.000786033
0.00098702
0.000966821
0.00099923
0.00100984
0.00101
0.00100994
0.000799141
0.000805878
0.000827454
1.20946e-05
9.12481e-06
0
0.00090453
0.000799517
0.000430028
0.000845602
0.00130656
0.000898711
0.00100958
0.00100997
0.000794059
0.000998553
0.000946811
0.000914726
0.00101
1.53037
1.56195
1.56081
1.55728
1.58724
1.68918
1.67061
1.67651
1.7023
1.63302
0.771715
0.756174
0.695498
0.692451
0.656243
0.69064
0.589882
0.549803
0.53609
0.505091
0.479697
0.475878
0.386831
0.398203
0.266223
0.309874
0.311165
0.000529692
0.000965684
0.000913493
0.00101
0.000949844
0.000924031
0.000585991
0.100476
0.237827
0.0974056
0.000919443
0.000220381
0.000959565
0.000979614
0.000306063
0.000317934
0.00101
0.000973661
0.000748453
0.00102151
0.000849804
0.000995173
0.000944045
0.000847483
0.00025022
0.635393
0.646328
0.676122
0.384156
0.520537
0.519738
0.558421
0.676021
0.756824
0.712808
0.619554
0.700726
0.732151
0.731542
0.649268
0.675418
0.000957717
0.000981687
0.00116051
0.00101
0.000650919
0.000823908
0.00101
0.0011746
0.000951029
0.000996743
0.000160682
0.000986054
0.000875008
0.000936631
0.000510229
0.00102824
0.000977533
0.00102835
0.00102826
0.00101
0.000771965
0.000895476
0.000833864
0.000976221
0.00092185
0.00100577
0
0
0
0.000725537
0.0010886
0.00097507
0.00100563
0.000944429
0.000473953
0.000911195
0.000978965
0.000968087
0.00097325
0.000338297
0.000895901
0.000914242
0.000926795
0.000912798
0.00102829
0.246867
0.255857
0.265309
0.12916
0.152384
0.112495
0.111376
0.0419184
0.0317973
0.00129569
0.000393424
0.000813713
0.00129461
0.0461784
0.0431557
0.000406739
0.000485044
0.000242686
0.000584634
0.000452153
0.00102457
0.000437623
0.00618548
0.0842504
0.054196
0.119083
0.0694228
0.000149961
0.00119984
0.000475191
0.00102453
0.000312228
0.000747328
0.000806524
0.000346646
0.00101
0.000942721
0.000550704
0.00119982
1.41989
1.37571
1.44968
1.41961
1.41812
1.47026
1.46333
1.50727
1.50261
1.53141
1.4995
1.46224
1.53239
1.49327
1.31163
1.30887
1.30043
1.31256
1.32848
1.34034
1.34211
1.34885
1.25711
1.25634
1.27991
1.26512
1.29311
1.30169
0.893652
0.818523
0.733158
0.810477
0.605107
0.698499
0.813003
0.818604
1.04225
1.04324
1.04533
0.974657
1.12928
1.17743
1.08833
1.04279
1.18268
1.18235
1.19612
1.18425
1.22174
1.24415
1.25238
1.25019
1.24698
1.25504
1.25545
1.2559
1.25248
1.25689
0.297149
0.29024
0.458698
0.531317
0.438493
0.354268
0.59223
0.530937
0.271537
0.286189
0.26053
0.177231
1.43071
1.4632
1.44618
1.47316
1.49637
1.48381
1.51639
1.53031
1.50602
1.52049
1.50973
1.5202
1.52438
1.55054
1.57108
1.58877
1.58802
1.63725
1.61379
1.66511
1.67019
1.5434
1.55597
1.6693
1.67847
0.000409748
7.48828e-05
0.000696944
0.000853081
0.000525579
8.98946e-05
0.000260243
0.000181489
0.00101
1.00585e-05
0.000927799
0.000258474
0.000705117
0.000657476
5.07035e-06
0.000780461
0.00188337
0.000412088
0.000950703
6.62734e-05
0.000466873
0.0241774
0.169157
0.0747321
0.261653
0.260561
0.226178
0.174456
0.297771
0.344523
0.399281
0.385822
0.409971
0.398093
0.516656
0.467272
0.567634
0.557354
0.585044
0.58941
0.563411
0.622288
0.664794
0.638472
0.625017
0.652116
0.703247
0.687448
0.669494
0.710866
0.794565
0.795686
0.789729
0.807931
0.938388
0.855662
1.02676
1.04942
1.05212
1.11695
1.19481
1.27008
1.27915
1.29205
1.33694
1.38781
1.42089
1.42176
1.4578
1.43236
1.48438
1.49698
1.49897
1.49866
1.49968
1.50005
1.46449
1.49451
1.47117
0.000853637
0.000154346
0.00713787
0.00102495
0.000673495
0.000757747
0.000679581
0.00069549
0.000988775
0.000670929
0.000983811
0.00145568
0.000954256
0.00145827
0.00145583
0.00145713
0.00145642
0.000996219
0.00145429
0.00720809
0.00099104
0.000638589
0.000184916
0.00102991
0.000467132
0.00102977
0.00102977
0.000433077
7.04736e-05
0.00100217
0.000993637
0.000687571
0.000856518
0.000836374
0.00101
0.00128624
0.000757384
0.000959982
0.00100986
0.000887496
0.000962023
0.000995357
0.00186729
0.000973032
0.000146754
1.36216e-05
0.000607696
0.00096357
0.000988249
0.000479144
0.000826696
0.000961729
0.00100941
0.00031059
4.27685e-05
0.000987756
0.00100992
0.000817418
0.000560979
0.000691638
0.00101
0.000799183
0.000968436
0.000279366
0.000905419
0.000941315
0.000930084
0.0010008
0.000939674
0.000880492
0.000886752
0.00100949
0.00097168
0.000773375
0.000984106
0.000952799
0.000532914
0.00098992
0.000934564
0.000964099
0.000974876
0.000974485
0.00101
0.00099424
0.000905098
0.000464111
0
0
0
0
0
0
0
0
0
0
0
0
0
0
0
0
0
0
0
0.00099334
0.000888025
0.000937661
0.000812305
0.000917868
0.000434354
0.000930589
0.00106369
0.000325168
0.000811332
0.000608265
0.000885277
1.72367
1.71934
1.73148
1.7164
1.73467
1.7275
1.56863
1.57427
1.63691
1.60057
1.71784
1.74022
1.68964
1.57411
1.51947
0.630694
0.633821
0.637181
0.62701
0.638294
0.568927
0.608653
0.401246
0.455359
0.318556
0.317954
0.266977
0.262977
0.265355
4.53839e-05
0.000762157
0.000495047
0.000982711
0.0710865
0.265926
0.0960834
0.000948865
0.000967043
0.0522446
0.000751317
0.000977274
0.000747432
0.000970402
0.000977458
0.000717645
0.000324505
0.00103266
0.00103277
0.000355325
0.00103269
0.000932938
0.0004632
0.000564851
0.640936
0.638217
0.638738
0.634426
0.64191
0.350531
0.465374
0.408352
0.527194
0.588082
0.620227
0.543558
0.625826
0.578177
0.578724
0.564796
0.000954778
0.00109641
0.000868734
0.000970576
0.000973219
0.000935143
0.000695877
0.00101457
0.000148351
0.000899938
0.00101252
0.000661718
6.92933e-05
0.000748167
0.00102005
0.000508825
0.000763669
0.00084402
0.000955447
0.000944353
0.00094707
0.000984188
0.000740767
0.000908685
0.000621516
0.00100955
0.000627569
0.000973579
0.000348921
2.15212e-05
0
0
0
0
0
0.000852503
0.00109153
0.000978274
0.00108999
0.000988902
0.000872265
0.00078846
0.000950347
0.00098805
0.00100037
0.00093197
0.000953825
0.000956596
0.000997349
0.000778615
0.00101
0
0
0
0
0
0
0.243882
0.171089
0.161649
0.0916543
0.0843959
0.000809081
0.000811209
0.000736133
0.000609193
0.000311719
0.00100615
0.000845335
0.000375808
0.000550644
0.00033854
0.000760208
0.000747518
0.000795758
0.000905726
0.000971356
0.000990411
0.048341
0.112329
0.0277882
0.000486704
0.000823125
0.000903269
0.000389299
0.000804765
0.00027789
0.000601967
1.31742e-05
0.000467482
0.0018417
0.00184014
0.000623173
0.000959699
0.000281529
0.000798649
0.00100972
0.000818552
1.40085
1.37351
1.38933
1.3901
1.39677
1.41027
1.40005
1.45455
1.44925
1.47998
1.55037
1.5022
1.44743
1.30044
1.30237
1.32695
1.31672
1.3421
1.34113
1.36656
1.35174
1.25516
1.26383
1.2852
1.2701
1.28698
1.29434
0.933566
0.856845
0.776285
0.812429
0.759199
0.666455
0.849377
0.813252
1.04896
1.0478
1.00847
1.05367
1.13872
1.18466
1.04972
1.09585
1.18827
1.18474
1.206
1.18778
1.23215
1.24555
1.2527
1.25713
1.24226
1.25773
1.25232
1.2499
1.24716
1.25101
0.288386
0.349216
0.53108
0.506423
0.434444
0.519022
0.536353
0.609407
0.282492
0.281829
0.272997
0.188608
0.0279109
0.0677262
0.154026
1.50154
1.50105
1.52971
1.52334
1.54709
1.55882
1.55748
1.55917
1.59594
1.57484
1.58837
1.5523
1.58682
1.59602
1.61787
1.63803
1.65023
1.64585
1.69602
1.69872
1.72659
1.70001
1.61591
1.62161
1.73834
1.73595
0.00016622
0.000334169
0.00101
7.13639e-06
0.000729054
0.00124777
0.00124786
0.000979527
0.000305007
0.000120874
0.000101473
0.00207885
0.00102407
0.000796888
0.000822227
0.000857275
0.00100232
0.000626775
0.0106843
0.000842088
8.58068e-05
0.0612919
0.108456
0.126356
0.107425
0.209409
0.28194
0.157922
0.382266
0.320284
0.389076
0.393928
0.480665
0.423982
0.547074
0.574169
0.572201
0.577998
0.704496
0.669007
0.635847
0.694646
0.716626
0.710138
0.704386
0.69628
0.711082
0.710011
0.792064
0.830702
0.870702
0.826671
0.868659
0.897842
1.03579
0.971595
1.06555
1.04942
1.13231
1.20666
1.29425
1.29023
1.32547
1.36368
1.43746
1.42702
1.44736
1.45523
1.48312
1.49069
1.51153
1.50222
1.51558
1.51027
1.50081
1.51392
1.49776
1.50237
0.000938682
0.00086332
0.00101
0.00067133
0.000947391
0.000657298
0.000566723
0.000789161
0.000642839
0.00145781
0.000371099
0.000934105
0.000295436
0.00145556
0.00145741
0.0014561
0.00145733
0.00145608
0.00145552
0.000339492
0.000371652
0.00100126
0.000644302
0.000938422
0.000788581
0.00100179
0.000668502
0.000997704
0.000180038
0.000954666
0.000624923
0.00101
0.000209386
0.000613088
0.00100863
0.00128583
0.000972563
0.000911012
0.000974511
0.00362525
6.21148e-05
0.000210438
0.00024578
0.00100989
0.000829584
6.4218e-09
0.000994245
0.00100983
0.000226409
0.000848872
0.00100647
0.000131712
0.00100976
0.000959372
0.000162237
0.000986414
0.000975827
0.000978793
0.00361158
0.000980885
0.00068286
0.00098777
0.000776699
0.000663233
0.00125716
0.00125707
0.0012571
0.000900202
0.000946957
0.000832782
0.000987787
0.000948013
0.000941776
0.000961192
0.000871734
0.000897996
0.000947049
0.000951887
0.000925848
1.67713e-05
0.000881191
0.00092376
0.0003855
0.000414352
0.00098456
0
0
0
0
0
0
0
0
0
0
0
0
0
0
0
0
0
0
0
0.000902173
0.000943785
0.00101
0.000948967
0.00144472
0.000683216