/*--------------------------------*- C++ -*----------------------------------*\
  =========                 |
  \\      /  F ield         | OpenFOAM: The Open Source CFD Toolbox
   \\    /   O peration     | Website:  https://openfoam.org
    \\  /    A nd           | Version:  8
     \\/     M anipulation  |
\*---------------------------------------------------------------------------*/
FoamFile
{
    version     2.0;
    format      ascii;
    class       volScalarField;
    location    "14700";
    object      Hclip;
}
// * * * * * * * * * * * * * * * * * * * * * * * * * * * * * * * * * * * * * //

dimensions      [0 1 0 0 0 0 0];

internalField   nonuniform List<scalar> 
526318
(
0.873183
0.826045
0.90194
0.821046
0.884634
0.843268
0.858427
0.777872
0.831397
0.716883
0.688507
0.808455
0.752018
0.80141
0.75792
0.783267
0.753665
0.957287
0.863331
0.909825
0.899913
0.855906
0.622512
0.86887
0.73955
0.607615
0.881438
0.883446
0.884742
0.900538
0.926233
0.972711
0.959526
0.837458
0.844933
0.809986
0.819247
0.905375
0.82667
0.774433
0.828618
0.81205
0.472008
0.523871
0.432841
0.479427
0.453647
0.581775
0.764695
0.651044
0.744017
0.745025
0.69294
0.655536
0.15245
0.399896
0.387096
0.1989
0.917843
0.929227
0.946109
0.896759
0.847445
0.975609
0.970429
0.929998
0.912496
0.912407
0.81504
0.801566
0.922311
0.704229
0.755871
0.645643
0.604539
0.595501
0.697893
0.683925
0.603461
0.649123
0.72285
0.723622
0.682055
0.628403
0.65821
0.734163
0.732434
0.706683
0.656278
0.727996
0.633842
0.583319
0.582094
0.508128
0.507633
0.508571
0.512071
0.507032
0.502772
0.502274
0.001
0.001
0.001
0.00487346
0.0697425
0.001
0.414106
0.225105
0.541793
0.50195
0.543496
0.668576
0.88605
0.772503
0.888492
0.897181
0.963944
0.933945
0.987077
0.499205
0.502629
0.50227
0.506283
0.459812
0.500853
0.410903
0.453307
0.361567
0.413309
0.36208
0.361556
0.352628
0.328246
0.31918
0.348178
0.288649
0.344555
0.292762
0.31326
0.258097
0.262529
0.285602
0.313777
0.299656
0.257788
0.257564
0.273718
0.261801
0.257369
0.26408
0.27587
0.263662
0.268958
0.267774
0.267352
0.233522
0.267975
0.266741
0.232667
0.191912
0.266271
0.218102
0.275316
0.764122
0.862952
0.803175
0.795315
0.596275
0.663696
0.588159
0.596159
0.592828
0.59555
0.619898
0.595062
0.528957
0.501941
0.466239
0.409748
0.469017
0.509492
0.510101
0.509038
0.394196
0.448331
0.335675
0.34206
0.354462
0.345121
0.348363
0.350995
0.339362
0.341208
0.335747
0.326152
0.30721
0.329607
0.321583
0.296129
0.275714
0.301255
0.285701
0.279279
0.297926
0.284863
0.291378
0.251583
0.273025
0.303355
0.300449
0.749443
0.764982
0.803982
0.774751
0.750646
0.752222
0.7475
0.631112
0.675934
0.414621
0.393446
0.391701
0.519158
0.652247
0.52558
0.557923
0.564226
0.50581
0.490418
0.00242244
0.001
0.137008
0.328283
0.001
0.001
0.001
0.001
0.001
0.001
0.968595
0.945391
0.994291
0.982659
0.955329
0.947355
0.85934
0.93802
0.781683
0.723082
0.732005
0.733911
0.726567
0.724761
0.721561
0.719023
0.636498
0.693231
0.514799
0.574295
0.500869
0.514181
0.00100536
0.001
0.001
0.00100202
0.001
0.001
0.001
0.129967
0.509324
0.330007
0.560238
0.563727
0.671988
0.773337
0.89699
0.900478
0.937241
0.909703
0.977402
1.01302
0.480391
0.48139
0.440916
0.410416
0.308436
0.346125
0.273591
0.280486
0.271002
0.264595
0.254647
0.261973
0.189745
0.209965
0.245352
0.285044
0.341035
0.304357
0.271795
0.262886
0.19663
0.189134
0.242183
0.29651
0.219038
0.257016
0.25662
0.226523
0.221976
0.188917
0.184246
0.147174
0.146136
0.155932
0.141483
0.261151
0.301523
0.263126
0.304121
0.666377
0.627387
0.524473
0.607797
0.534916
0.585046
0.59718
0.58652
0.595328
0.594506
0.506416
0.420684
0.347675
0.331898
0.407589
0.352025
0.335272
0.447907
0.337885
0.387073
0.326869
0.325947
0.336437
0.326982
0.342168
0.335761
0.334696
0.338326
0.337184
0.335808
0.343647
0.338604
0.351208
0.347359
0.351712
0.330218
0.344163
0.326951
0.300736
0.30213
0.328122
0.357008
0.351015
0.330322
0.310463
0.332721
0.37693
0.376245
0.386133
0.351782
0.380938
0.398532
0.436486
0.388819
0.395855
0.419471
0.450545
0.574799
0.645822
0.57461
0.607843
0.668848
0.742742
0.649005
0.507927
0.631153
0.530237
0.546299
0.282258
0.228719
0.250843
0.251874
0.367615
0.487244
0.414419
0.482332
0.486752
0.501594
0.492258
0.001
0.001
0.0527584
0.001
0.128224
0.0270974
0.001
0.00100998
0.001
0.00100962
0.001
0.00100889
0.001
0.001
0.001
0.001
0.988347
0.979683
1.01781
0.999265
0.98207
0.955514
0.881163
0.796563
0.736493
0.739611
0.719635
0.71949
0.704153
0.698727
0.676171
0.677434
0.628858
0.670931
0.594605
0.537194
0.48182
0.440958
0.001
0.00107351
0.00107352
0.001
0.001
0.001
0.001
0.00107353
0.0010736
0.00107353
0.00100999
0.00100984
0.001
0.00100942
0.001
0.001
0.001
0.001
0.001
0.001
0.001
0.001
0.0446814
0.0181636
0.218983
0.0605313
0.42849
0.583375
0.598171
0.693969
0.910075
0.801695
0.92198
0.925461
0.938805
0.964197
1.00246
1.01513
0.399316
0.399367
0.353228
0.379117
0.317331
0.282133
0.273414
0.272905
0.266171
0.271933
0.225328
0.216805
0.163746
0.180855
0.23318
0.212707
0.179621
0.22667
0.224564
0.240483
0.152375
0.140181
0.164832
0.175311
0.175706
0.133485
0.139044
0.130245
0.137274
0.119677
0.119881
0.419594
0.395117
0.392661
0.39295
0.411728
0.518983
0.479077
0.458868
0.341683
0.387936
0.372957
0.376664
0.269825
0.213457
0.390206
0.496311
0.391026
0.395008
0.373515
0.458508
0.436151
0.509098
0.540869
0.470085
0.448608
0.487541
0.3628
0.331887
0.333406
0.330597
0.248669
0.303929
0.227005
0.181268
0.158267
0.277602
0.276967
0.325541
0.326306
0.324234
0.328054
0.325166
0.332838
0.329487
0.339132
0.33265
0.35174
0.342106
0.349803
0.354283
0.378174
0.360237
0.388252
0.389576
0.339009
0.321877
0.387895
0.370506
0.359975
0.375463
0.356808
0.346249
0.398906
0.375249
0.475525
0.486403
0.434249
0.478205
0.487761
0.457467
0.544303
0.517279
0.586483
0.604512
0.631259
0.54228
0.553536
0.54763
0.514603
0.492689
0.457934
0.548633
0.392296
0.380096
0.430931
0.448869
0.127413
0.176881
0.258028
0.385547
0.413117
0.451081
0.350426
0.324855
0.2788
0.231013
0.001
0.001
0.00100778
0.001
0.0590091
0.125264
0.001
0.001
0.00100979
0.001
0.001
0.001
0.001
0.001
0.001
0.001
0.001
0.001
0.001
0.001
0.001
0.00101
0.001
0.001
0.001
0.001
0.00119006
0.001
0.001
0.001
0.00118991
0.00118977
0.001
0.001
0.001
0.001
0.001
0.001
0.001
0.001
0.00100959
0.001
0.00100965
0.001
0.001
0.001
0.986144
0.993075
1.01735
1.00386
0.986301
0.903843
0.737321
0.818059
0.695569
0.701057
0.67566
0.684959
0.669224
0.671731
0.666898
0.66667
0.609965
0.577945
0.482446
0.524002
0.38088
0.418755
0.001
0.001
0.001
0.001
0.001
0.001
0.001
0.001
0.00101
0.001
0.001
0.001
0.001
0.001
0.001
0.001
0.001
0.00100737
0.001
0.001
0.001
0.001
0.001
0.001
0.001
0.001
0.00101
0.001
0.001
0.001
0.0866242
0.001
0.101804
0.10322
0.403464
0.229798
0.606791
0.56739
0.633129
0.740394
0.842045
0.925947
0.934673
0.92474
0.970409
0.994071
0.983452
0.978394
0.00115461
0.001
0.001
0.001
0.001
0.00105159
0.001
0.001
0.001
0.001
0.001
0.001
0.001
0.001
0.001
0.00101
0.001
0.379647
0.378211
0.379601
0.344168
0.265755
0.299489
0.225547
0.21828
0.184418
0.176883
0.1322
0.129792
0.159104
0.160861
0.117657
0.154377
0.145488
0.200128
0.181365
0.185344
0.0982038
0.0751289
0.0737267
0.111901
0.118957
0.121857
0.0966643
0.102297
0.0623349
0.0499818
0.014804
0.0203978
0.621751
0.585041
0.630365
0.63777
0.585789
0.541986
0.711992
0.73237
0.794923
0.803804
0.350046
0.392967
0.441795
0.528715
0.347215
0.299579
0.331185
0.33459
0.169742
0.226858
0.275218
0.163651
0.372067
0.376532
0.374341
0.376356
0.394462
0.372843
0.392437
0.401774
0.288471
0.277106
0.179458
0.259837
0.2546
0.212951
0.163478
0.18542
0.126308
0.144554
0.12344
0.210749
0.273368
0.206937
0.273563
0.326764
0.327407
0.325722
0.328914
0.331545
0.351025
0.342813
0.360517
0.35877
0.378155
0.36994
0.390708
0.393335
0.392724
0.392212
0.400213
0.395883
0.436289
0.405573
0.373662
0.374773
0.439355
0.407913
0.414591
0.45637
0.496579
0.500215
0.49522
0.497117
0.526236
0.581535
0.645246
0.660736
0.674649
0.648115
0.793238
0.732446
0.85913
0.899316
0.888729
0.928449
0.983684
0.845773
0.935564
0.961906
1.03138
1.08037
1.11051
1.12589
1.15566
1.10196
1.15934
1.11453
1.19406
1.19318
1.24524
1.21205
1.27383
1.30518
1.29233
1.2427
1.3079
1.33204
1.29767
1.29514
1.3617
1.33788
1.36924
1.30994
1.30928
1.37345
1.34001
1.2959
1.29496
1.32604
1.35985
0.348279
0.313241
0.481358
0.478332
0.450511
0.442153
0.444731
0.209609
0.341466
0.0482304
0.0716512
0.177117
0.164205
0.0378523
0.125672
0.110163
0.282274
0.192003
0.191976
0.0943723
0.0841219
0.0985008
0.120796
0.001
0.00101
0.00106328
0.001
0.001
0.001
0.00101
0.001
0.001
0.001
0.001
0.00169437
0.001
0.001
0.001
0.001
0.001
0.001
0.001
0.001
0.00137073
0.001
0.001
0.001
0.001
0.001
0.001
0.001
0.001
0.001
0.00100829
0.001
0.001
0.001
0.00100928
0.001
0.001
0.00104703
0.001
0.00100665
0.001
0.001
0.00101
0.001
0.0010488
0.001
0.00104874
0.001
0.00100234
0.001
0.00101
0.00101
0.001
0.001
0.001
0.001
0.001
0.001
0.001
0.001
0.0010078
0.001
0.001
0.001
0.001
0.001
0.001
0.001
0.001
0.00101
0.001
0.001
0.974788
0.961773
0.932865
0.933201
0.846305
0.92183
0.743846
0.682402
0.672675
0.673244
0.669002
0.673889
0.608503
0.617196
0.45971
0.421743
0.378038
0.549886
0.555269
0.500516
0.504786
0.5023
0.001
0.001
0.00109135
0.00109136
0.001
0.001
0.001
0.001
0.00109127
0.001
0.001
0.00100893
0.001
0.001
0.001
0.001
0.001
0.001
0.001
0.001
0.001
0.001
0.00140049
0.00140061
0.001
0.001
0.001
0.0986051
0.229432
0.105724
0.397807
0.567873
0.595502
0.625819
0.702942
0.821031
0.889641
0.866956
0.908304
0.83951
0.890249
0.935163
0.880612
0.884186
0.00102161
0.001
0.00101
0.001
0.001
0.00119338
0.001
0.001
0.00119338
0.001
0.001
0.001
0.001
0.001
0.001
0.001
0.001
0.001
0.00101
0.001
0.001
0.001
0.001
0.001
0.00205743
0.0010091
0.351439
0.354294
0.272036
0.289449
0.165997
0.191238
0.127649
0.126601
0.126051
0.12711
0.0983383
0.103672
0.0722117
0.0728411
0.0516765
0.0908293
0.162566
0.131227
0.166776
0.172956
0.001
0.0104991
0.0543216
0.0304938
0.0412483
0.0431597
0.001
0.001
0.001
0.001
0.00117361
0.001
0.840886
0.840616
0.67213
0.581007
0.569117
0.558037
0.836857
0.753567
0.995081
1.07116
0.970209
0.891915
1.08485
1.06637
1.13222
1.18299
1.21288
1.21155
1.24182
1.21443
1.26965
1.29511
1.29272
1.29236
1.30789
1.29536
1.29532
1.33961
1.28691
1.28053
0.401581
0.32876
0.472491
0.54508
0.328069
0.28239
0.331564
0.328296
0.162445
0.214005
0.0479001
0.204811
0.104889
0.369901
0.320403
0.375368
0.365379
0.376311
0.273425
0.171145
0.0939147
0.0775805
0.0931513
0.130928
0.0573929
0.0436612
0.001
0.0533099
0.137208
0.130746
0.0520471
0.155059
0.221087
0.169159
0.274753
0.22037
0.261297
0.318797
0.352772
0.331422
0.366226
0.364757
0.375551
0.369511
0.403376
0.408341
0.406999
0.42567
0.426982
0.429943
0.46166
0.476694
0.466587
0.45935
0.465412
0.456249
0.472051
0.49181
0.535973
0.525988
0.494276
0.524336
0.522798
0.557026
0.592763
0.653852
0.684562
0.684346
0.692964
0.765102
0.845248
0.921766
0.932371
1.06381
0.937792
0.981956
1.13226
1.16135
1.15657
1.19858
1.24279
1.29763
1.30322
1.31172
1.33607
1.3654
1.39019
1.38844
1.39053
1.39123
1.38736
1.36974
1.30697
1.37078
1.33932
1.29275
1.2917
1.32389
1.35568
1.36592
1.29214
1.35305
1.31243
0.140001
0.130397
0.201267
0.278007
0.164076
0.23092
0.373757
0.306746
0.332527
0.174514
0.0740712
0.0405541
0.0397245
0.141329
0.129762
0.001
0.001
0.0848218
0.001
0.0859172
0.0864257
0.097793
0.0901779
0.101248
0.122975
0.001
0.001
0.001
0.001
0.00148979
0.00148888
0.001
0.001
0.001
0.00169424
0.001
0.001
0.001
0.001
0.001
0.00101
0.001
0.00137036
0.001
0.00101
0.001
0.001
0.001
0.001
0.001
0.001
0.00105198
0.001
0.001
0.001
0.001
0.001
0.001
0.001
0.001
0.001
0.001
0.001
0.001
0.001
0.001
0.00102288
0.001
0.001
0.001
0.001
0.001
0.001
0.001
0.00101
0.001
0.00100962
0.001
0.001
0.001
0.001
0.001
0.001
0.001
0.001
0.884158
0.883159
0.861312
0.871552
0.801473
0.859809
0.666559
0.739796
0.630395
0.634872
0.576349
0.555688
0.505673
0.501257
0.41525
0.316925
0.288116
0.460245
0.502056
0.502179
0.504225
0.503888
0.00109101
0.001
0.0010912
0.001
0.001
0.001
0.001
0.001
0.00100548
0.001
0.001
0.001
0.001
0.001
0.001
0.00100999
0.001
0.001
0.001
0.001
0.001
0.001
0.001
0.00101
0.001
0.001
0.0675544
0.100548
0.29079
0.129666
0.436437
0.569187
0.542547
0.657034
0.818559
0.722252
0.797921
0.801991
0.786882
0.817246
0.874349
0.868923
0.875306
0.8487
0.001
0.001
0.001
0.001
0.001
0.001
0.001
0.001
0.001
0.001
0.001
0.001
0.001
0.001
0.001
0.001
0.001
0.001
0.001
0.00100999
0.001
0.001
0.0019346
0.001
0.00101
0.001
0.001
0.001
0.001
0.001
0.001
0.227691
0.2271
0.19157
0.169269
0.132137
0.148579
0.114431
0.117434
0.268678
0.216879
0.196677
0.0424967
0.0550056
0.001
0.001
0.0523215
0.0529121
0.0493056
0.0833669
0.145453
0.0945722
0.128989
0.11983
0.0104687
0.001
0.00496985
0.0231498
0.001
0.001
0.001
0.001
0.001
0.001
0.001
0.001
1.41844
1.42704
1.45137
1.43131
1.4702
1.45934
1.47958
1.47375
1.53047
1.5155
1.478
1.53425
1.50246
1.55214
1.38151
1.33213
1.35365
1.4044
1.38653
1.35277
1.35885
1.41407
1.4176
1.39513
1.37263
1.42879
1.40927
1.41638
1.44462
1.29496
1.29483
1.29292
1.29293
1.31044
1.32963
0.888798
0.833577
0.731123
0.631438
0.547615
0.619351
0.822048
0.805915
1.04231
1.06802
0.9532
1.03951
1.07399
1.12373
1.16928
1.21534
1.21016
1.2139
1.21045
1.24083
1.25307
1.27988
1.26558
1.26921
1.27224
1.28423
1.26002
1.25778
0.447681
0.383109
0.322215
0.31235
0.372786
0.547047
0.523413
0.256593
0.306134
0.185079
0.114763
1.39877
1.42186
1.4359
1.44399
1.45227
1.46362
1.46552
1.49413
1.4762
1.49551
1.49275
1.54205
1.56358
1.58949
1.58713
1.59133
1.60737
1.6299
0.0923224
0.0389188
0.0398241
0.301171
0.187558
0.356093
0.26395
0.177748
0.0791297
0.0798109
0.0793921
0.0805633
0.001
0.00811823
0.001
0.001
0.001
0.001
0.145357
0.0741854
0.001
0.169943
0.168555
0.168065
0.224208
0.180796
0.306594
0.255089
0.340477
0.307493
0.34384
0.366009
0.392711
0.41225
0.433587
0.435461
0.445522
0.436846
0.495318
0.48224
0.476841
0.475025
0.52461
0.501823
0.569538
0.533043
0.515645
0.555668
0.600785
0.591803
0.61555
0.649916
0.652181
0.597696
0.704644
0.737963
0.706694
0.692419
0.775401
0.861063
0.93048
1.00327
0.948571
0.962256
1.09202
1.15522
1.19487
1.18061
1.23999
1.27858
1.31958
1.32784
1.32278
1.34671
1.39989
1.37912
1.39217
1.39981
1.38496
1.38683
1.39068
1.39028
1.38758
1.38516
1.38919
0.127691
0.116648
0.140765
0.0632266
0.0829324
0.0959398
0.0358433
0.176267
0.0804357
0.0183131
0.0359513
0.0153146
0.001
0.016978
0.0389061
0.001
0.001
0.001
0.001
0.0857644
0.001
0.001
0.001
0.001
0.001
0.001
0.001
0.001
0.00112609
0.00112608
0.0014892
0.001
0.00101
0.001
0.001
0.001
0.001
0.001
0.001
0.001
0.00100984
0.001
0.00112602
0.001
0.001
0.001
0.00101
0.001
0.001
0.001
0.001
0.00240277
0.001
0.001
0.001
0.001
0.001
0.001
0.00100993
0.001
0.001
0.001
0.001
0.001
0.0010138
0.001
0.001
0.001
0.001
0.00101388
0.001
0.001
0.001
0.001
0.001
0.001
0.001
0.001
0.00101
0.001
0.001
0.001
0.001
0.001
0.001
0.001
0.001
0.001
0.001
0.00209493
0.001
0.001
0.001
0.001
0.00209489
1.5777
1.54772
1.52566
1.62451
1.65916
1.64954
0.863896
0.86263
0.852832
0.847258
0.766266
0.844828
0.662684
0.587744
0.516756
0.537036
0.502416
0.501054
0.503588
0.50342
0.381353
0.297739
0.388917
0.466975
0.467375
0.001
0.001
0.001
0.001
0.001
0.001
0.001
0.001
0.001
0.001
0.00100943
0.001
0.001
0.0654756
0.0978582
0.12579
0.00100998
0.001
0.001
0.001
0.001
0.001
0.001
0.001
0.001
0.001
0.001
0.272775
0.404834
0.521552
0.522902
0.843691
0.764922
0.780857
0.55866
0.648211
0.738674
0.791555
0.787667
0.790343
0.814267
0.835401
0.828601
0.001
0.00116047
0.001
0.001
0.001
0.001
0.00100904
0.001
0.001
0.001
0.001
0.001
0.001
0.001
0.001
0.001
0.001
0.00100504
0.001
0.001
0.001
0.001
0.001
0.001
0.001
0.001
0.001
0.001
0.001
0.001
0.00101
0.001
0.001
0.001
0.001
0.001
0.001
0.227926
0.265054
0.248799
0.192696
0.190644
0.165202
0.189168
0.0515934
0.0814319
0.001
0.001
0.19911
0.187527
0.001
0.001
0.001
0.001
0.00449408
0.00100592
0.024389
0.001
0.0887011
0.0471211
0.0924348
0.102318
0.001
0.001
0.001
0.001
0.001
0.001
0.001
0.001
0.001
0.001
0.001
0.001
1.41854
1.43108
1.45227
1.47587
1.47901
1.48192
1.51089
1.49242
1.34425
1.34249
1.32861
1.34745
1.38272
1.34444
1.39523
1.36763
1.283
1.27058
1.26823
1.29923
1.32426
1.30164
0.893652
0.815287
0.707954
0.797769
0.641838
0.559085
0.810721
0.809983
1.0483
1.0555
1.06813
0.965065
1.04443
1.15674
1.09907
1.04227
1.08571
1.18549
1.20202
1.19113
1.19932
1.20541
1.22869
1.25507
1.24762
1.25887
1.25796
1.25688
1.25724
1.25523
1.25795
0.297331
0.301722
0.441402
0.516608
0.298625
0.383262
0.537717
0.553749
0.286204
0.231159
0.143398
0.210238
1.4293
1.38893
1.40886
1.45438
1.45528
1.45762
1.46537
1.48811
1.50874
1.51919
1.52116
1.52478
1.54664
1.58865
1.57049
1.58753
1.60699
1.64899
1.62761
1.46054
1.47264
1.48704
1.65467
1.65665
1.65225
0.0404613
0.0400036
0.0403038
0.0118809
0.10812
0.121412
0.001
0.001
0.001
0.001
0.001
0.001
0.001
0.00101
0.001
0.00100987
0.001
0.001
0.0207163
0.001
0.00188342
0.0974921
0.172674
0.0871797
0.244854
0.273951
0.2053
0.244173
0.308971
0.270952
0.399754
0.338802
0.408581
0.423586
0.433717
0.422477
0.474226
0.511369
0.550959
0.549498
0.556992
0.541437
0.568562
0.548779
0.599645
0.602094
0.624725
0.627473
0.603114
0.607971
0.725309
0.771177
0.66954
0.733545
0.782625
0.741136
0.845569
0.886788
0.985857
1.02582
1.00342
1.09429
1.15016
1.24912
1.23665
1.29842
1.26812
1.362
1.37446
1.36531
1.38886
1.41794
1.41768
1.47072
1.43663
1.45939
1.42427
1.42864
1.46211
1.39016
1.42238
1.39496
0.001
0.001
0.001
0.001
0.0522256
0.0351467
0.0362145
0.0172377
0.0331429
0.001
0.001
0.001
0.001
0.001
0.001
0.001
0.001
0.001
0.001
0.001
0.001
0.001
0.001
0.001
0.001
0.00102977
0.001
0.001
0.00112607
0.00112607
0.001
0.001
0.001
0.001
0.00101
0.001
0.0010004
0.001
0.001
0.001
0.001
0.001
0.0021967
0.001
0.001
0.001
0.001
0.001
0.00101
0.001
0.001
0.00220171
0.001
0.001
0.001
0.00100982
0.00130661
0.001
0.00100983
0.001
0.001
0.001
0.00101
0.001
0.00101402
0.00101379
0.001
0.001
0.00101391
0.001014
0.001
0.001
0.001
0.001
0.0016023
0.001
0.00160217
0.001
0.001
0.001
0.001
0.00100984
0.00101
0.00100994
0.001
0.001
0.001
0.001
0.001
0.001
0.001
0.001
0.001
0.001
0.00130656
0.001
0.00100958
0.00100997
0.001
0.001
0.001
0.001
0.00101
1.53037
1.56195
1.56081
1.55728
1.58724
1.68918
1.67061
1.67651
1.7023
1.63302
0.771715
0.756174
0.695498
0.692451
0.656243
0.69064
0.589882
0.549803
0.53609
0.505091
0.479697
0.475878
0.386831
0.398203
0.266223
0.309874
0.311165
0.001
0.001
0.001
0.00101
0.001
0.001
0.001
0.100476
0.237827
0.0974056
0.001
0.001
0.001
0.001
0.001
0.001
0.00101
0.001
0.001
0.00102151
0.001
0.001
0.001
0.001
0.001
0.635393
0.646328
0.676122
0.384156
0.520537
0.519738
0.558421
0.676021
0.756824
0.712808
0.619554
0.700726
0.732151
0.731542
0.649268
0.675418
0.001
0.001
0.00116051
0.00101
0.001
0.001
0.00101
0.0011746
0.001
0.001
0.001
0.001
0.001
0.001
0.001
0.00102824
0.001
0.00102835
0.00102826
0.00101
0.001
0.001
0.001
0.001
0.001
0.00100577
0.001
0.001
0.001
0.001
0.0010886
0.001
0.00100563
0.001
0.001
0.001
0.001
0.001
0.001
0.001
0.001
0.001
0.001
0.001
0.00102829
0.246867
0.255857
0.265309
0.12916
0.152384
0.112495
0.111376
0.0419184
0.0317973
0.00129569
0.001
0.001
0.00129461
0.0461784
0.0431557
0.001
0.001
0.001
0.001
0.001
0.00102457
0.001
0.00618548
0.0842504
0.054196
0.119083
0.0694228
0.001
0.00119984
0.001
0.00102453
0.001
0.001
0.001
0.001
0.00101
0.001
0.001
0.00119982
1.41989
1.37571
1.44968
1.41961
1.41812
1.47026
1.46333
1.50727
1.50261
1.53141
1.4995
1.46224
1.53239
1.49327
1.31163
1.30887
1.30043
1.31256
1.32848
1.34034
1.34211
1.34885
1.25711
1.25634
1.27991
1.26512
1.29311
1.30169
0.893652
0.818523
0.733158
0.810477
0.605107
0.698499
0.813003
0.818604
1.04225
1.04324
1.04533
0.974657
1.12928
1.17743
1.08833
1.04279
1.18268
1.18235
1.19612
1.18425
1.22174
1.24415
1.25238
1.25019
1.24698
1.25504
1.25545
1.2559
1.25248
1.25689
0.297149
0.29024
0.458698
0.531317
0.438493
0.354268
0.59223
0.530937
0.271537
0.286189
0.26053
0.177231
1.43071
1.4632
1.44618
1.47316
1.49637
1.48381
1.51639
1.53031
1.50602
1.52049
1.50973
1.5202
1.52438
1.55054
1.57108
1.58877
1.58802
1.63725
1.61379
1.66511
1.67019
1.5434
1.55597
1.6693
1.67847
0.001
0.001
0.001
0.001
0.001
0.001
0.001
0.001
0.00101
0.001
0.001
0.001
0.001
0.001
0.001
0.001
0.00188337
0.001
0.001
0.001
0.001
0.0241774
0.169157
0.0747321
0.261653
0.260561
0.226178
0.174456
0.297771
0.344523
0.399281
0.385822
0.409971
0.398093
0.516656
0.467272
0.567634
0.557354
0.585044
0.58941
0.563411
0.622288
0.664794
0.638472
0.625017
0.652116
0.703247
0.687448
0.669494
0.710866
0.794565
0.795686
0.789729
0.807931
0.938388
0.855662
1.02676
1.04942
1.05212
1.11695
1.19481
1.27008
1.27915
1.29205
1.33694
1.38781
1.42089
1.42176
1.4578
1.43236
1.48438
1.49698
1.49897
1.49866
1.49968
1.50005
1.46449
1.49451
1.47117
0.001
0.001
0.00713787
0.00102495
0.001
0.001
0.001
0.001
0.001
0.001
0.001
0.00145568
0.001
0.00145827
0.00145583
0.00145713
0.00145642
0.001
0.00145429
0.00720809
0.001
0.001
0.001
0.00102991
0.001
0.00102977
0.00102977
0.001
0.001
0.00100217
0.001
0.001
0.001
0.001
0.00101
0.00128624
0.001
0.001
0.00100986
0.001
0.001
0.001
0.00186729
0.001
0.001
0.001
0.001
0.001
0.001
0.001
0.001
0.001
0.00100941
0.001
0.001
0.001
0.00100992
0.001
0.001
0.001
0.00101
0.001
0.001
0.001
0.001
0.001
0.001
0.0010008
0.001
0.001
0.001
0.00100949
0.001
0.001
0.001
0.001
0.001
0.001
0.001
0.001
0.001
0.001
0.00101
0.001
0.001
0.001
0.001
0.001
0.001
0.001
0.001
0.001
0.001
0.001
0.001
0.001
0.001
0.001
0.001
0.001
0.001
0.001
0.001
0.001
0.001
0.001
0.001
0.001
0.001
0.001
0.001
0.001
0.00106369
0.001
0.001
0.001
0.001
1.72367
1.71934
1.73148
1.7164
1.73467
1.7275
1.56863
1.57427
1.63691
1.60057
1.71784
1.74022
1.68964
1.57411
1.51947
0.630694
0.633821
0.637181
0.62701
0.638294
0.568927
0.608653
0.401246
0.455359
0.318556
0.317954
0.266977
0.262977
0.265355
0.001
0.001
0.001
0.001
0.0710865
0.265926
0.0960834
0.001
0.001
0.0522446
0.001
0.001
0.001
0.001
0.001
0.001
0.001
0.00103266
0.00103277
0.001
0.00103269
0.001
0.001
0.001
0.640936
0.638217
0.638738
0.634426
0.64191
0.350531
0.465374
0.408352
0.527194
0.588082
0.620227
0.543558
0.625826
0.578177
0.578724
0.564796
0.001
0.00109641
0.001
0.001
0.001
0.001
0.001
0.00101457
0.001
0.001
0.00101252
0.001
0.001
0.001
0.00102005
0.001
0.001
0.001
0.001
0.001
0.001
0.001
0.001
0.001
0.001
0.00100955
0.001
0.001
0.001
0.001
0.001
0.001
0.001
0.001
0.001
0.001
0.00109153
0.001
0.00108999
0.001
0.001
0.001
0.001
0.001
0.00100037
0.001
0.001
0.001
0.001
0.001
0.00101
0.001
0.001
0.001
0.001
0.001
0.001
0.243882
0.171089
0.161649
0.0916543
0.0843959
0.001
0.001
0.001
0.001
0.001
0.00100615
0.001
0.001
0.001
0.001
0.001
0.001
0.001
0.001
0.001
0.001
0.048341
0.112329
0.0277882
0.001
0.001
0.001
0.001
0.001
0.001
0.001
0.001
0.001
0.0018417
0.00184014
0.001
0.001
0.001
0.001
0.00100972
0.001
1.40085
1.37351
1.38933
1.3901
1.39677
1.41027
1.40005
1.45455
1.44925
1.47998
1.55037
1.5022
1.44743
1.30044
1.30237
1.32695
1.31672
1.3421
1.34113
1.36656
1.35174
1.25516
1.26383
1.2852
1.2701
1.28698
1.29434
0.933566
0.856845
0.776285
0.812429
0.759199
0.666455
0.849377
0.813252
1.04896
1.0478
1.00847
1.05367
1.13872
1.18466
1.04972
1.09585
1.18827
1.18474
1.206
1.18778
1.23215
1.24555
1.2527
1.25713
1.24226
1.25773
1.25232
1.2499
1.24716
1.25101
0.288386
0.349216
0.53108
0.506423
0.434444
0.519022
0.536353
0.609407
0.282492
0.281829
0.272997
0.188608
0.0279109
0.0677262
0.154026
1.50154
1.50105
1.52971
1.52334
1.54709
1.55882
1.55748
1.55917
1.59594
1.57484
1.58837
1.5523
1.58682
1.59602
1.61787
1.63803
1.65023
1.64585
1.69602
1.69872
1.72659
1.70001
1.61591
1.62161
1.73834
1.73595
0.001
0.001
0.00101
0.001
0.001
0.00124777
0.00124786
0.001
0.001
0.001
0.001
0.00207885
0.00102407
0.001
0.001
0.001
0.00100232
0.001
0.0106843
0.001
0.001
0.0612919
0.108456
0.126356
0.107425
0.209409
0.28194
0.157922
0.382266
0.320284
0.389076
0.393928
0.480665
0.423982
0.547074
0.574169
0.572201
0.577998
0.704496
0.669007
0.635847
0.694646
0.716626
0.710138
0.704386
0.69628
0.711082
0.710011
0.792064
0.830702
0.870702
0.826671
0.868659
0.897842
1.03579
0.971595
1.06555
1.04942
1.13231
1.20666
1.29425
1.29023
1.32547
1.36368
1.43746
1.42702
1.44736
1.45523
1.48312
1.49069
1.51153
1.50222
1.51558
1.51027
1.50081
1.51392
1.49776
1.50237
0.001
0.001
0.00101
0.001
0.001
0.001
0.001
0.001
0.001
0.00145781
0.001
0.001
0.001
0.00145556
0.00145741
0.0014561
0.00145733
0.00145608
0.00145552
0.001
0.001
0.00100126
0.001
0.001
0.001
0.00100179
0.001
0.001
0.001
0.001
0.001
0.00101
0.001
0.001
0.00100863
0.00128583
0.001
0.001
0.001
0.00362525
0.001
0.001
0.001
0.00100989
0.001
0.001
0.001
0.00100983
0.001
0.001
0.00100647
0.001
0.00100976
0.001
0.001
0.001
0.001
0.001
0.00361158
0.001
0.001
0.001
0.001
0.001
0.00125716
0.00125707
0.0012571
0.001
0.001
0.001
0.001
0.001
0.001
0.001
0.001
0.001
0.001
0.001
0.001
0.001
0.001
0.001
0.001
0.001
0.001
0.001
0.001
0.001
0.001
0.001
0.001
0.001
0.001
0.001
0.001
0.001
0.001
0.001
0.001
0.001
0.001
0.001
0.001
0.001
0.001
0.001
0.00101
0.001
0.00144472
0.001
0.00111149
0.001
0.0011054
0.001
0.001
0.001
1.74857
1.77041
1.78173
1.73701
1.74271
1.7196
1.73856
1.63082
1.64518
1.65138
1.64023
1.69459
1.71853
1.72387
1.58117
1.61271
1.52931
1.56028
1.55883
0.629599
0.62687
0.534003
0.496029
0.590421
0.527706
0.534511
0.40414
0.431174
0.294373
0.267187
0.266884
0.263305
0.23816
0.001
0.001
0.17917
0.294547
0.0743864
0.001
0.001
0.0282172
0.0213895
0.001
0.001
0.001
0.001
0.001
0.001
0.001
0.001
0.00101
0.001
0.001
0.001
0.001
0.001
0.001
0.595152
0.638663
0.616267
0.588741
0.354072
0.356723
0.38024
0.447045
0.561926
0.565642
0.51846
0.564429
0.564685
0.00100999
0.001
0.001
0.001
0.001
0.001
0.00113308
0.00113338
0.001
0.001
0.00101
0.00100946
0.001
0.001
0.00100846
0.001
0.0010099
0.00385797
0.001
0.001
0.001
0.001
0.001
0.001
0.001
0.00109478
0.001
0.001
0.0010482
0.001
0.001
0.001
0.001
0.001
0.001
0.001
0.001
0.001
0.001
0.001
0.001
0.001
0.001
0.001
0.001
0.001
0.001
0.001
0.001
0.001
0.001
0.00203611
0.001
0.001
0.001
0.001
0.001
0.001
0.001
0.001
0.001
0.001
0.001
0.166408
0.0745112
0.0798049
0.0177243
0.0165098
0.001
0.00738238
0.001
0.016723
0.001
0.001
0.001
0.001
0.001
0.001
0.001
0.001
0.001
0.001
0.001
0.001
0.001
0.001
0.001
0.0141804
0.001
0.001
0.001
0.012771
0.0725791
0.0329051
0.001
0.001
0.001
0.0012213
0.00101
0.001
0.001
0.001
0.001
0.00100999
0.001
0.001
1.36412
1.37697
1.41829
1.3966
1.42562
1.41947
1.44814
1.41722
1.43692
1.4943
1.45146
1.52809
1.48655
1.567
1.2827
1.30394
1.30132
1.32169
1.30378
1.32847
1.37335
1.32452
1.25043
1.26198
1.26365
1.27499
1.2775
1.27668
0.98722
0.905716
0.794734
0.811444
0.71714
0.805682
0.818243
0.87449
1.05528
1.0534
1.05459
1.02974
1.14405
1.18961
1.11074
1.06335
1.18971
1.18868
1.20108
1.21671
1.238
1.23044
1.23576
1.25762
1.26133
1.24764
1.24968
1.25244
1.252
1.24584
0.369247
0.274386
0.541355
0.541819
0.461576
0.546883
0.545308
0.648159
0.27077
0.272025
0.249344
0.234177
0.176603
0.273418
1.51478
1.53269
1.55275
1.58841
1.58251
1.60396
1.61783
1.6274
1.63308
1.61995
1.63014
1.6494
1.66728
1.68224
1.67817
1.68858
1.70927
1.73187
1.74405
1.74594
1.75402
1.63036
1.62121
1.78129
1.79718
0.001
0.001
0.001
0.001
0.001
0.001
0.001
0.001
0.001
0.00207878
0.001
0.001
0.001
0.001
0.001
0.00105223
0.00105223
0.001
0.001
0.001
0.001
0.0604565
0.143009
0.138369
0.0514328
0.204333
0.221215
0.304587
0.362574
0.329926
0.407186
0.351119
0.544499
0.466856
0.57634
0.577893
0.592101
0.653389
0.780047
0.791157
0.725374
0.759813
0.790882
0.733231
0.842469
0.770379
0.747681
0.781361
0.917316
0.925316
0.991837
1.04241
0.929679
1.01696
1.16382
1.11164
1.18309
1.15144
1.34723
1.31052
1.37896
1.39311
1.46415
1.47568
1.53562
1.50176
1.54997
1.53265
1.55353
1.58611
1.55858
1.58981
1.59866
1.55563
1.54414
1.58875
1.58721
1.55515
0.001
0.001
0.00101
0.001
0.001
0.001
0.001
0.001
0.001
0.00107509
0.001
0.001
0.001
0.001
0.001
0.001
0.001
0.00146126
0.001
0.001
0.00143284
0.00100976
0.001
0.001
0.00120274
0.001
0.001
0.001
0.001
0.001
0.00148838
0.00100995
0.001
0.001
0.001
0.001
0.001
0.001
0.001
0.001
0.001
0.001
0.001
0.001
0.001
0.001
0.00101369
0.00101373
0.00101384
0.001
0.001
0.001
0.001
0.00121273
0.001
0.001
0.00121265
0.001
0.001
0.001
0.00100996
0.00144465
0.001
0.00116099
0.001
0.001
0.001
0.001
0.00101
0.001
0.001
0.001
0.001
0.001
0.001
0.001
0.001
0.001
0.001
0.001
0.001
0.001
0.001
0.001
0.001
0.001
0.001
0.001
0.001
0.001
0.001
0.001
0.001
0.001
0.001
0.001
0.001
0.001
0.001
0.001
0.001
0.001
0.001
0.001
0.001
0.001
0.001
0.001
0.001
0.001
0.001
0.001
0.001
0.001
0.001
0.001
0.001
0.00111149
0.001
0.001
0.001
0.00116099
0.001
0.001
1.80319
1.78595
1.7979
1.77166
1.76471
1.79322
1.77742
1.75553
1.77589
1.62998
1.6479
1.6453
1.67013
1.72347
1.77377
1.79498
1.68201
1.56404
1.59787
1.57071
1.56627
1.5623
1.59326
1.49104
0.395636
0.494997
0.395846
0.436661
0.437886
0.343053
0.342653
0.347132
0.347158
0.344521
0.316841
0.242586
0.214151
0.132591
0.13195
0.242799
0.353563
0.001
0.001
0.021479
0.0221574
0.001
0.00100999
0.001
0.001
0.00100155
0.001
0.00104388
0.001
0.001
0.001
0.001
0.00102911
0.001
0.00102991
0.001
0.00100507
0.501858
0.427641
0.403524
0.490835
0.355276
0.377687
0.513822
0.445765
0.490367
0.56383
0.562529
0.00110038
0.001
0.001
0.00114989
0.001
0.001
0.00113311
0.001
0.001
0.001
0.00100995
0.001
0.001
0.001
0.001
0.001
0.00385719
0.00385717
0.001
0.001
0.00385925
0.001
0.00203614
0.001
0.001
0.001
0.001
0.00359056
0.001
0.0010483
0.00360358
0.001
0.001
0.001
0.001
0.001
0.001
0.001
0.001
0.001
0.001
0.001
0.001
0.00101
0.001
0.001
0.001
0.001
0.001
0.0011871
0.001
0.001
0.001
0.00101
0.001
0.001
0.001
0.001
0.001
0.001
0.001
0.001
0.001
0.001
0.001
0.001
0.001
0.001
0.001
0.001
0.001
0.001
0.001
0.0171648
0.0177699
0.0472115
0.0178691
0.0171352
0.0136437
0.0138878
0.001
0.001
0.001
0.001
0.001
0.001
0.00162252
0.001
0.001
0.001
0.001
0.001
0.001
0.00162252
0.001
0.001
0.001
0.001
0.001
0.001
0.001
0.0227938
0.001
0.0528746
0.152448
0.0739298
0.001
0.00101
0.00101
0.001
0.00101
0.001
0.001
0.001
0.001
0.001