/*--------------------------------*- C++ -*----------------------------------*\
  =========                 |
  \\      /  F ield         | OpenFOAM: The Open Source CFD Toolbox
   \\    /   O peration     | Website:  https://openfoam.org
    \\  /    A nd           | Version:  8
     \\/     M anipulation  |
\*---------------------------------------------------------------------------*/
FoamFile
{
    version     2.0;
    format      ascii;
    class       volScalarField;
    location    "3900";
    object      nut;
}
// * * * * * * * * * * * * * * * * * * * * * * * * * * * * * * * * * * * * * //

dimensions      [0 2 -1 0 0 0 0];

internalField   nonuniform List<scalar> 
526318
(
0.000175869
0.000261809
0.00014945
0.000203277
0.000215666
0.000180261
0.000509176
0.000517546
0.000166548
0.00058065
0.000367878
0.000319424
0.000254448
0.000205824
0.000250401
0.000273113
0.000210642
0.000246479
0.0001942
0.000106829
0.000263081
0.000134192
0.000701914
0.000330756
0.000894004
0.000399086
8.85508e-05
0.000172165
0.000489506
0.000335154
0.000280539
0.000205542
0.000274656
8.38642e-05
0.000217571
0.00026486
0.000329318
0.00032618
1.80471e-05
0.000191537
0.00024593
0.000103407
0.000547142
0.00110424
0.000434508
0.000758453
0.000302864
0.000567029
0.000259635
0.000268142
0.000136806
0.000233427
0.000168164
9.0865e-05
0.000470446
0.00112999
0.000659343
0.000439859
0.000228392
0.00032526
0.000367148
0.000147165
0.000213497
0.000420841
0.000285677
0.00023552
3.79701e-05
0.000104735
0.000105757
6.18859e-05
9.2231e-05
6.20588e-05
1.60331e-05
4.73267e-05
7.70203e-05
6.96112e-05
6.57075e-05
0.000151304
9.4343e-05
0.000138499
6.5425e-05
8.21388e-05
0.000136805
2.29216e-05
4.04422e-05
8.06205e-05
8.30272e-05
0.000132492
0.000119846
5.91973e-05
3.99936e-05
0.00016712
4.00796e-05
0.00019698
0.000165348
8.97664e-05
0.000149654
2.71328e-05
0.000146929
5.55014e-05
0
0
0
0
8.56236e-05
0
0.000931266
0.000492388
0.000661155
0.000304369
0.00063711
0.000730834
0.000604545
0.000892187
0.000652646
0.000573588
0.000538974
0.000521012
0.000329375
9.68948e-05
7.55583e-05
1.81039e-06
9.45675e-05
7.39471e-05
6.46187e-05
3.62536e-05
6.81156e-05
4.22362e-05
3.8422e-05
3.66186e-05
4.3343e-05
1.46758e-05
1.51902e-05
4.20118e-05
1.81266e-05
3.54423e-05
1.64045e-05
1.40724e-05
4.36247e-05
6.6142e-05
5.26893e-05
6.97903e-05
4.80083e-05
2.8033e-05
7.62784e-05
3.85896e-05
3.23673e-05
1.67706e-05
2.8871e-05
1.35558e-05
2.60813e-05
8.41414e-05
4.50772e-05
6.02923e-05
3.11927e-05
1.33983e-05
5.08683e-05
2.99744e-05
6.27027e-06
3.29804e-05
4.53263e-05
6.16795e-05
9.06343e-05
0.000146426
0.000299695
5.86474e-05
0.000100527
0.000120737
0.0001109
4.31761e-05
9.7439e-05
8.02042e-05
8.97721e-05
0.000103441
2.99411e-05
3.08079e-05
0.000104045
0.000107876
7.43067e-05
8.08753e-05
9.9452e-05
0.000134812
6.27656e-05
3.67235e-05
0.000113822
9.38513e-05
2.20757e-05
2.85698e-05
0.000106517
4.00159e-05
0.000109756
7.53099e-05
6.27247e-05
1.83452e-05
7.35158e-05
1.65749e-05
4.846e-05
1.33389e-05
5.23863e-05
8.07957e-05
3.72534e-05
6.03326e-05
7.03019e-05
7.4243e-05
2.83532e-05
9.59084e-06
5.30015e-05
4.3871e-05
2.7389e-05
1.43206e-05
7.89406e-05
0.000264692
0.000169875
0.000161658
0.000431059
0.000236111
0.000137683
9.20096e-05
0.000185262
0.000874852
0.000234266
0.000436035
0.00031416
0.000180112
0.000138224
0.000144461
6.59324e-05
0.000194693
1.0694e-05
0
0
4.24311e-05
0.00130092
0
0
0
0
0
0
0.0002852
0.00011979
0.000320033
0.000225997
0.000149258
7.22781e-05
0.000108208
2.14581e-05
3.1731e-05
7.98786e-05
0.000131139
6.15212e-05
7.00161e-06
0.000146333
0.000138136
8.21622e-05
0.000148034
4.60146e-05
8.3832e-05
0.000109504
9.36713e-05
9.38823e-06
0
0
0
0
0
0
0
0.000137286
0.000457013
0.000249099
0.00050121
0.000371956
0.000434618
0.000644631
0.000663138
0.000552172
0.000547788
0.000534652
0.000323602
0.000405703
7.80775e-05
2.12209e-05
4.41895e-05
8.92089e-05
6.33149e-05
5.234e-05
5.51106e-05
2.9737e-05
1.748e-05
3.79378e-05
5.91149e-05
8.49718e-05
4.56627e-05
7.39205e-05
0.000105822
5.90935e-05
2.77823e-05
4.15766e-05
4.51295e-05
4.9218e-05
3.45851e-05
4.56266e-05
2.45369e-05
8.74955e-05
9.92586e-06
3.23474e-05
1.54348e-05
1.57893e-05
1.4084e-05
4.78116e-05
3.1236e-05
2.6359e-05
2.26365e-05
2.42784e-05
4.90855e-05
9.02186e-05
6.07993e-05
8.83636e-05
2.24425e-05
0.000191711
0.000132011
0.000108325
0.000135241
3.95664e-05
4.63261e-05
8.09498e-05
7.35212e-05
7.37959e-05
7.05808e-05
4.95558e-05
9.41593e-05
7.78451e-05
5.16853e-05
9.38145e-05
1.55256e-05
9.81458e-05
0.000116508
2.01743e-05
5.87874e-05
0.00011718
1.18983e-05
6.30424e-06
0.000106932
1.59707e-05
8.53555e-05
9.1099e-05
6.38718e-05
0.00013403
7.12988e-05
1.06183e-05
3.67231e-05
2.45412e-05
6.06901e-05
2.38676e-05
8.73562e-05
4.0944e-05
5.59819e-05
4.88681e-05
4.27765e-05
3.85866e-05
6.96361e-05
2.26483e-05
8.64717e-05
8.85787e-05
3.34442e-05
4.55104e-05
5.33456e-05
5.99029e-05
6.09761e-05
2.69805e-05
2.13569e-05
2.96185e-05
3.42699e-06
5.64859e-05
4.58176e-05
3.07858e-05
0.000132822
0.000269765
4.61324e-05
0.000154351
0.000488564
0.000197146
0.000154961
1.69394e-05
0.000260205
9.55623e-05
0.000105487
0.00029168
0.000165906
0.000463391
8.63959e-05
0.000371803
0.000280749
0.000312109
0.00010726
0.000148593
0.000142874
0.000133072
0
0
7.82724e-05
0
0.000236594
1.54926e-06
0
0
0
0
0
0
0
0
0
0
0.000175378
6.92845e-05
0.000235915
0.000119372
7.64096e-05
5.13261e-05
0.000134095
0.000156078
3.08704e-05
0.000136464
0.000122378
0.00022069
3.57216e-05
0.000111156
8.14068e-05
0.000117124
7.39814e-05
5.30365e-05
1.43331e-05
9.4193e-05
1.0286e-05
6.4774e-05
0
1.06224e-09
2.34743e-09
0
0
0
0
0
1.75731e-10
1.17946e-09
0
0
0
0
2.51255e-09
0
0
0
0
0
0
0
7.65941e-06
0
7.74616e-05
4.46352e-05
0.000237623
0.000360844
0.000412431
0.000347991
0.000361811
0.000344857
0.000311754
0.000387673
0.000311555
0.000249088
7.41958e-05
0.000186897
6.33396e-06
4.33382e-05
3.0998e-05
4.56477e-05
1.50804e-05
2.70014e-05
4.42363e-05
3.03428e-05
3.03726e-05
7.9915e-05
6.72927e-05
7.24083e-05
7.43325e-05
6.65413e-05
5.7957e-05
0.000106596
0.000102065
0.000151453
8.72124e-05
2.07412e-05
3.17069e-05
4.10396e-05
8.11851e-05
2.9933e-05
4.98349e-05
5.92394e-06
2.53685e-05
1.65369e-05
3.53763e-05
5.28939e-05
4.5866e-05
9.7557e-05
4.47264e-05
0.000153422
8.9116e-05
0.000105171
7.09336e-05
0.000143244
4.08487e-05
3.326e-05
3.6737e-05
5.97934e-05
3.39074e-05
0.00010043
1.0756e-05
4.00972e-05
5.5157e-05
7.08964e-05
8.87321e-05
7.64095e-05
6.98022e-05
0.000106164
6.86731e-05
7.29089e-05
7.88825e-05
6.67104e-05
7.27943e-05
7.21365e-05
5.56283e-05
5.92224e-05
8.15568e-05
7.78705e-05
3.34681e-05
7.6897e-05
8.21893e-05
7.74284e-05
6.12361e-05
0.000113106
4.45445e-05
4.50717e-05
0.000105724
6.34134e-05
2.70308e-05
0.000124865
2.49188e-05
9.45561e-05
2.18662e-05
5.92502e-05
3.33116e-05
8.28635e-05
9.069e-05
4.59286e-05
9.02855e-05
5.34893e-05
4.99718e-05
8.07468e-05
7.63769e-06
3.41586e-05
4.10741e-05
6.64147e-05
8.88192e-05
0.000121993
7.99506e-05
8.88288e-05
3.70295e-05
8.28325e-05
7.69995e-05
5.15517e-05
7.61351e-05
7.83334e-05
0.000122338
0.000173441
6.07956e-05
0.000123643
0.000199202
6.0151e-05
0.000133886
6.03468e-05
0.00025067
9.44347e-05
0.000183698
6.8764e-05
0.000269295
8.03666e-05
0.000103062
4.31927e-05
4.8987e-05
0.000216565
9.72741e-05
0.000350044
0.000301716
0.000394671
0.000171441
0.000247018
0.000101756
0.000105018
8.6054e-05
0
0
0
0
3.10853e-05
0.000159701
0
0
0
0
0
0
0
0
0
0
0
0
0
0
0
0
0
0
0
0
2.22081e-10
0
0
3.68742e-10
1.07172e-10
1.0737e-10
0
0
0
0
0
0
0
0
0
0
0
0
0
0
7.04281e-05
0.000164252
0.000100375
0.00019223
0.000146865
0.000169943
2.5395e-05
0.000193576
0.000144721
0.000131291
8.18534e-05
0.000105118
0.000130971
2.18659e-05
4.07689e-05
9.53723e-06
1.84193e-05
8.88573e-05
5.89146e-05
1.64204e-05
4.27288e-05
2.69787e-05
0
0
0
0
0
0
0
0
0
0
0
0
0
0
0
0
0
0
0
0
0
0
0
0
0
0
7.08833e-09
0
0
0
1.83996e-05
0
4.06179e-05
3.35886e-05
0.000150717
0.000102017
0.000344453
0.000297538
0.000372038
0.000152652
3.85512e-05
0.000193405
0.000151959
0.000124186
8.19809e-05
0.000159323
0.00018679
5.99275e-05
0
0
0
0
0
0
0
0
0
0
0
0
0
0
0
0
0
3.28824e-05
1.49382e-05
2.53111e-05
4.73617e-05
1.61985e-05
4.40642e-05
5.22446e-05
2.6028e-05
1.65698e-05
4.02317e-05
2.6797e-05
3.89276e-05
8.59454e-05
2.65221e-05
7.03058e-05
4.11851e-06
8.45779e-05
9.95645e-05
0.000101517
3.20459e-05
5.17006e-05
1.44448e-05
1.75828e-05
4.52433e-05
5.04477e-05
2.20007e-05
3.3297e-05
3.06355e-05
2.24751e-05
8.15231e-06
0
0
0.000159831
0.000132271
0.000102396
0.000293231
0.000119888
6.61151e-05
0.000278941
0.000221974
0.000208533
0.000274797
0.000112976
0.000119454
0.000118805
0.00015308
4.81639e-05
1.03757e-05
7.99574e-05
8.10689e-05
8.9711e-06
5.8651e-05
9.04131e-05
5.49373e-05
4.26817e-05
9.34021e-05
6.96214e-05
0.000114633
6.76828e-05
0.000126168
5.93028e-05
3.642e-05
6.06959e-05
1.24656e-05
7.13937e-05
0.000101492
0.000118341
5.90368e-05
0.000200338
7.9108e-05
0.000220795
8.69255e-05
7.73575e-05
4.0678e-05
7.24898e-05
8.5596e-05
5.25585e-05
0.000121848
0.000114007
4.12755e-05
1.13017e-05
0.000107951
0.000132807
1.93503e-05
7.89262e-05
7.98626e-05
7.60162e-05
4.46673e-05
0.000134525
6.88497e-05
7.79892e-05
6.388e-05
8.67249e-05
9.59267e-05
9.84085e-05
8.30221e-05
4.95997e-05
4.88678e-05
9.89347e-05
8.26642e-05
4.24208e-05
8.46233e-07
4.90331e-05
0.000109192
3.87099e-05
7.29285e-05
0.000125014
8.66352e-05
0.00012417
0.000246308
0.00015031
0.000285638
0.000216368
0.000221837
0.000246549
0.00024533
0.000227218
0.000263552
0.000345031
0.000323314
0.000220032
0.000291605
0.000259642
0.000264295
0.00036489
0.000251522
0.000272569
0.000332305
0.000293133
0.000233797
0.000234397
0.000261504
0.000231248
0.000225258
0.000211616
0.000212429
0.000231001
0.000153523
0.000189632
0.000165668
0.000165673
0.0001032
0.000132357
0.00011987
0.000115533
0.000123536
5.98169e-05
3.89928e-05
6.6577e-05
8.50974e-05
6.37285e-05
1.0272e-05
0.000114387
0.000107359
0.0001732
5.08049e-05
4.7674e-05
9.47081e-05
9.68174e-05
0.000114386
5.05632e-05
5.27826e-05
6.11454e-06
1.88985e-05
5.11574e-05
7.59848e-05
2.79634e-06
6.68707e-05
0.00018955
0.000127383
7.67076e-05
0.000130111
1.88057e-05
2.43306e-05
1.89503e-05
4.5667e-05
0
3.37302e-09
0
0
0
0
0
0
0
0
0
4.79357e-09
0
0
0
0
0
0
0
0
4.71309e-09
0
0
0
0
0
0
0
0
0
0
0
0
0
0
0
0
0
0
2.00506e-09
0
0
5.29554e-09
0
2.55125e-09
0
6.63131e-10
8.97763e-10
8.0821e-10
0
5.38427e-09
2.7456e-10
0
0
2.77226e-09
0
0
0
0
0
0
0
0
0
0
0
0
0
0
4.05668e-09
0
0
8.29808e-05
0.000235013
0.000199628
4.17008e-05
1.96194e-05
0.000131289
0.000117364
0.000258331
5.52491e-05
9.0939e-05
2.88693e-05
6.00494e-05
3.6445e-05
3.93704e-05
6.71705e-05
3.14878e-05
6.22932e-05
3.61667e-05
4.34738e-05
5.42432e-05
4.00853e-05
2.86191e-05
0
0
3.06592e-09
1.30124e-09
0
0
0
0
0
0
0
0
0
0
0
0
0
0
0
0
0
0
5.02926e-09
3.62888e-09
0
0
0
3.12401e-05
3.20481e-05
6.98225e-05
0.000153782
0.000133872
0.000310108
0.000135654
0.00027746
9.22057e-05
2.43697e-05
8.64546e-05
3.96269e-05
6.1297e-05
0.000147033
0.000179572
0.00014452
7.83071e-05
9.5927e-10
0
0
0
0
5.20217e-11
0
0
1.0478e-10
0
0
0
0
0
0
0
0
0
0
0
0
0
0
0
4.51955e-09
0
0.000100592
2.16961e-05
2.00731e-05
4.15051e-05
2.08108e-05
2.84973e-05
3.40876e-05
1.34691e-05
1.32847e-05
1.1601e-05
3.9736e-05
4.74187e-05
8.45291e-06
6.56792e-06
3.29262e-06
8.34788e-06
2.27713e-05
6.20065e-05
3.74936e-05
8.03427e-05
0
0
8.6829e-06
0
2.58986e-06
2.48983e-06
0
0
0
0
1.58577e-09
0
0.000259132
0.000338844
0.000143544
0.000107895
0.000158854
7.92639e-05
0.000243186
0.000266854
0.000365477
0.000300667
0.000298072
0.000377163
0.000254889
0.000269969
0.000233654
0.000192881
0.000146128
0.000179662
0.000179344
0.000116142
8.71977e-05
0.000145463
0.000108388
0.000177818
3.43154e-05
6.7033e-05
6.96855e-05
8.53828e-05
0.000123009
0.000117109
6.63946e-05
5.21498e-05
0.000134526
9.69517e-05
6.03658e-05
1.78916e-05
8.17201e-05
4.83779e-05
2.3456e-05
4.33774e-05
1.12244e-05
0.000143558
4.58851e-05
0.000141793
5.28153e-05
6.54135e-05
6.28296e-05
0.000104769
9.03496e-05
3.73501e-05
3.24875e-05
3.79925e-05
3.1315e-05
4.35378e-05
1.09752e-05
1.03496e-05
0
0.000120283
1.48383e-05
0.000100645
2.73515e-05
9.5699e-05
0.000109119
5.7051e-05
0.000147096
6.12412e-05
0.000119616
0.00010557
8.22879e-05
5.38043e-05
4.42425e-05
9.10696e-05
0.000131706
7.19075e-05
0.000109896
0.000102311
0.000123362
2.86497e-05
5.64998e-05
0.000119095
0.000112586
5.31395e-05
6.82561e-05
5.07458e-05
5.78271e-05
7.04263e-05
7.74966e-05
3.00041e-05
0.000130934
6.19382e-05
7.02206e-05
6.61301e-05
3.00226e-05
0.000126355
8.38934e-05
0.000160474
0.000186227
5.44627e-05
0.000100289
0.000172085
0.000186222
0.000163567
0.000217393
0.000330798
0.000254038
0.000288178
0.000342663
0.00029305
0.000323246
0.000237281
0.000307723
0.000231027
0.00028443
0.000221394
0.000176528
0.000161705
8.47555e-05
0.000132761
4.60397e-05
1.97441e-05
7.17509e-05
5.80162e-05
7.86995e-05
0.000119149
6.84192e-05
4.80157e-05
7.51942e-05
7.93355e-05
0.000144601
9.08442e-05
0.000111172
0.000151679
0.000151815
3.57794e-05
1.29306e-05
8.93962e-05
0.000134546
8.05145e-05
0.0001808
0.000163391
4.87068e-05
8.3346e-05
6.18884e-05
1.74292e-05
6.82959e-07
1.08224e-06
2.89879e-05
3.57181e-05
0
0
6.59685e-05
0
0.000101054
9.81088e-05
2.95678e-05
5.51963e-05
3.43133e-05
2.88566e-05
0
0
0
0
3.39191e-09
3.74428e-09
0
0
0
6.61384e-09
0
0
0
0
0
0
0
5.88157e-09
0
0
0
0
0
0
0
0
1.06775e-10
0
0
0
1.61969e-09
0
0
0
0
0
0
0
0
0
0
0
0
0
0
0
0
5.0405e-09
0
1.60234e-09
0
0
0
0
0
0
0
0
0
0
8.50428e-05
7.47529e-05
5.20131e-05
0.000147668
4.64377e-05
4.30765e-05
8.42876e-05
7.60742e-05
0.000105707
0.000106447
5.38359e-05
4.29646e-05
3.1269e-05
6.74392e-05
7.62042e-05
3.72336e-05
6.62569e-05
5.58724e-05
5.20161e-05
3.15029e-05
6.35712e-05
6.32914e-05
2.84811e-09
0
2.02722e-09
0
0
0
0
0
0
0
0
0
0
0
0
0
0
0
0
0
0
0
0
0
0
0
4.62994e-05
3.05516e-05
3.9829e-05
4.77863e-05
0.000204634
0.000132973
0.00024111
0.000147899
0.000113762
0.000150346
0.000134485
8.69904e-05
0.000108775
8.19883e-05
0.00013309
0.000113444
0.000108525
6.88749e-05
0
0
0
0
0
0
0
0
0
0
0
0
1.51813e-09
0
0
0
0
0
0
2.07881e-10
0
4.78283e-10
0
0
0
0
0
0
0
0
0
4.13925e-05
5.23131e-05
2.2912e-05
1.05801e-05
2.76374e-05
2.75774e-05
3.37091e-05
3.45693e-05
1.62125e-05
4.70533e-05
3.20084e-05
3.55806e-06
8.36844e-06
0
0
2.75086e-06
2.44716e-06
2.65242e-06
1.32265e-05
3.16923e-05
2.31887e-05
4.05081e-05
1.187e-05
0
0
0
0
0
0
0
0
0
0
0
0
0.000220742
0.00019788
0.00014983
0.000134572
0.000198009
0.000215152
0.000244095
0.000207462
0.000212371
0.00023461
0.00035873
0.000266427
0.000165401
0.000219461
0.000128894
6.28864e-05
0.000167425
0.000106008
0.000119152
0.000137053
0.000176739
0.000160372
0.000189475
0.000163419
0.000155885
0.000176535
0.000182397
0.000164556
0.000176333
2.46041e-05
5.263e-05
5.86017e-05
7.77257e-05
7.37687e-05
9.53727e-05
0.000305587
0.000372991
0.000244884
0.000172236
0.000159043
0.000192029
0.000318279
0.000258263
0.000397831
0.000300318
0.000461366
0.000281991
0.000248768
0.000216332
0.000230209
0.00010612
0.000147978
0.000184678
0.000157756
0.00015244
0.00012474
0.000199904
9.55037e-05
0.000152715
0.000177577
9.29e-05
0.000127498
0.000119042
4.55526e-05
4.08775e-05
4.83986e-05
0.000117895
0.000100873
0.000126393
7.35284e-05
0.00015477
6.17182e-05
3.81792e-05
8.16804e-05
0.000134103
0.000141184
0.000161111
0.000189964
0.000129229
0.0001771
0.000182008
0.000190806
0.000164899
0.00025055
0.000160751
0.00025903
0.000202787
0.000230254
0.000264906
0.000159452
0.000238761
0.00029685
3.24576e-05
1.63564e-06
8.54808e-07
0.000102129
9.2685e-05
0.000118571
6.06721e-05
3.64718e-05
4.10305e-06
3.81928e-05
3.52935e-05
2.44007e-05
0
0
0
0
0
0
4.33014e-05
7.79024e-06
0
8.28086e-05
0.000114923
8.96577e-05
9.28217e-05
8.51817e-05
4.52516e-05
7.83852e-05
4.02619e-05
5.36542e-05
6.01619e-05
8.68401e-05
3.68281e-05
5.41279e-05
9.45103e-05
5.61413e-05
4.1128e-05
3.4439e-05
0.00012851
8.53655e-05
0.000133503
2.49794e-05
0.000169369
0.000126782
4.60955e-05
0.000105896
0.000105791
2.82708e-05
7.91484e-05
4.46846e-05
0.000100942
0.00019538
0.00016741
0.000116618
0.000124605
0.000109809
0.000153618
0.000160701
0.000137253
0.000177899
0.000232351
0.000273601
0.000276058
0.000317242
0.000389147
0.000251692
0.000409345
0.000205842
0.000384938
0.00020852
0.000228692
0.000339312
0.000249461
0.000187082
0.00014411
0.000151446
0.000159157
4.47863e-05
5.7877e-05
9.14478e-05
9.90264e-05
9.85209e-05
0.00010959
0.00011492
0.000177615
5.45832e-05
1.50473e-05
1.77481e-05
1.98988e-05
6.12004e-05
6.49457e-05
4.2061e-07
0.000178743
7.78743e-05
0
0
0
0
0
8.43036e-07
0
0
0
0
4.50578e-05
0
0
0
0
0
0
0
0
3.19779e-09
3.66133e-09
3.49024e-09
0
4.61836e-10
0
0
0
0
0
0
0
0
0
5.92006e-09
0
0
0
0
0
0
0
0
2.66479e-07
0
0
0
0
0
0
0
0
0
0
0
0
6.98366e-10
0
0
0
0
0
0
0
0
0
0
0
0
0
0
0
0
0
0
0
0
0
0
0
0
1.06545e-08
0
0
0
0
1.38217e-08
0.000277168
0.000309429
0.000297451
0.000326757
0.000271568
0.000252906
5.46491e-05
9.88796e-05
0.000115107
0.000147577
8.74514e-05
7.92823e-05
9.37494e-05
9.34977e-05
7.68454e-05
7.93357e-05
4.56504e-05
2.70829e-05
4.09498e-05
3.57017e-05
3.23128e-05
5.97879e-05
4.79729e-05
4.29292e-05
5.31716e-05
0
0
0
0
0
0
0
0
0
0
0
0
0
2.19381e-06
5.46354e-05
1.39706e-05
0
0
0
0
0
0
0
0
0
0
0
5.41272e-05
0.000108695
7.62304e-05
0.000236373
4.47259e-05
8.2537e-05
0.00017055
0.000168595
5.68697e-05
9.54059e-05
6.99939e-05
0.000168729
2.33604e-05
8.15949e-05
4.95319e-05
4.02713e-05
0
7.75811e-10
0
0
0
0
0
0
0
0
0
0
0
0
0
0
0
1.62934e-09
0
0
0
0
0
0
4.18054e-09
0
0
0
0
0
1.53228e-09
0
0
0
0
0
0
1.42751e-05
2.7929e-05
1.22769e-05
3.77091e-05
1.96235e-05
6.05711e-05
4.74002e-05
1.80282e-05
2.47594e-05
0
0
5.6313e-06
3.20739e-05
0
0
0
2.34547e-09
0
0
0
0
2.61031e-05
1.42643e-06
2.70357e-05
1.32278e-05
0
0
0
0
0
0
0
0
0
0
0
0
0.000175018
0.000127443
0.000202781
0.00016571
0.000169567
0.000314921
0.000321212
0.000365117
0.000154709
0.000159987
0.000118106
0.000144623
0.000185007
0.000215439
0.000192903
0.000183094
0.000196223
0.000180776
0.000168073
0.00016181
0.000154072
0.000151828
0.000354486
0.000350666
0.000203414
0.00029832
0.000157691
0.00016345
0.000227256
0.000324908
0.000416724
0.00018587
0.000295609
0.000424708
0.000295237
0.000131903
0.000351877
0.000327527
0.000158521
0.00020441
0.000113036
0.000119764
0.00020309
0.000160262
0.000146905
0.000140023
0.000160666
0.00014154
2.13959e-05
0.000193443
0.000225813
0.000308396
0.000277806
9.59961e-05
4.93399e-05
5.86815e-05
0.000152422
0.000103199
0.00010351
0.000126099
0.000128166
3.809e-05
0.000138186
5.92837e-05
6.93123e-05
0.000214203
0.000190306
0.000152629
0.00017453
0.000147967
0.000174279
0.000236826
0.000201001
0.000239592
0.00018624
0.000252547
0.000290338
0.000176597
0.000167061
0.000286961
0.000246593
0.000262739
0.000241731
0.000171309
0.000261877
0.000172856
0.000282005
0.000287558
0.000201661
0.000255764
7.6894e-07
1.92344e-06
1.08799e-06
0
5.41271e-05
5.8881e-05
0
0
0
0
0
0
0
3.33266e-09
0
1.52537e-09
0
0
0
0
2.22796e-09
9.55726e-05
0.000149819
0.0001605
3.55251e-05
8.86959e-05
2.89888e-05
5.78714e-05
3.45838e-05
3.60559e-05
4.14642e-05
3.65926e-05
4.41131e-05
3.20061e-05
4.42201e-05
3.54464e-05
0.000103653
0.000158793
0.000132706
9.63308e-05
0.000142867
6.18301e-05
8.01159e-05
9.39091e-05
7.5123e-05
8.89046e-05
0.000134609
0.000114869
0.000116729
0.000154443
0.000126477
9.26498e-05
0.000143826
6.1397e-05
0.000193476
0.000138599
0.000256839
0.000177265
0.00018364
0.000383862
0.000285512
0.000374172
0.000215763
0.000417551
0.00019059
0.000208407
0.000404173
0.000362133
0.000215621
0.000172921
0.000254725
0.000211262
0.000178609
0.000102597
0.000182772
5.63552e-05
0.000225167
0.00018571
7.94226e-05
0.000161269
0.000164128
0.000137877
0
0
0
0
7.72487e-05
8.13552e-07
1.92743e-06
8.57077e-07
2.97681e-06
0
0
0
0
0
0
0
0
0
0
0
0
0
0
0
0
0
0
0
3.43248e-09
2.11294e-09
0
0
0
0
0
0
0
0
0
0
0
0
6.89717e-08
0
0
0
0
0
0
0
0
1.16227e-07
0
0
0
3.28895e-09
1.38152e-09
0
0
0
0
0
0
0
6.97118e-10
4.71947e-10
0
0
7.51173e-09
1.65882e-09
0
0
0
0
3.47269e-09
0
5.51664e-09
0
0
0
0
0
4.07005e-10
6.90054e-10
0
0
0
0
0
0
0
0
0
0
1.66048e-09
0
0
0
0
0
0
0
0
0.000182555
0.000252564
0.000333169
0.000269675
0.00030889
0.000352248
0.000267748
0.00026021
0.000303198
0.000236531
2.67849e-05
0.000109912
6.90034e-05
6.07711e-05
0.000125347
0.0001614
1.93186e-05
7.73607e-05
4.44547e-05
5.18917e-05
1.86132e-05
8.42287e-06
4.61363e-05
5.71158e-05
4.48112e-05
3.31352e-05
4.71899e-05
0
0
0
0
0
0
0
0.000134578
7.05068e-05
6.21448e-05
0
0
0
0
0
0
0
0
0
1.05723e-10
0
0
0
0
0
0.000142111
5.43285e-05
5.6236e-05
0.000193824
7.58354e-05
0.000183689
5.3452e-05
8.83048e-05
6.48307e-05
0.00013778
7.53312e-05
3.0957e-05
0.000171367
0.000117854
4.28008e-05
0.000118704
0
0
6.83102e-10
2.85022e-09
0
0
2.87458e-09
3.85435e-10
0
0
0
1.59196e-09
0
0
0
1.95229e-09
3.88678e-09
1.45549e-09
0
0
0
2.28347e-09
0
0
0
1.06672e-09
0
0
0
0
0
0
0
0
0
0
0
0
0
0
0
0
1.27579e-09
0
0
1.19403e-05
2.10875e-05
2.51645e-05
2.20196e-05
2.01415e-05
1.0188e-05
4.48394e-05
2.24816e-06
0
0
0
1.10924e-09
1.76829e-09
7.84587e-06
3.26969e-06
0
0
0
0
0
0
0
0
5.97504e-06
4.03502e-06
1.52241e-05
2.54839e-05
0
0
0
2.81548e-09
0
0
0
0
0
0
0
2.51005e-09
7.50296e-05
0.000177198
0.000230763
0.000138583
0.00047173
0.000397441
0.000484404
0.000179828
0.00033267
0.000303697
0.000300853
0.000225383
0.00038608
0.000184982
0.000124654
8.76254e-05
0.000216059
0.000120512
0.000221739
0.000186352
0.000255951
0.000112529
0.000277646
0.000256206
0.000131667
0.000143965
0.000216956
0.000158376
0.000371998
0.00026626
0.000164161
0.000273548
0.00010131
0.000211577
0.000217551
0.000367572
0.00035207
0.000249246
0.000377781
0.000352743
0.000206332
0.000142659
0.000200682
0.000228645
0.000169152
5.8647e-05
0.000106769
0.000123994
0.000198004
0.000119944
3.57535e-05
0.000203403
0.00023971
0.000173042
0.000243582
0.000272298
0.000244422
0.000125649
5.59448e-05
9.55941e-05
0.000190593
0.000168807
6.46674e-05
8.85363e-05
0.000187002
0.000150851
6.2098e-05
2.53296e-05
6.25033e-05
5.65745e-05
0.000191891
0.000181296
0.00016887
0.000258095
0.000193371
0.00018763
0.000293005
0.000173902
0.000272419
0.00022597
0.000212053
0.000253542
0.000210145
0.000318177
0.000206652
0.000304322
0.000210762
0.00022099
0.000259642
0.000195246
0.000248425
0.000284804
0.000156305
0.000216165
0.000200446
0
0
0
0
0
0
0
0
0
0
0
0
0
0
0
0
1.98521e-09
0
0
0
0
0
6.10514e-05
1.41575e-05
1.25619e-05
2.84272e-05
3.59444e-05
2.23519e-05
5.81535e-05
4.45516e-05
3.96926e-05
1.6308e-05
5.31929e-05
4.69691e-05
4.7229e-05
6.11224e-05
8.90522e-05
3.21709e-05
9.41515e-05
5.3769e-05
0.000137803
0.00011187
0.00014568
3.66109e-05
0.000137349
0.000122168
0.000154922
9.49013e-05
0.000128146
5.32999e-05
0.000173637
5.17925e-05
0.000140431
1.97059e-05
0.000149913
0.000212645
0.000320232
0.000181424
0.000333565
0.000204546
0.000373809
0.000237956
0.000368038
0.000255108
0.000306304
0.000252817
0.000274811
0.000181777
0.000145024
0.000202585
0.000110123
0.000219341
5.95488e-05
0.000256442
0.000103098
0.000303527
0.000248476
4.7162e-05
0.000285276
0
0
5.38237e-07
9.39012e-11
0
0
0
0
0
0
0
1.9014e-09
0
9.19691e-09
6.99179e-09
1.25862e-08
1.09654e-08
0
1.46765e-08
4.02584e-06
0
0
0
2.38008e-09
0
2.73596e-09
5.47339e-09
0
0
0
0
0
0
0
5.6843e-09
1.54357e-09
0
0
0
0
0
0
4.82419e-08
0
0
0
0
0
0
0
0
0
0
0
0
0
0
0
0
0
0
0
0
0
0
0
0
0
0
0
0
0
0
0
0
0
0
0
0
0
0
0
3.34487e-09
0
0
0
0
0
0
0
0
0
0
0
0
0
0
0
0
0
0
0
0
0
0
0
0
0
0
0
0
0
4.18525e-10
0
0
0
0
0.000250822
0.00023649
0.000314403
0.000203278
0.000189595
0.000157398
0.00042475
0.000201523
0.00027787
0.000285509
0.000328709
0.000267036
0.000218297
0.000410746
0.000117256
5.51203e-05
0.00010253
0.000189445
8.07774e-05
0.000123836
8.59091e-05
7.18231e-05
1.57608e-05
7.75661e-05
1.12385e-05
7.71443e-05
4.78475e-05
5.29341e-05
6.38524e-05
0
0
0
2.5047e-09
2.17471e-05
2.56956e-05
1.35653e-05
0
0
2.83724e-05
0
0
0
0
0
0
0
0
1.38326e-09
0
2.40986e-09
0
0
0
0.000112474
0.000127348
0.00010486
0.000118129
1.52215e-05
0.000129764
7.5654e-05
9.34614e-05
4.47907e-05
0.000123196
4.42031e-05
5.57688e-05
0.000121387
5.9679e-05
0.000163632
5.16314e-05
0
1.02487e-09
0
0
0
0
0
5.62112e-11
0
0
2.1665e-10
0
0
0
0
0
0
0
0
4.41637e-11
0
0
0
0
0
0
0
0
0
0
0
0
0
0
0
0
0
0
6.06927e-10
4.98918e-09
0
0
0
0
0
1.39889e-08
0
0
0
0
0
0
0
0
0
0
0
4.86127e-05
4.11518e-05
3.94139e-05
2.59907e-05
3.85127e-05
0
0
0
0
0
3.35927e-08
0
0
0
0
0
0
0
0
0
0
7.64273e-06
1.24082e-05
1.21047e-06
0
0
0
0
0
0
0
0
0
9.42932e-10
2.29967e-08
0
0
0
0
0
0
9.97285e-05
0.000147739
0.000145699
0.000262822
0.000756278
0.000376688
0.000821821
9.68104e-05
0.000115651
0.00056668
0.000190458
0.000214649
0.000329235
0.000159257
0.000143996
0.000208878
0.000223647
0.000217456
0.000228351
0.000519496
0.000243338
0.000144291
0.000141771
0.000115383
0.000175947
9.50502e-05
8.0359e-05
0.000457842
0.000314485
0.000183164
0.000369066
0.000308867
0.000198879
0.000440883
0.00030055
0.0002994
0.000302219
0.000390534
0.000445198
6.82724e-05
0.000151611
0.000198931
0.000203869
3.44743e-05
0.000166477
6.9595e-05
5.73489e-05
0.000101994
9.92674e-05
0.000107059
0.000257117
0.000263425
0.000226253
0.000200762
0.000103931
0.000173533
8.96843e-05
8.5328e-05
7.38844e-05
0.000199316
8.56302e-05
2.74389e-05
0.000112639
0.000104308
0.000234967
4.77349e-05
0.000113227
9.67866e-05
3.47419e-05
0
2.21346e-05
3.53102e-05
0.000188739
0.000201274
0.000153489
0.000195225
0.000177436
0.000241098
0.000243568
0.000236628
0.000280505
0.00017626
0.000199694
0.000224442
0.000226308
0.000235456
0.000207161
0.000235102
0.000255338
0.000258798
0.000231495
0.000206034
0.000203545
0.000229001
0.000195741
0.000254634
0.000201341
0.000302916
0
0
0
0
0
2.1279e-09
4.26734e-09
0
0
0
0
4.26365e-09
2.15398e-09
0
0
0
0
0
0
0
0
1.40963e-05
1.97012e-05
2.55588e-05
1.76225e-05
8.14343e-05
2.20647e-05
9.94341e-06
2.25183e-05
4.09873e-05
1.91382e-05
4.22109e-06
3.99404e-05
4.06968e-05
8.33897e-05
3.79259e-05
5.38346e-05
0.000187621
7.68019e-05
0.000141476
0.000188955
0.000124244
5.48997e-05
0.000121138
3.63137e-05
8.42529e-05
0.000106917
6.2581e-05
8.38406e-05
4.0646e-05
0.000110382
0.000147773
0.000106707
0.000125658
0.000189457
0.000182447
0.000242208
0.000257411
0.000286206
0.000276078
0.000308487
0.000326688
0.000328773
0.000305366
0.000252981
0.000277791
0.000148148
0.000210451
0.000129922
0.000138238
6.04085e-05
0.000186987
0.000100213
0.00024444
0.000282549
0.000118324
0.000238469
9.4856e-05
0
0
3.45805e-09
0
0
0
0
8.89063e-09
0
5.60741e-09
0
0
0
8.89046e-09
8.75696e-09
1.37073e-08
1.37728e-08
1.35573e-08
2.77748e-08
0
0
0
0
0
0
0
0
0
0
0
0
0
0
0
0
4.19673e-09
0
0
0
7.77379e-07
0
0
0
0
0
0
0
0
0
0
0
0
0
0
0
0
0
0
1.52932e-06
0
0
0
0
0
8.72679e-10
2.26271e-10
1.17866e-09
0
0
0
2.12972e-08
0
0
0
0
0
0
0
0
0
0
0
0
0
0
0
0
0
0
0
0
0
0
0
0
0
0
0
0
0
0
0
0
0
0
0
0
0
1.17927e-09
0
3.11698e-10
0
0
7.59237e-12
3.97516e-09
0
0.000314222
0.000295027
0.000212242
0.000208913
0.000157066
0.000245924
0.000259712
0.000210726
0.0002237
0.000276658
0.000267582
0.000274055
0.000232514
0.000301923
0.000418572
0.000198574
0.00023772
0.000212307
0.000217422
8.11283e-05
8.12542e-05
6.88269e-05
8.72901e-05
3.98653e-05
2.53112e-05
0.000100971
1.12072e-05
6.4446e-05
4.13351e-05
3.37084e-05
8.70683e-05
2.47198e-05
4.00327e-05
0
0
0.000108863
6.34497e-05
5.22421e-06
0
0
0
0
0
0
0
0
0
0
0
0
4.96016e-09
0
0
0
0
0
0
5.53658e-05
2.82945e-05
8.84578e-05
8.26985e-05
3.17092e-05
8.34635e-05
8.76795e-05
6.45719e-05
8.22298e-05
0.00011376
6.39955e-05
0.000140459
8.91009e-05
0
0
0
0
0
0
4.70763e-09
5.92309e-09
0
0
1.30636e-09
0
0
0
0
0
0
4.99322e-07
0
0
0
0
0
0
0
0
0
0
1.37939e-08
0
0
0
0
0
0
0
0
0
0
0
0
0
0
0
0
0
0
0
0
0
0
7.45386e-09
0
0
0
0
0
0
0
0
0
0
0
5.42862e-05
4.22695e-05
4.43331e-05
0
0
0
0
0
5.79826e-08
0
0
0
0
0
0
0
0
0
0
0
0
0
0
0
0
0
0
0
0
1.42856e-05
0
0
0
0
2.00204e-09
0
0
0
0
0
0
0
0
0.00107137
0.000247218
0.000286872
0.000289149
0.0010109
0.000270702
0.000200262
0.00012931
0.000170788
0.000102474
9.43994e-05
7.37384e-05
6.4397e-05
0.000194257
0.000161773
0.000167301
0.000263178
0.000206223
0.000277562
0.000268819
0.000103302
0.000269056
6.25266e-05
0.000113364
8.05096e-05
0.000195712
0.000138109
0.000182799
0.000483775
0.000393232
0.000260373
0.000321002
0.000148814
0.000209079
0.000343281
0.000332078
0.000346535
0.000335002
0.000448733
0.000432147
0.000107428
0.000183327
0.000170235
0.000208487
4.50103e-05
3.88109e-05
1.33129e-05
0.000102896
0.000469441
0.000213788
0.000123042
0.000384212
0.000203295
0.000350991
0.000118866
0.00011235
0.000241549
0.000192086
8.82484e-05
6.20804e-05
0.000324692
7.9471e-06
0.000116162
0.00015449
0.00012477
0.000142457
8.34592e-05
6.62734e-05
8.23216e-05
9.00966e-05
2.81302e-05
7.34754e-05
0.000152261
0.000255145
0.000270048
0.000257394
0.000252719
0.000280053
0.000246531
0.00029989
0.000197089
0.000177081
0.000283774
0.000234474
0.000231533
0.000225308
0.000218773
0.000181261
0.000236236
0.000197086
0.000179783
0.000200894
0.000216953
0.000196001
0.000204548
0.000239808
0.000243071
0
0
0
0
0
0
0
0
0
4.86543e-09
0
0
0
0
0
0
4.22674e-09
0
0
0
0
8.85503e-06
1.74422e-05
2.35585e-05
3.35319e-06
7.05792e-05
5.1068e-05
3.02275e-05
0.000135486
4.29765e-05
9.38814e-05
0.000175105
7.08049e-05
0.000117124
0.000183726
5.73526e-05
0.000140759
8.84033e-05
0.000165126
2.47959e-05
0.000138307
0.000162415
0.000100861
9.474e-05
5.79633e-05
6.49472e-05
0.000161588
4.17402e-05
0.000121709
0.000100965
0.000156785
0.000224492
0.000176024
0.000171897
0.000203887
0.000244946
0.000304221
0.000239538
0.000366687
0.000320834
0.000345977
0.000324287
0.000290876
0.000324834
0.000241874
0.000209252
0.000131194
0.000132981
0.000112688
0.000108885
0.000140059
0.000124614
0.00011974
0.000197941
0.000248832
0.000141202
0.000138748
0.000294451
0
0
0
0
0
0
0
0
0
0
0
0
0
0
0
0
0
3.43148e-08
0
0
3.48545e-08
0
0
0
1.28891e-09
0
0
0
0
0
1.07293e-10
0
0
0
0
0
0
0
0
0
0
0
0
0
0
0
2.01731e-09
3.06926e-09
2.78272e-09
0
0
0
0
1.05199e-09
0
0
1.32752e-09
0
0
0
0
2.6743e-09
0
1.92328e-09
0
0
0
0
0
0
0
0
0
0
0
0
0
0
0
0
0
0
0
0
0
0
0
0
0
0
0
0
0
0
0
0
0
0
0
0
0
0
0
0
0
0
0
0
0
0
0
0
0
0
0
0
0
1.01766e-09
0
0
0
3.03969e-09
0
0
0.000242948
0.000328767
0.000241812
0.000289876
0.000283493
0.00025944
0.00012618
0.00024063
0.000238893
0.000232348