/*--------------------------------*- C++ -*----------------------------------*\
  =========                 |
  \\      /  F ield         | OpenFOAM: The Open Source CFD Toolbox
   \\    /   O peration     | Website:  https://openfoam.org
    \\  /    A nd           | Version:  8
     \\/     M anipulation  |
\*---------------------------------------------------------------------------*/
FoamFile
{
    version     2.0;
    format      ascii;
    class       surfaceScalarField;
    location    "13020";
    object      phi;
}
// * * * * * * * * * * * * * * * * * * * * * * * * * * * * * * * * * * * * * //

dimensions      [0 3 -1 0 0 0 0];

internalField   nonuniform List<scalar> 
788991
(
-0.0605135
0.0104261
-0.0510262
-0.0456388
0.00837769
-0.0715466
0.00741904
-0.00402921
-0.0700975
0.0430952
-0.0558308
0.0347966
-0.0090966
-0.0662548
-0.052817
-0.0361427
0.0804134
0.0111607
-0.045626
0.0600652
0.0317136
0.0161658
-0.0551477
0.0332784
-0.0292831
0.0627734
-0.0365563
0.0420772
-0.00342075
0.0545385
0.00349083
0.0392366
0.0667765
-0.00618431
0.0692378
-0.00332181
-0.0278291
-0.04802
-0.0602612
-0.000939885
-0.0511584
0.0494731
0.0261278
-0.0291764
0.0498387
-0.0248531
-0.0343173
0.0183324
-0.0117361
-0.0669432
-0.0393896
0.0320107
-0.017203
0.0250839
0.0275663
0.00376576
-0.0192316
-0.00696893
0.0621057
0.0664372
0.0247497
0.0236473
-0.0302165
-0.0161042
-0.000164448
-0.00325691
-0.00771449
-0.0202362
-0.00804338
0.00551824
-0.0113323
0.0105274
0.0912709
0.0128363
0.0678645
0.0388789
0.0584835
-0.0575347
0.00444463
0.024985
0.0353731
-0.0324567
0.0468684
-0.0498395
0.00318152
-0.0506773
0.0360323
-0.0370256
-0.0478677
-0.00698549
0.0428993
0.00227424
-0.0457872
-0.0491171
-0.00197676
0.0485173
0.0136645
0.0414668
-0.0456546
0.0065986
0.0332826
0.00106671
-0.0239539
-0.0425479
-0.00531991
0.010396
0.00421305
0.0249466
-0.0341688
0.0320791
-0.0196225
-0.0158136
-0.0176233
-0.0462243
-0.0620071
-0.0704909
-0.0543564
-0.0260014
-0.0381029
0.0964445
0.0344102
-0.108385
0.0190132
-0.0135825
-0.0333382
-0.0450864
0.00973688
-0.0207368
0.00114453
0.0380497
0
0
0
0
0
0
0.0573007
-0.0254976
0.0307796
0.00856587
0.0639133
0.0251014
0.0532792
0.060447
0.00654183
-0.0655212
0.0772321
0.00127032
0.0554094
0.0315317
0.000696186
-0.0446809
0.000775856
-0.0159479
0.0461859
0.0124238
-0.0547196
-0.0105706
-0.0311152
0.0230589
-0.0197595
0.031511
-0.0170458
-0.0428502
0.0330391
-0.0282428
0.0315069
-0.0276814
-0.0612099
0.0470262
-0.0235855
0.049448
-0.0265554
-0.068949
-0.0514963
-0.0402538
-0.0608455
-0.0218311
-0.0732878
-0.0456786
-0.032009
0.0559427
-0.0419095
-0.0715544
0.0383848
-0.0296959
0.0452641
-0.0112616
-0.0351325
-0.0403066
-0.0221522
-0.0670778
0.00343814
-0.0353832
0.0535377
-0.0371735
0.0633813
0.029884
-0.0319329
0.0203278
-0.0495192
-0.00900866
0.00782553
-0.0807021
-0.0524899
0.00231629
0.0457671
0.0690592
-0.0472005
-0.0633842
-0.0925007
-0.0218504
-0.0117723
0.0462243
0.0482102
-0.0102922
0.0208549
0.027581
0.0444092
-0.00293595
0.0186789
0.0496352
0.0122649
-0.0296908
0.0221638
0.0116165
-0.0051855
0.00897815
0.00982214
0.012021
-0.0227256
0.00238681
-0.0103674
-0.0984494
-0.0308
0.0316459
-0.0229816
-0.1325
-0.00696638
-0.00237295
0.00171474
-0.021855
-0.0215025
-0.037458
0.0305578
-0.0394516
-0.0743679
-0.045208
-0.0457232
-0.109601
0.0479089
-0.0394553
-0.098135
0.0371741
-0.0105399
-0.080905
0.0380045
0.0133907
-0.0439688
-0.0281843
0.00398666
-0.0432662
0.0484971
-0.0286237
-0.0818845
-0.0415051
-0.0200981
-0.0499987
0.0423865
-0.056265
-0.0429651
-0.0110963
-0.0570526
-0.0922412
0.0476923
-0.0613773
-0.0536525
-0.0500827
-0.0408439
0.036174
-0.0516358
-0.00544172
-0.0317865
0.0264357
-0.00518576
-0.000941557
0.00392748
-0.0270897
0.0245947
-0.0147377
-0.00834728
-0.00741129
0.00328516
-0.0156151
0.0807693
0.013439
0.0130368
0.0140996
0.0314137
0.0170337
-0.00534574
-0.000958172
-0.0151096
-0.000778293
0.00732262
-0.0104695
-0.00320237
0.0221845
0.00779438
-0.0432065
0
0
0.0175355
0
0.0617225
0
0
0
0
0
0
0
0
-0.0519037
-0.0224312
-0.0191801
-0.0453019
-0.013724
-0.032997
-0.0389181
-0.0500986
0.0046034
-0.034025
-0.0418449
-0.0033179
-0.0378785
-0.0382891
-0.00808328
-0.00937108
-0.0400326
-0.0301012
0.0258186
-0.0452909
-0.0609971
0.0401905
-0.0436367
0.0762962
-0.00188483
-0.0167684
0.0162644
0.0322529
-0.0123632
0.0342431
0.0125053
-0.0110912
0.0301814
0
0
0
0
0
0
0
0
-0.0248496
0
0
0.0812521
0.133879
0.0346048
0.0759097
0.0517218
0.0465255
0.083937
0.00108486
-0.0508826
0.0707764
0.0133603
-0.0279552
0.0260747
0.0194526
0.0221249
-0.019749
-0.00460257
-0.0115332
0.0114383
-0.0151629
0.0231118
0.0130969
-0.0128277
-0.0203889
0.012099
-0.0356925
0.0328194
0.0036531
-0.030636
0.0390809
0.0210415
-0.0316074
-0.0282104
0.0541539
0.00477417
0.0311474
-0.0611155
-0.0171435
-0.00267177
0.0579608
-0.00213869
-0.0405879
0.0337841
-0.0210009
-0.0343887
0.019491
-0.0576364
-0.0399624
0.0197799
0.0227745
0.038816
-0.0315309
-0.0306967
0.0504078
-0.0223642
-0.0642315
0.0335269
-0.0638451
0.0460406
0.00226552
0.00936503
0.0428167
-0.0486905
-0.0369785
0
-0.00909476
-0.00358395
0
-0.0171198
-0.0400053
0.0103899
-0.00893175
0.00640095
0.00199258
0.00283178
-0.0304855
0.0126678
0.033258
-0.0331701
0.0106783
0.013666
-0.0128594
0.0295256
0.00893414
-0.00222933
0.0141619
0.0169064
-0.015736
0.00373949
0.0235841
0.034516
-0.0176959
0.0504191
-0.0558363
-0.146687
0.0427448
-0.0404847
-0.00459171
-0.149188
0.0241267
-0.0105554
-0.00694339
-0.0163227
-0.0449487
-0.0523177
-0.0433122
-0.0552592
-0.105515
0.0477003
-0.0372834
-0.0974858
0.0325225
-0.0289644
-0.0903733
-0.0305778
-0.0208057
-0.0646218
0.0317259
-0.0312978
-0.0529127
0.0454408
-0.0239657
-0.0822265
0.0483835
-0.00652028
-0.0315792
-0.0521425
0.00134595
-0.0720172
-0.077653
-0.0781147
-0.00704643
-0.0518066
-0.0826896
-0.0138085
0.0863955
-0.0394016
0.00221222
0.0252393
-0.0678171
0.00707986
-0.0268254
-0.0361797
-0.0797026
-0.0326956
-0.0280757
0.0331977
-0.0236645
0.0132755
-0.0464656
-0.0307994
-0.00575142
-0.0269948
-0.00431014
-0.0347717
-0.0107586
0.02702
-0.0023351
0.0059927
0.00289837
0.00740578
-0.0305467
-0.0209953
0.00326303
0.00571014
-0.0249608
0.0119401
0.00257491
0.00587336
-0.0124382
0.00126215
0.0170216
0.00752372
-0.0613754
0.0209518
-0.0642455
-0.11626
-0.0467947
0.0116876
0.0807797
0.00302145
-0.00257155
0.00384477
0.0106121
0.0116401
0.00547444
-0.00675106
-0.00183127
-0.0282501
0
0
0
-0.00970482
0
0
-0.0158624
0
0
0
0
0
0
0
0
0
0
0
0
0
0
0
0
-0.048726
-0.0386491
0.00423186
-0.0296513
-0.0461383
0.0111494
-0.0384513
-0.0376216
0.0134115
-0.0286674
-0.0331645
0.00497179
-0.0104793
-0.0294213
0.0274672
0.0192224
-0.0278445
-0.0360766
0.0267531
-0.0240833
0.0592074
-0.00842617
-0.0170132
-0.0127337
0.0111908
-0.0188568
0.0153961
0.0191705
-0.0156022
-0.0196188
0.0111511
-0.0142654
-0.0197282
1.57864e-06
0
3.60668e-06
0
0
-3.97182e-06
2.89145e-06
-3.14736e-06
3.61971e-06
3.64837e-07
1.47313e-07
0
0
0
0
0
0
0
0
0
0
0
0
0
0
0
0
0
0
0
0.162814
0
-0.106099
0.0795075
0.25825
-0.0250195
0.0687491
0.0424732
-0.0312452
0.0620978
0.0250825
0.016393
0.0389161
0.0327974
0.00287905
-0.00447761
0.0233289
-0.00295602
-0.0419235
-0.00780289
0.0199504
0.00191405
-0.00970135
-0.0152018
-0.00342927
-0.00752746
0.028558
0.00533216
-0.00580276
-0.0293278
0.00801637
-0.0275089
0.0335033
-0.011858
-0.0197214
0.015537
-0.00661829
0.0116552
-0.0450653
-0.0100477
0.0207232
-0.0318078
-0.0607461
-0.0420398
-0.00170663
-0.0717903
0.0109828
-0.0620769
-0.00914369
0.0141794
0.0338866
0
0.0565488
0
0.0105042
0.0314672
-0.0350919
-0.00311326
0.00178686
0.00303414
0
0
0
0
0
0
0
0.0366096
0.0220667
-0.0660942
0.0185614
-0.0190667
-0.0118984
-0.0344493
0.0466205
0.0454909
-0.00219887
0.0517217
0.00521787
0.0118398
0.0319017
0.0205474
0.00406482
0.00826357
0.022875
-0.0692446
0.00397856
0.0219548
-0.0114121
0.0138661
0.000898522
-0.0203943
0.0217543
0.0127476
-0.0081177
0.0301127
0.0204978
-0.0122281
0.0136929
0.0286557
-0.0279434
-0.00690871
0.0306091
-0.0416688
0.0410113
0.0475701
0.0679406
0.00397091
0.114056
0.116921
-0.235509
0.117706
-0.166122
-0.0552568
-0.0997706
0.0141298
-0.048677
-0.0302749
-0.0372913
-0.0515165
-0.0624961
-0.0325446
-0.0375438
-0.0566295
0.0272779
-0.0299894
-0.057173
0.0335173
-0.0267152
-0.0754341
0.0269656
-0.0388312
-0.0679598
0.0499421
-0.0255375
-0.0817099
0.0476491
-0.0290489
-0.0615796
-0.034381
-0.060619
-0.120858
0.0662971
-0.0323566
-0.0457883
0.0742343
-0.0617457
-0.00679247
-0.0544256
-0.0424871
0.0229736
-0.0681457
-0.0572928
-0.00728086
-0.0614012
-0.0207601
0.0457807
0.0495472
0.0577878
-0.0275922
0.0255074
0.000996573
-0.00321862
-0.0118757
-0.0247158
-0.0298291
4.09386e-06
-0.0271977
-0.0627424
-0.0240449
-0.0271109
-0.0309577
-0.0039038
-0.0413765
-0.0195923
-0.0242701
-0.0273945
-0.00126228
-0.00317815
-0.00543552
-0.00339152
0.0087528
-0.0129705
0.0142631
-0.00685722
-0.00474339
-0.0135022
0.0346979
-0.0247288
-0.0625344
-0.0100665
0.0073517
-0.000635418
-0.0537266
0
0.0597371
-0.00529893
0.0121745
-0.0220742
0.0196331
0.0148984
-0.00648163
-0.0125789
0.00218659
-0.0132489
-0.0122672
-0.0273112
-0.034814
0
0
0
0
0
0
0
0
0
0
0
0
0
0
0
0
0
0
0
0
0
0
0
0
0
0
0
0
0
0
0
0
0
2.29377e-06
0
1.90868e-06
0
-4.01697e-05
-1.78245e-05
-9.23941e-06
2.56656e-05
-1.76788e-06
-5.88655e-05
0
0
-1.50117e-07
0
0
0
0
0
0
0
0
0
0
0
0
0
0
0
0
0
-0.0333033
-0.0501764
-0.0237186
-0.0177961
-0.0564367
0.0356133
-0.0366129
-0.0250873
0.0214182
-0.00829724
-0.0220325
0.00218695
0.0251424
-0.016473
0.0261594
0.0183494
-0.0075349
-0.0362905
-0.00169624
-0.00135659
0.00553032
0.000282738
-0.00524463
0.0168955
0.0122667
-0.00848351
-0.0234091
0.00762462
-0.00857327
0.0124318
0.00869177
0.00434876
-0.00402092
0
4.38943e-05
0
0
0
0
0
0
0
3.56956e-06
0
0
0
0
0
0
0
0
0
0
0
0
0
0
0
0
0
0
0
0
0
0
0
0
0
0
0
0
0
0
0
0
0
0
0
0
0
0
0
0
0.0402297
0.0265828
-0.0178736
0.0647554
0.109905
0.00425109
0.0565893
0.0765905
0.00826466
0.0369878
0.0709734
0.0143486
0.0184187
0.047454
-0.0243786
-0.0275321
0.0353225
0.0303258
-0.0554933
0.0080874
-0.0475418
2.17589e-05
0
0
-4.65169e-05
-2.21888e-06
0
0
2.56972e-05
0
0
0
0
0
0
0
0
0
0
0
0
0
0
0.00793343
0.00394573
-0.00492195
0.0125193
-0.0135401
-0.00293774
0.0143829
-0.0172908
0.0268508
0.044844
-0.010075
-0.00236802
-0.033301
-0.0390261
0.0151876
-0.0121003
-0.0325287
0
-0.0339637
0.0423321
-0.00648995
-0.0167468
0
0.00419062
-0.029148
-0.00170591
0.0500418
-0.0662371
0.0134856
-0.0341707
0
0
0
0.00591097
0
0
0
0
0
0
0
0
0
0
0
0
0
0
0.044742
-0.0388956
0.00388826
0.0518209
-0.0118579
0.0134329
0.0466769
0.00789629
0.00927551
0.0614701
-0.0404085
0.0516197
0.0305254
-0.000402011
-0.00692645
0.0227181
0.0163751
0.0052967
0.0182094
0.0103061
0.0292949
-0.000912264
-0.043504
0.00533658
0.0213065
0.0315986
-0.0657293
0.0747057
0.0249251
0.0078217
-0.0194961
-0.0320957
0.0134884
-0.00255078
-0.0363992
0.026503
0.00340993
-0.000614187
0.0282575
-0.0071128
-0.0249529
0.0236893
0.0239157
0.00660683
0.0164114
0.03289
-0.0151602
0.0298646
0.127378
-0.0196623
-0.026666
-0.0463987
0.076457
-0.00895918
-0.00477265
-0.012509
-0.0994014
0
0
-0.0450251
0.0205451
-0.0341998
-0.0589
0.0158082
-0.0326863
-0.0235823
-0.00962983
-0.0473832
-0.0767081
0.0551316
-0.0470087
-0.0758079
-0.0282454
-0.0161265
-0.0776453
0.0390796
-0.0338602
-0.0831387
-0.0603915
-0.004264
-0.0721927
0.0462189
0.0429151
0.0059611
-0.0418309
0.0367421
-0.0742953
-0.0724601
0.00156868
0.0505832
-0.0461702
-0.0509995
0.00714409
0.0752359
-0.0248683
0.00628387
-0.0723296
-0.0546962
0.00462789
-0.0761395
-0.0274265
-0.0418107
-0.017405
-0.0526887
-0.0476033
-0.0163751
-0.0328792
-0.0431817
-0.024001
-0.031307
-0.0244586
-0.0251717
-0.0221875
-0.0303529
0.0134174
-0.0469834
-0.0120503
0.0298679
-0.0518274
0.0101151
-0.0645788
-0.0855535
0.00351471
-0.0205796
0.0627419
-0.0787937
0.0681716
-0.0775131
0.0123295
-0.0317549
-0.0799075
0.0029967
-0.0861405
-0.0182279
0.0707236
-0.0728219
0.0731185
-0.00713718
-0.0207565
0.0746776
-0.061254
0.0786863
0.00147769
0.00149408
0.0849262
-0.05651
0.0817727
0.0171657
0.023539
-0.0827496
0.0315982
0.0811819
0.068921
0.0326092
0.088761
-0.00319373
0.0882095
0.0999173
0.0527711
0.087342
0.0138279
0.0850704
-0.114047
0.0758444
0.0854091
0.0818676
0.0160923
-0.106696
0.0947238
-0.082337
-0.00278796
0.00395796
-0.00109145
-0.00354282
-0.0183408
0.015451
-0.00822285
-0.00163743
0.0125709
0.0198656
0.00613828
-0.000261559
-0.00754472
0.00308047
-0.0151716
0
-0.00775775
0.00947854
0.0240937
0.00143226
0
0
-0.00590256
0
0.0428219
-0.0518469
-0.0306728
-0.0050529
-0.0607819
-0.0438035
0
-0.0327505
0
0
0
0
0
0
0
0
0
0
0
0
0
0
0
0
0
0
2.54374e-05
7.49042e-05
0
0
0
0
0
0
0
0
0
0
0
0
0
0.000145125
7.25724e-06
0
0
0
0
0
0
0
0
0
0
0
0
-7.5891e-05
0
0
0
0
0
0
0
0
0
0
0
0
0
0
0
0
0
0
-1.2996e-05
1.0129e-06
0
2.10839e-05
4.546e-05
0
4.42386e-08
2.89534e-05
0
0
0
0
0
0
0
0
0
0
0
0
0
0
0
0
0
0
0
0
0
0
0
0
0
0
0
0
0
0
-0.0176958
-0.0529029
0.0368709
-0.00310562
-0.056823
-0.0492151
-0.0179577
-0.0121511
-0.0146128
0.0151891
-0.00864676
-0.00584088
0.0135848
0.00275483
-0.0151658
0.00431297
0.0105623
-0.0118443
-0.00394999
0.000510972
0.0036845
0.0187036
0.0116377
0.000544946
0.00397534
0.00337497
-0.00226977
0.00601381
0.00876732
-0.000943528
0.0213299
-0.0022676
0.00110572
0
0
0
2.33353e-05
3.39675e-05
0.00021106
0
0
0
0
0
0
0.000289524
0
2.31041e-05
0
0
0
0
0
0
0
0
0
0
0
0
0
0
0
0
0
0
4.78902e-05
4.56926e-05
1.77234e-05
0
-4.53007e-05
0
0
0
0
-0.0298245
0
-0.0836216
0.061179
0.0125978
0.00243624
0.0761106
0.0962332
0.039411
0.0509656
0.126507
0.0564397
0.0190609
0.0947192
-0.0446034
-0.00800631
0.0671978
-0.0526267
-0.0446034
0.0470758
0.0566382
-0.0586294
0.0594133
0.0199578
9.36383e-05
0
0
8.57869e-05
0
2.57837e-06
0
-8.31216e-07
0
4.96991e-07
0
-1.09899e-06
8.68405e-09
0
0
0
0
0
0
1.44044e-05
0
0
0
0
0
0
0
0
0
0
0
0
0
0
0
0.00436997
0.0494687
-0.0159282
-0.00352982
0.000416795
0.0180603
0.0154651
0.0118269
0.00666935
-0.0047908
-0.0430255
0.0178219
-0.028622
0.0032855
0
0
-0.000443319
0.000307759
0
0
0
0
0
0
0
0
0
0.0178202
0
0.00707616
-0.0229314
-0.00359059
0.032823
0
0
0
0
0
0
0
0
0
0
0
0
0
0
0
-1.14349e-05
0
-1.18306e-05
0.050842
0.0717057
-0.0395977
0.0371347
0.0302477
0.0028435
0.020392
0.0242748
-0.00917558
0.0268443
0.0580293
-0.0356763
0.0812036
0.0562501
0.0269397
0.0705705
0.0513846
-0.0117592
0.0619402
0.0732777
-0.0263688
0.061573
0.0826732
0.00332792
0.0279119
0.0778312
-0.0433835
-0.0115634
0.0857214
-0.101451
-0.0316621
0.0848086
0.118505
-0.0289884
0.0887817
0.116148
0.0831866
0.0888975
-0.0790191
-0.00491896
0.0907363
0.0869613
-0.016994
-0.103868
-0.0178413
-0.0104768
-0.043249
0.0170237
0.0125428
0.0311425
0.040864
0.0363383
-0.0779178
0.00534687
0.0154532
0.0019695
0.00966916
-0.0386337
0.0669722
0.018349
0
0
-0.0628146
0.0168261
0.0426313
-0.00866513
0.0139252
0.0333996
-0.043111
0.00989348
0.0193882
-0.0200237
-0.0219983
0.0109216
0.00892601
-0.0295464
0
-0.0605063
0
0
-0.478363
0
0
0
0
0
0
0
0
0
-0.0281064
0
-0.0366863
0.0153001
0.00120909
-0.0566226
-0.0174561
0.00526711
-0.0183533
-0.112205
-0.0159661
-0.0538533
-0.0568361
0.0746434
-0.0229001
-0.0819039
-0.0187596
0.0887993
0.00387338
0.0407745
0.00691068
-0.053028
-0.0680081
-0.00432836
-0.0905988
0.0449212
-0.0213939
-0.0885004
-0.0624396
-0.0527157
-0.00774178
-0.0586999
-0.022281
0.0347977
0.05762
-0.0515696
0.0018621
0.0709452
-0.0381722
0.0303308
-0.0722657
0.0329942
-0.00145445
-0.0381396
-0.0208352
-0.0258918
-0.00731529
-0.0357523
-0.0151647
0.0284367
-0.0512612
-0.0535863
-0.0183585
-0.0479663
-0.0431211
-0.0170016
-0.0595111
-0.000696073
0.0493111
-0.0931321
-0.0226438
0.0590997
-0.0658504
-0.0515174
-0.0885128
-0.103251
-0.0401625
-0.0618919
-0.0873875
-0.0362129
0.0648939
-0.0636456
-0.0103767
0.0814203
-0.0495071
0.0293247
0.0835096
-0.0666548
0.0334425
0.0841086
-0.0507997
0.0123215
0.0869592
-0.0220474
0.0268796
0.0789646
-0.000507337
0.061602
-0.0822456
0.00209917
0.081082
0.0745995
-0.000976997
0.0761428
0.0802538
0.0743181
0.0111138
0.0725076
0.0767779
0.0698482
-0.0657938
-0.0155076
0.067965
0.0783685
0.0648792
0.075915
0.0192626
-0.0319087
0
0.0623524
0.0166289
0.0529822
-0.0237282
-0.0348165
0.0403545
0.0435074
-0.020804
0.0104727
0.0127107
0
-0.0131474
0.000641687
0
0
0
0
0.00601142
-0.00888619
0
0
0
-0.0449112
0
0
-0.000231188
-0.000129114
0.00016774
0
3.77946e-07
0
0
0
0
0
0
0
0
0
0
-8.54751e-05
0.00027889
-0.000362805
0
0
0
-1.28625e-05
0
8.48412e-05
0
-2.83262e-05
0
0
0
0
0
0
0
0
-1.71222e-05
0.000252395
0
0
0
0
9.68476e-05
0
0
0
0
0
0
0
0
-1.30833e-07
-8.7248e-07
0
0
0
0
0
0
0
0
0
0
0
0
0
0
0
-2.33353e-05
0
0
0
-1.91594e-05
-2.00657e-05
0
0
0
0
0
0
0
0
0
0
0
0
0
0
0
0
0
0
0
0
0
0
7.42166e-07
0
0
0
0
-0.00634905
-0.0292189
0.0299679
0.00483054
-0.0249355
-0.0379502
0.00449293
0.00167341
-0.00379631
0.00130501
0.00594161
0.0124972
0.00414964
0.0108132
-0.000379236
0.000670258
0.0115897
0.00444553
0.00276984
-0.000721651
-0.00193331
0.00252141
0.00504259
0.00446306
0.00687842
0.00408209
0.00969332
-0.00864886
0.0040094
-0.00176672
0.000931955
0.0104375
-0.00839904
7.38479e-06
0
2.48433e-05
0.000107835
-4.61658e-05
-7.43981e-05
0
0
0
0
0
0
0
0
0
0
0
0
0
0
0
0
0
0
0
0
0
0
0
0
-6.5168e-05
0
0
0
0
0
0
0
0
0
0
0
-0.00180743
0
-0.0311656
0.0792512
-0.0390711
-0.0129598
0.0616993
0.0643146
0.0420753
0.038247
0.107471
-0.0623407
-0.00221127
0.0771046
0.0475215
-0.0359823
0.0592456
0.0663331
-0.0492943
-0.0327223
0.0463031
-0.0197123
0.0362824
-0.0568159
0
0
0
0
0
0
0
0
0
0
3.40142e-07
0
0
0
0
0
0
0
0
-0.00665409
0
0
0
0
0
0
0
0
0
0
0.0114949
0
0.00249909
0
0
0
0
0
0
0
0
0
0
-0.00575995
0
-0.0508035
-0.0273936
0.00568211
-0.021929
-0.0138809
-0.01593
0
-0.0303876
0
-0.000135859
0
0
-0.0113226
0.000468367
0.0270881
0.00579022
0
0
0
0
0
0
-1.45156e-05
-2.22457e-05
3.01141e-06
0
-7.91582e-06
0
-0.0235662
0
0
-0.00921315
0
0
0
3.72312e-07
0
-1.26305e-05
0
0
0
0
0
0
0
0
0
0
0
0
0
0
0.0270908
-0.0044137
0.0651545
-0.0526673
0.0453928
-0.0769078
0.0520779
0.080392
0.038973
0.0368521
-0.0959853
0.0772902
-0.0269466
-0.0400272
0.0423436
0.0794611
-0.00336173
0.072124
0.0779937
-0.0619981
0.0733414
-0.0165974
0.0636463
-0.0579121
0.0675729
0.0832861
-0.0224323
0.0745041
-0.0508427
0.0616158
-0.0880456
0.0799966
-0.0682983
-0.0456123
0.0570705
0.0835073
-0.00832151
0.0794555
0.0869721
-0.00419436
0.0754396
-0.0752504
0.00134065
0.0743381
0.0656008
0.0523891
0.0268904
-0.0736202
0.0521396
0.0259953
-0.0140645
0.0257715
0.0190256
0.0353089
0.00128231
0.0543892
-0.0419463
0.0732865
0.0431307
0.0405717
0.0670701
0.0307412
0.0511153
0.0544799
0.0859477
0.0281233
0.0369008
0.077168
0.0386371
-0.0015415
0.0774011
0.0821555
-0.0209169
0.0890722
0.109093
-0.0188608
0.0959171
0.108903
-0.0108911
0.0919483
0.0960632
0.0876239
-0.0150941
0.108863
0.0930373
-0.0238819
0.100503
0.0609633
0.00334692
-0.0293371
0.0613583
0.0278423
-0.0160068
-0.00654229
0.0257864
0.039211
-0.0192233
0.0475822
-0.0279524
0.0472667
0
-0.0245059
-0.024531
0.00909186
0.0102884
0.0580045
0.0555886
0.000192502
0.0577038
-0.0512134
0.0194393
0.0511237
0.0504129
0.0308698
0.0724229
0.0514677
0.0275155
0.0904853
0.0468683
0.0262246
0.0812254
0.0434439
0.0277221
0.0587079
0.0337021
0.0653197
0.0274865
0.0528825
0.0252008
0
1.53794e-05
2.42177e-05
0
0.00124961
0.0203201
-0.0196547
0.0422584
0.0238958
-0.0783511
0.0139276
-0.0159661
4.03485e-06
-0.0429805
-1.92611e-05
1.93764e-05
-1.06475e-05
-6.62798e-06
0
-4.1994e-05
0
0
0
0
0
0
0
0
0
0
0
0.0171652
0.00649509
-1.40641e-05
-0.0118485
-0.0173693
-0.0548417
-0.000621426
0.016789
-0.0436541
0.0321186
-0.0722154
-0.0138898
-0.0554316
0.00169354
-0.0310715
-0.00205234
-0.0321797
-0.0468253
-0.0710029
-0.0532732
-0.0197763
-0.0627146
0.0508562
0.0371964
0.0243036
0.0325592
0.0355053
-0.0302751
0.0633826
-0.00730082
0.0586382
-0.060225
-0.0214603
0.044437
-0.0560613
-0.00969336
0.0347396
0.0506146
-0.0592445
0.00227878
-0.0709928
0.0132832
-0.0396644
-0.0370052
-0.0581314
-0.0544569
-0.0137339
-0.0752771
-0.0302449
0.0357607
-0.0557327
-0.0530218
4.47265e-05
-0.0635314
-0.053439
0.0120206
-0.103816
-0.0325804
0.0470241
-0.0575954
-0.054186
-0.103283
-0.104522
-0.0436296
-0.0549495
-0.0895342
-0.0493457
0.0575799
-0.0699958
-0.0174352
0.069307
-0.0497175
0.0149861
0.0811251
-0.0584702
0.0224866
-0.0768377
-0.0763087
0.0116769
0.0779788
-0.0504611
-0.00495805
-0.0717031
-0.0164992
0.0230021
-0.0620773
-0.000292958
0.053932
0.0662876
0.00577522
0.0718686
-0.0649079
0.000507873
0.0665731
-0.0590292
-0.0545472
0.0539923
0
-0.0137229
0.0255272
0
0.000867472
0
0
-0.0128756
0
0
0.044711
0
0.00952276
-0.00643837
-0.000953542
0
0
0
0
1.59211e-05
0
7.69114e-05
0
-0.0030219
0
0
8.79548e-05
0
-0.000140905
0
-8.82626e-05
0
1.25588e-05
0
0
0
0
0
0
0
0
3.48322e-05
4.96203e-05
-1.6707e-05
-0.000214551
0
-0.000245828
3.70511e-06
-5.41164e-05
3.29438e-06
0
0
0
0
0
0
0
0
0
0
0
0
-3.99596e-05
0
-0.000105843
0
0
0
0
0
0
0
0
0
0
0.00327828
0.00208043
0
0
0
0
0
0
0
0
0
0
0
0
0
0
0
0
0
0
0
9.59087e-06
-2.63492e-05
-4.01514e-05
0
0
0
-9.31319e-05
-4.21856e-07
0
0
0
0
0
0
0
0
0
0
0
0
0
0
0
0
0
0
0
0
0
0
0
0
0
0
0
9.26764e-06
0
-4.02862e-05
0
0
0
-9.00415e-06
0
1.62664e-05
0.0179588
0.0435817
-0.0564158
-0.0324213
0.040491
-0.0269902
0.050156
0.0343762
0.00496374
-0.00208268
-0.0201744
0.0141144
-0.006314
0.0188129
0.00843893
0.00709427
-7.19014e-05
0.00573167
-0.000792929
-0.0161671
-0.0011669
0.00404592
-0.00485611
0.00190871
0.00395675
-0.00171014
0.000882761
-0.00360656
-0.000307342
-0.00336927
0.00182911
-0.00625653
0.00267679
0.0107068
-0.00501893
-0.0141349
0.0027166
5.17802e-06
0
0
0
0
0
0
0
0
0
0
0
0
0
0
0
0
0
0
0
0
0
0
0
0
0
0
0
0
0
0
0
0
0
0
0
0
0
0
0
0
-0.0231191
0.0139395
0.0250457
0.0474132
-0.0303746
-0.0195705
-0.0279368
-0.0131153
0.0104259
0.0130217
0.0397785
0.0447281
0.0272515
0.00884893
0.0629196
0.0358735
-0.0214225
0.0369148
-0.039551
-0.0307107
0.0295412
0.0472204
-0.0293897
0.0184931
0
0
9.34535e-06
7.36559e-07
0
0
0
0
0
0
0
0
0
0
0
0
0
0
0
0
0
0
0
0
0
0
0
0
0
0
0
0
0
0
0
0
0
0
0
0
0
0
0
0
0
0
0
0
0
0
0
0
0
0
0.0272377
-0.00378717
0.018311
0.00340888
0.0134256
0.00467729
0.0225582
0.0167468
-0.0715712
0.0225344
0
-0.0161739
0
0
0
0
0.0154734
-0.0202037
-0.0114921
0
0
0
0
0
0
0
0
0
0
0
0
0
0
0
0
0
0
0
0
0
0
0
0
0
0
0
0
0
0
0
0
0
0
0
0
-0.022036
0.0424128
0.0535282
-0.0500444
0.0509943
0.0832713
-0.0403111
0.040853
-0.100181
-0.0414373
0.0252629
-0.104643
-0.0173107
0.0732873
-0.0908341
-0.028307
0.07266
0.104042
-0.0241197
0.0694017
-0.0921758
-0.004201
0.06126
-0.061322
-0.00180909
0.0865431
-0.095372
0.0169366
0.0855391
0.0653817
-0.00622598
0.0791311
-0.0821314
0.0716241
0.000259063
-0.112177
0.040732
0.0120117
0.0458638
0.0347768
0.00748294
-0.0398669
-0.0168742
0.0546705
0.0488112
0.0760404
0.0473841
0.0243324
0.0879692
0.0748893
-0.0131293
0.0969257
0.0770374
0.0206347
-0.0689481
0.0606958
0.00248299
0.072594
0.0026777
0.0809303
0.0926236
-0.0116044
0.0912834
0.114272
-0.00832294
0.0949405
0.107987
0.0070365
0.101085
-0.0812553
-0.000904151
0.101134
-0.0858309
0.101163
-0.0140381
-0.10499
0.0785062
-0.0173141
0.0962256
-0.00795812
-0.025535
0.0803085
0.0171461
-0.00385037
0.0392917
0.00417629
-0.0420345
0.0100767
-0.0107915
0.0002047
0.0223972
-0.00431631
-0.110523
0.0191719
0
0.00122859
-0.00827144
0.00118871
-0.00341777
0.0326307
-0.0420715
0.00195389
0.0393918
-0.0427059
0.00438938
0.0426933
0.045794
0.0304084
0.0530549
0.0451062
0.0435642
0.0824876
-0.0467692
0.026496
0.0855871
0.0421645
0.0239071
0.0642906
-0.0227919
0.0316144
0.0462914
0.022167
0.0269193
0.0441236
-0.00840039
0.00958076
0.0476271
0.0150491
0.0367248
0.0410448
0.0557126
0.0588523
0.0265394
-2.40148e-05
3.11871e-05
5.95111e-05
-5.95396e-05
-0.0182268
3.25279e-05
0
-0.0313736
0
0
0
0
-0.000101808
0
0
0
0
0
0
0
0
0
0
0
0
0
0
0
3.70381e-05
3.08597e-05
0
-0.01513
0
0.0207649
0
-0.0252827
-0.0131509
-0.0386068
-0.00619203
0.0422264
-0.00656599
-0.0342333
-0.0302191
-0.0031827
-0.0418654
-0.0271194
-0.0985573
0.0453821
0.0428489
-0.0251537
-0.0289753
0.0459649
0.0142
0.0370166
0.0171471
-0.044967
-0.0653283
0.00816811
-0.0315693
-0.0616132
-0.0610702
0.000397497
0.0853875
-0.038541
0.0461362
0.0697487
-0.0425019
-0.0141822
-0.0507704
-0.0403619
5.47347e-05
0.0760449
-0.0235932
-0.0675478
-0.0493105
-0.0569721
-0.0539554
-0.0179506
-0.0628718
-0.0294763
-0.0373383
-0.0754446
-0.0664732
-0.0131697
-0.0763462
-0.0774895
0.018919
-0.0500224
-0.043798
-0.095316
-0.0817876
0.0183711
-0.0960318
-0.0670197
0.0457994
-0.075242
-0.0347561
0.0637693
-0.0671458
-0.00233537
-0.076451
-0.0639964
-0.00336169
0.0726882
-0.0705131
-0.00340147
-0.0699287
-0.0626598
-0.00379441
0.0578422
-0.0327337
0.000530174
0.0422665
-0.00737952
0.0212178
0.0428898
0.00217682
0.0373045
-0.0457864
0.00209418
0.0424984
-0.0477209
-0.045615
0.0342546
0
0
0
0
0
0
0
0
0
0
0
0
0
0
0
0
0
0
0
0
0
0
-0.000128012
0
0
0
0
0
0
4.096e-07
0
0
0
0
0
0
0
0
-6.66038e-07
3.6344e-06
0
0
2.79027e-05
-2.08638e-05
-2.20956e-05
0
1.22503e-06
0
0
0
0
0
0
0
0
0
0
0
0
0
0
0
0
0
0.00334641
-0.00299116
-6.69875e-05
0
0
0
0
0
0
0
0
0.00319091
0
-0.00191845
0
-0.00409156
0
0
0
0
5.6371e-06
0
-3.03174e-05
0
0
0
0
0
0
0
0
0
9.88248e-05
1.87018e-05
0.000111009
0
2.50711e-06
0
-0.000123878
0.000164102
-0.000176168
0
4.97031e-05
0
0
0
0
9.50324e-06
0
-6.24102e-05
0
-1.38785e-05
-2.2041e-05
0
0
0
0
0
0
0
0
0
0
0
0
0
0
0
0
0
0
0
0
0
-5.29981e-06
0
7.12626e-06
0
0
0
-4.23725e-05
0
0
0
0
0
0
0
0
0.0279977
0.011269
0.0524239
0.0303712
0.0221807
0.0706974
0.0136689
0.00361976
0.0541496
0.0069182
0.0390118
-0.0637464
0.0476786
-0.0287009
0.00418861
0.00446188
-0.00418028
0.00294645
0.00563309
0.0105727
0.0104275
-0.0049777
0.0123213
0.0145549
-0.00614251
-0.00416768
0.00410478
0.00765015
-0.0154527
0.00205982
-0.00751015
0.0103403
0.00336601
-0.00530605
0.00093961
-0.000446419
0.0032505
0.024109
0.00750486
0.00988122
0
0
0
0
0
0
0
0
0
0
0
2.53504e-06
-0.0290108
-0.043931
8.34183e-06
0
0
0
0
0
0
0
-5.79845e-06
0
0
0
0
-3.8015e-07
0
7.44243e-07
0
3.63248e-07
0
0
0
0
0
0
0.00897508
0.00503042
0.0165217
0.00403474
-0.041454
0.000861982
0.0597315
0.00975472
-0.0160839
0.00562625
0.00333846
0.0102324
0.00651026
0.00448676
0.00614077
0.00508926
-0.00103574
0.000206115
-0.0108753
-0.00352971
-0.00517982
-0.00415728
0.00554516
0.000883116
2.56303e-09
0
0
7.44165e-07
0
-7.86441e-06
0
0
0
0
3.23836e-06
0
-1.08999e-05
0
1.41599e-05
0
0
0
0
0
0
0
8.11138e-05
0
1.2964e-05
-5.6338e-05
2.85264e-05
4.01705e-05
0
0
0
0
0
0
0
0
0
0
0
0
0
0
0
0
-2.74982e-05
7.75149e-05
0
0
0
0
0
0
0
0
0
0
0
0
0
0
0
0
0
-2.05206e-05
0
2.56961e-05
0.00232331
0.0196891
-0.00677054
0.00827391
-0.00919988
-0.0121899
0
-0.0844252
-0.0320249
0
0
0
0
1.26951e-05
0
-1.31735e-05
0
7.46587e-06
1.63286e-05
0
0
0
0
0
0
0
0
0
0
2.63609e-05
-1.38993e-05
0
0
0
0
0
0
0
0
0
0
1.8061e-05
1.08159e-05
3.96538e-06
0
3.77609e-05
0
0
0
0
0
0
0
0
0
-7.77408e-06
0
2.76012e-05
-0.0251821
0.0526071
-0.0538405
-0.0570641
0.0259646
-0.0714961
-0.0663851
0.0475318
0.0577343
-0.0469814
0.0695206
0.0804214
0.0206888
0.0265615
0.0393149
0.0404376
0.0227287
0.0140972
-0.00584864
-1.54623e-05
-0.0264864
0.0808941
0.0997135
-0.0265975
0.0731072
0.0935399
-0.00357692
0.070179
0.0670086
-0.0149957
0.0644164
0.0549109
0.0135492
0.0956666
-0.0868325
0.00352379
0.0892061
-0.0888626
-0.0163389
0.0819673
0.104876
0.0573318
-0.053846
-0.105411
0.036394
-0.0128669
0.0481587
0.0162617
-0.0226405
0.0362444
-0.0360264
0.022746
0.0418929
0.0531405
-0.00754566
0.0781958
0.0430342
-0.0407285
-0.101006
0.0803778
-0.0187058
0.103971
0.066209
-0.0236194
-0.0945483
-0.0289197
0.0799966
-0.123648
-0.0170461
0.0901464
-0.116059
0.00676967
0.0972734
0.089321
0.00388083
0.0842563
0.0831395
0.00432992
0.0872053
-0.0547687
0.0836437
-0.00231461
0.0949429
0.0949673
0.00152447
-0.0484463
-0.0386809
-0.0045807
-0.0937094
-0.0306441
-0.0425595
0.0332031
-0.0383418
-0.0661229
0.0107102
-0.0421501
-0.0190683
-0.0425738
-0.0646618
-0.0230047
-0.0201804
0.0106844
0.000878708
-0.0553801
-0.00979876
-0.0136206
0.0162409
0.0369687
0.00107798
0.0184151
-0.0325559
-0.0324049
0.0352901
0.0210742
0.00772595
0.0459818
0.0331921
0.0393936
0.0599875
-0.0394711
0.0390313
0.0700681
0.0281969
0.0238004
0.0690253
0.0286527
0.0280085
0.0392409
0.0176125
0.0401307
0.0464482
-0.00947305
0.046153
0.0546966
-0.00825449
0.0524158
0.0208314
-0.028169
0.0285109
0.0363206
0.00617996
-4.90129e-05
0
0
0
0
0
0
0
0
0
0
0
0
0
0
0
0
0
0
0
0
0
0
0
-8.87464e-06
0
-4.50714e-05
0
-2.40741e-05
0
0
0
0
0.0368753
0
-0.342709
-0.0303961
-0.0520029
-0.0458876
0.114121
-0.0370534
-0.0308784
-0.0471005
-0.0590179
-0.0201025
0.0447945
0.0271325
0.0137109
0.0242559
-0.0209646
0.0448672
0.026432
-0.0139474
0.0496545
0.0582472
0.00103837
-0.0547045
0.0472632
0.00777768
0.0727255
0.113973
-0.012297
0.0542695
-0.086599
-0.0612742
0.0834247
-0.0358327
0.00010131
0.0765767
-0.0354534
0.0424116
-0.0966532
-0.0103323
-0.0506482
-0.0620496
-0.0631876
-0.0575774
-0.0233209
-0.0700737
-0.0501669
-0.046199
-0.0810918
-0.0963433
0.0104485
-0.0939731
-0.102735
0.0067947
-0.105456
-0.0857223
0.0342526
-0.0923374
-0.0570054
0.0591739
-0.0873545
-0.029967
0.0746351
-0.0868294
-0.0234721
0.0738284
-0.0719484
-0.0259357
0.062735
-0.0551994
-0.0113769
-0.0497383
-0.0362529
-0.00194566
0.0295242
-0.0251638
-3.73907e-05
0.0257433
-0.0187518
0.00156497
0.0282096
-0.0092725
0.00726992
-0.0374312
-0.0337001
0.0213282
0
0.0101134
0.00695183
0
0
-6.95708e-07
7.34868e-07
0
0
0
0
0
0
0
0
0
-7.8332e-05
-1.10637e-05
-0.000129193
-0.000137443
-0.000176194
-2.37285e-05
0.000131579
-0.000379199
-0.000379907
0
-0.000199379
9.83168e-05
0
0.0136836
-0.00328468
0
0
0
4.15752e-05
0
2.77297e-05
-1.9932e-06
-1.63638e-05
5.82193e-06
0
6.9675e-06
0
0
0
0
0
0
0
0
0
0
0
-8.24748e-08
2.71715e-08
0
0
0
0
0
0
-0.00746749
0
-0.00792554
0
-0.0208601
0
0
0
0
0
0
0
0
0
0
0
0
0
0
0
0
0
0
0
0
-3.40985e-05
0
0
0
0
0
0
0
0
0
0
0
0
-2.55885e-06
0
0
0
0
0
0
0
0
0
0
0
0
0
-7.46466e-05
0
0
0
0
0
0
0
0
0
0
0
0
0
0
0
0
0
0
0
0
0
0
0
0
0
0
0
0
0
0
0
0
0
0
0
0
0
0
0
0
0
0
0
0
0
0
0
0
0
-9.99655e-07
2.88607e-11
0
0
0
0
0
0
0.0480323
0.0537203
0.00942636
0.0395944
0.0621055
0.0478966
0.0042248
0.00109969
0.0350695
0.0200844
0.0415075
0.0430659
0.00359856
-0.0133782
-0.00650855
0.0692237
0.0166725