/*--------------------------------*- C++ -*----------------------------------*\
  =========                 |
  \\      /  F ield         | OpenFOAM: The Open Source CFD Toolbox
   \\    /   O peration     | Website:  https://openfoam.org
    \\  /    A nd           | Version:  8
     \\/     M anipulation  |
\*---------------------------------------------------------------------------*/
FoamFile
{
    version     2.0;
    format      ascii;
    class       volScalarField;
    location    "16320";
    object      Hclip;
}
// * * * * * * * * * * * * * * * * * * * * * * * * * * * * * * * * * * * * * //

dimensions      [0 1 0 0 0 0 0];

internalField   nonuniform List<scalar> 
526318
(
1.24481
1.19193
1.25565
1.16422
1.23395
1.20925
1.2047
1.14391
1.204
1.08456
1.06018
1.16146
1.1089
1.14467
1.12075
1.14824
1.11103
1.3129
1.20487
1.2705
1.2485
1.22548
0.976611
1.23451
1.0977
0.953773
1.2379
1.23673
1.24389
1.25638
1.2955
1.33026
1.3133
1.18645
1.18436
1.1924
1.1755
1.26188
1.16943
1.15859
1.17844
1.18173
0.845429
0.888586
0.786945
0.835751
0.813221
0.932858
1.1252
1.00789
1.08761
1.11735
1.05988
1.01705
0.508473
0.756084
0.754685
0.553173
1.26769
1.28836
1.31155
1.24968
1.19685
1.34336
1.32307
1.28919
1.26807
1.28466
1.16575
1.17589
1.28009
1.04636
1.11998
1.00362
0.966617
0.954376
1.05909
1.03659
0.977071
0.986322
1.09875
1.09287
1.04333
0.997349
1.00738
1.06819
1.08201
1.06532
1.01552
1.1095
0.996033
0.939066
0.926051
0.878093
0.85961
0.871344
0.861467
0.860591
0.856486
0.868895
0.324707
0.242282
0.31845
0.364514
0.428624
0.20755
0.761637
0.585979
0.899413
0.858894
0.897274
1.02929
1.25033
1.12482
1.24348
1.25676
1.30494
1.30892
1.34206
0.858916
0.860862
0.866098
0.858197
0.818843
0.858011
0.771718
0.813131
0.723717
0.77129
0.720847
0.722002
0.712123
0.684328
0.678942
0.704741
0.651621
0.703555
0.652124
0.672307
0.617848
0.627479
0.644641
0.675059
0.658871
0.617102
0.611813
0.629739
0.615492
0.613254
0.620054
0.633702
0.621152
0.6269
0.627208
0.626951
0.593478
0.626478
0.626155
0.594108
0.552448
0.623677
0.573554
0.630323
1.13317
1.22819
1.16156
1.14089
0.947205
1.01874
0.955727
0.952579
0.940723
0.965567
0.984155
0.9509
0.883439
0.860944
0.8242
0.764109
0.830154
0.865293
0.866427
0.871475
0.756268
0.808359
0.693965
0.704391
0.711994
0.703788
0.705233
0.707958
0.698802
0.699911
0.695742
0.684761
0.664441
0.687434
0.680379
0.651946
0.62891
0.659662
0.640691
0.632294
0.649228
0.64255
0.641816
0.60813
0.629165
0.657514
0.658743
1.12763
1.13088
1.1547
1.10495
1.11578
1.13434
1.10009
0.960941
1.0553
0.778207
0.745542
0.750178
0.877649
1.00601
0.886658
0.912452
0.933705
0.865951
0.852822
0.35844
0.153454
0.492664
0.698529
0.001
0.001
0.0564732
0.187476
0.157972
0.147828
1.32612
1.31462
1.33941
1.35477
1.29365
1.2979
1.2129
1.30725
1.14782
1.08822
1.08908
1.08762
1.1014
1.08872
1.0732
1.07587
0.98932
1.05487
0.870568
0.937559
0.851706
0.869798
0.00100536
0.001
0.0625769
0.001
0.361827
0.2652
0.340055
0.480385
0.857654
0.689017
0.919608
0.918803
1.03049
1.1418
1.25745
1.25203
1.27812
1.27011
1.34358
1.36922
0.841834
0.842594
0.798191
0.772088
0.667323
0.705319
0.632601
0.640792
0.635295
0.630971
0.613947
0.628646
0.549482
0.56868
0.605905
0.64346
0.695244
0.659691
0.622392
0.621639
0.561663
0.552587
0.600802
0.656373
0.582289
0.618393
0.608912
0.581609
0.579661
0.551131
0.543476
0.507512
0.507416
0.509471
0.50295
0.62148
0.655863
0.617945
0.657984
1.02128
0.970115
0.879139
0.971754
0.87294
0.956105
0.954464
0.94385
0.948733
0.955796
0.856094
0.782923
0.70766
0.684624
0.765385
0.708778
0.694833
0.808458
0.698453
0.746693
0.684792
0.685266
0.694324
0.686149
0.700777
0.694637
0.692965
0.700014
0.698911
0.693725
0.703824
0.696113
0.709688
0.704357
0.706118
0.687529
0.700161
0.682974
0.65795
0.657701
0.683355
0.71468
0.711966
0.688687
0.671733
0.696012
0.736973
0.731544
0.743603
0.703767
0.737162
0.756447
0.791982
0.74563
0.753162
0.779258
0.811842
0.932877
0.977574
0.923559
0.997733
0.993625
1.08426
1.00688
0.869251
1.01949
0.896969
0.905709
0.636857
0.588064
0.613617
0.60573
0.719448
0.842298
0.777263
0.840697
0.84766
0.872076
0.844334
0.124906
0.265296
0.414202
0.259112
0.49399
0.37846
0.001
0.00100998
0.001
0.00100962
0.001
0.001
0.001
0.155245
0.0319635
0.0577645
1.34248
1.34881
1.37434
1.36869
1.33995
1.32016
1.24337
1.16144
1.10175
1.08908
1.07325
1.08049
1.06212
1.05726
1.04052
1.03121
0.974798
1.03189
0.95671
0.89454
0.839359
0.796278
0.001
0.00107197
0.00107197
0.001
0.001
0.001
0.001
0.00107197
0.00107197
0.00107197
0.00100999
0.00100984
0.001
0.00100942
0.001
0.001
0.001
0.001
0.001
0.001
0.31875
0.08019
0.402146
0.380918
0.563641
0.421804
0.785216
0.943579
0.958245
1.05443
1.26691
1.16008
1.291
1.27457
1.28755
1.32925
1.36691
1.37223
0.758752
0.760296
0.710212
0.741084
0.680145
0.638469
0.636066
0.631889
0.630169
0.634631
0.589762
0.575545
0.531228
0.54119
0.598364
0.571298
0.543128
0.586268
0.582895
0.598514
0.513862
0.498615
0.518773
0.534399
0.532676
0.486555
0.497043
0.484928
0.493706
0.475626
0.476267
0.780562
0.753701
0.75454
0.754765
0.773332
0.880111
0.838231
0.818391
0.694295
0.74236
0.726334
0.734628
0.629153
0.56367
0.740289
0.871196
0.7554
0.770078
0.734069
0.80899
0.805273
0.861494
0.912037
0.824029
0.81749
0.836022
0.713741
0.693597
0.691141
0.68956
0.607361
0.663796
0.583646
0.536304
0.52172
0.636005
0.63611
0.683774
0.686385
0.685689
0.690983
0.686012
0.694681
0.688644
0.698349
0.691612
0.708117
0.700788
0.704914
0.710663
0.735675
0.71635
0.746137
0.746728
0.701638
0.68229
0.747879
0.730789
0.722967
0.733582
0.717813
0.711702
0.751996
0.735921
0.837466
0.844338
0.797101
0.835352
0.849062
0.814529
0.9048
0.879161
0.94462
0.964318
0.991048
0.906435
0.922928
0.902146
0.867645
0.869094
0.816736
0.913717
0.764409
0.715981
0.789604
0.813817
0.480678
0.533173
0.617572
0.737391
0.770935
0.806039
0.7107
0.6822
0.638636
0.58618
0.001
0.0322323
0.309494
0.09831
0.405826
0.493689
0.001
0.001
0.00100979
0.001
0.001
0.001
0.001
0.001
0.001
0.001
0.001
0.001
0.001
0.001
0.001
0.00101
0.001
0.001
0.001
0.001
0.00119948
0.001
0.001
0.001
0.00119932
0.00119933
0.001
0.001
0.001
0.001
0.001
0.001
0.001
0.001
0.00100959
0.001
0.00100965
0.001
0.001
0.001
1.34485
1.36821
1.38113
1.35966
1.35233
1.27106
1.08025
1.16491
1.05575
1.07896
1.03218
1.03643
1.02832
1.04226
1.02399
1.02019
0.968237
0.926162
0.839989
0.881995
0.7401
0.774825
0.001
0.001
0.001
0.001
0.001
0.001
0.001
0.001
0.00101
0.001
0.001
0.001
0.001
0.001
0.001
0.001
0.001
0.00100737
0.001
0.001
0.001
0.001
0.001
0.001
0.001
0.001
0.00101
0.001
0.001
0.00443537
0.455234
0.235296
0.457123
0.466846
0.757911
0.585994
0.971958
0.921675
0.984727
1.10583
1.19958
1.28211
1.29754
1.28493
1.32589
1.35292
1.34043
1.33899
0.0011469
0.001
0.001
0.001
0.001
0.001
0.001
0.001
0.001
0.001
0.001
0.001
0.001
0.001
0.001
0.00101
0.001
0.737806
0.738036
0.740098
0.698902
0.626015
0.659888
0.590393
0.572684
0.542597
0.534957
0.496564
0.489869
0.522137
0.51674
0.479314
0.516558
0.513526
0.556353
0.533567
0.537796
0.457038
0.429309
0.430014
0.469238
0.485146
0.484713
0.456635
0.458657
0.410635
0.407192
0.368618
0.378021
0.978596
0.945214
0.987445
0.995856
0.944795
0.900741
1.07243
1.09363
1.15731
1.16751
0.709485
0.75373
0.802116
0.888288
0.707947
0.648669
0.691184
0.686614
0.523714
0.577209
0.629951
0.521192
0.742111
0.732615
0.72295
0.742374
0.757966
0.730827
0.748647
0.763653
0.642006
0.637513
0.538284
0.619798
0.612571
0.573093
0.527076
0.544468
0.481302
0.500583
0.49137
0.571062
0.635074
0.567473
0.634457
0.688805
0.687386
0.68626
0.689741
0.686985
0.703427
0.705044
0.718784
0.712103
0.735804
0.727566
0.751352
0.750964
0.755312
0.752956
0.766331
0.757574
0.798889
0.771121
0.737251
0.72992
0.803406
0.76586
0.774553
0.811367
0.856031
0.856571
0.855147
0.856092
0.885605
0.939777
1.00118
1.02121
1.03158
1.00849
1.15395
1.09211
1.22031
1.26114
1.25102
1.2889
1.3447
1.21007
1.29728
1.31945
1.39446
1.44244
1.46804
1.48727
1.51806
1.46113
1.51636
1.47329
1.55233
1.55435
1.60166
1.56991
1.63138
1.66142
1.65355
1.60096
1.66752
1.68976
1.65708
1.65282
1.7201
1.69755
1.72755
1.66684
1.66511
1.7303
1.69951
1.6531
1.65246
1.68449
1.72089
0.707276
0.671614
0.845752
0.826569
0.809808
0.809968
0.782714
0.563233
0.708097
0.408163
0.443377
0.540417
0.520628
0.391632
0.48215
0.464227
0.637311
0.533947
0.5486
0.446731
0.454449
0.462263
0.480247
0.0102013
0.001
0.290363
0.0623234
0.276074
0.228342
0.00101
0.001
0.001
0.001
0.001
0.00172275
0.001
0.001
0.001
0.001
0.001
0.001
0.001
0.001
0.00138084
0.001
0.001
0.001
0.001
0.001
0.001
0.001
0.001
0.001
0.00100829
0.001
0.001
0.001
0.00100928
0.001
0.001
0.00104319
0.001
0.00100665
0.001
0.001
0.00101
0.001
0.00101824
0.001
0.00101789
0.00101761
0.00100234
0.001
0.00101947
0.0010192
0.001
0.001
0.001
0.001
0.001
0.001
0.001
0.001
0.0010078
0.001
0.001
0.001
0.001
0.001
0.001
0.001
0.001
0.00101
0.001
0.001
1.33664
1.31356
1.29489
1.28258
1.19811
1.28192
1.11103
1.04094
1.0266
1.04025
1.02662
1.03324
0.963656
0.970321
0.819568
0.775952
0.740676
0.907135
0.918938
0.855004
0.857393
0.858866
0.001
0.001
0.00116652
0.00116649
0.001
0.001
0.001
0.001
0.00116646
0.001
0.001
0.00100893
0.001
0.001
0.001
0.001
0.001
0.001
0.001
0.001
0.001
0.001
0.00135779
0.00135586
0.111887
0.001
0.293843
0.472565
0.594064
0.457136
0.75137
0.928481
0.958588
0.988793
1.07096
1.18597
1.24128
1.21699
1.25598
1.20884
1.25123
1.28763
1.24145
1.25665
0.00101456
0.001
0.00100993
0.001
0.001
0.00119263
0.001
0.001
0.00119263
0.001
0.001
0.001
0.001
0.001
0.001
0.001
0.001
0.001
0.00101
0.001
0.001
0.001
0.001
0.001
0.00205653
0.00101106
0.70958
0.70997
0.629104
0.649028
0.53133
0.548718
0.483426
0.486786
0.480781
0.485812
0.462561
0.465153
0.4344
0.432479
0.419614
0.456233
0.528116
0.498504
0.527824
0.522617
0.341841
0.372655
0.40902
0.386997
0.40556
0.410364
0.352384
0.347928
0.328057
0.341714
0.352067
0.34233
1.20064
1.20301
1.03022
0.944754
0.932027
0.919032
1.19826
1.11355
1.35646
1.4311
1.32707
1.25363
1.44337
1.42626
1.49201
1.54031
1.57103
1.56975
1.59647
1.56837
1.62593
1.6535
1.64418
1.64915
1.66556
1.65157
1.65568
1.6982
1.64424
1.63561
0.762193
0.688458
0.832575
0.906864
0.689267
0.632601
0.689737
0.686616
0.51341
0.567911
0.404594
0.563605
0.461108
0.733961
0.678702
0.733327
0.727073
0.732759
0.63231
0.527674
0.448917
0.448027
0.453398
0.485971
0.415623
0.396936
0.33337
0.426168
0.50175
0.496766
0.416128
0.516431
0.584038
0.530297
0.636514
0.578998
0.620414
0.675757
0.706988
0.690893
0.72584
0.718794
0.735686
0.726272
0.759074
0.770895
0.770552
0.785103
0.792435
0.792456
0.823825
0.835353
0.827696
0.821613
0.819236
0.814093
0.831204
0.847932
0.892726
0.887578
0.853705
0.888788
0.884713
0.913346
0.945493
1.01303
1.04366
1.04039
1.05388
1.12398
1.20843
1.28086
1.29576
1.42006
1.2951
1.34583
1.49463
1.51717
1.51775
1.55342
1.60305
1.65179
1.66375
1.66597
1.69621
1.72079
1.74724
1.75135
1.74235
1.75429
1.7431
1.73427
1.66744
1.73495
1.69662
1.65405
1.65545
1.68401
1.71622
1.72817
1.654
1.71464
1.67368
0.492981
0.491671
0.561255
0.640598
0.525276
0.594272
0.73312
0.664837
0.693523
0.533988
0.427859
0.399799
0.39531
0.502854
0.489995
0.153593
0.258336
0.434217
0.339361
0.457252
0.436543
0.455107
0.451833
0.460484
0.479775
0.001
0.001
0.001
0.121019
0.1125
0.128111
0.001
0.001
0.001
0.00172264
0.001
0.001
0.001
0.001
0.001
0.00101
0.001
0.00138056
0.001
0.00101
0.001
0.001
0.001
0.001
0.001
0.001
0.0010519
0.001
0.001
0.001
0.001
0.001
0.001
0.001
0.001
0.001
0.001
0.001
0.001
0.001
0.001
0.00101792
0.001
0.001
0.001
0.001
0.001
0.001
0.001
0.00101
0.001
0.00100962
0.001
0.001
0.001
0.001
0.001
0.001
0.001
0.001
1.23316
1.23819
1.22617
1.2371
1.16924
1.22757
1.02406
1.08045
0.994704
0.990899
0.94006
0.923225
0.86119
0.855416
0.777216
0.670784
0.650183
0.817219
0.858556
0.857673
0.86518
0.863558
0.00116663
0.001
0.00116666
0.001
0.001
0.001
0.001
0.001
0.00100548
0.001
0.001
0.001
0.001
0.001
0.001
0.00100999
0.001
0.001
0.001
0.001
0.001
0.001
0.001
0.001
0.0829349
0.278991
0.419205
0.46204
0.656383
0.484728
0.790265
0.932895
0.894856
1.01208
1.17606
1.08806
1.15388
1.15077
1.15055
1.1762
1.24944
1.22915
1.23848
1.21312
0.001
0.001
0.001
0.001
0.001
0.001
0.001
0.001
0.001
0.001
0.001
0.001
0.001
0.001
0.001
0.001
0.001
0.001
0.001
0.00100999
0.001
0.001
0.00193408
0.001
0.00101
0.001
0.001
0.001
0.001
0.001
0.001
0.585405
0.5829
0.551175
0.529934
0.486659
0.512417
0.473192
0.468623
0.631463
0.569891
0.552002
0.40277
0.406703
0.340274
0.34629
0.41212
0.41304
0.410144
0.44741
0.501535
0.459062
0.485502
0.474788
0.371766
0.345728
0.36491
0.383939
0.304639
0.310273
0.31456
0.334323
0.335734
0.328048
0.284125
0.295129
1.77423
1.78437
1.81011
1.78784
1.83121
1.81636
1.83939
1.83287
1.8868
1.87518
1.83968
1.8918
1.85692
1.90945
1.74192
1.69296
1.71559
1.76344
1.74452
1.71362
1.71768
1.76981
1.77534
1.75195
1.73117
1.78423
1.76673
1.77459
1.79973
1.65371
1.65435
1.65579
1.65118
1.67374
1.69526
1.24514
1.19331
1.08942
0.995002
0.907643
0.982782
1.18108
1.16646
1.40293
1.42538
1.31313
1.39402
1.43394
1.48087
1.52838
1.56893
1.56648
1.56948
1.565
1.59588
1.60369
1.63487
1.61944
1.62575
1.62771
1.64208
1.61624
1.62011
0.812511
0.739975
0.683908
0.672154
0.731266
0.907277
0.884739
0.611549
0.666752
0.537772
0.473159
1.75671
1.77912
1.79465
1.80152
1.80903
1.81888
1.82373
1.85047
1.83561
1.85219
1.85301
1.89925
1.92437
1.9441
1.94643
1.94783
1.96268
1.98743
0.438637
0.403673
0.393972
0.64982
0.552337
0.7183
0.623639
0.531498
0.43137
0.449626
0.434292
0.449502
0.290417
0.353521
0.218623
0.239335
0.323478
0.246565
0.509281
0.435409
0.328116
0.527486
0.528448
0.529033
0.583488
0.535028
0.663539
0.61164
0.696971
0.665165
0.700812
0.725728
0.748231
0.774736
0.79694
0.793694
0.804534
0.798574
0.856038
0.845798
0.833873
0.83591
0.887092
0.863023
0.930032
0.887071
0.867559
0.9167
0.956733
0.951359
0.970165
1.0115
1.01207
0.953623
1.06673
1.0904
1.06313
1.05626
1.13744
1.22264
1.29524
1.36297
1.31075
1.32557
1.45349
1.51414
1.55485
1.53648
1.60121
1.63093
1.6723
1.68941
1.68189
1.70256
1.75868
1.73892
1.74485
1.76186
1.74506
1.7563
1.73865
1.75682
1.7508
1.74488
1.74971
0.488232
0.47058
0.492423
0.418747
0.438161
0.454791
0.391165
0.537406
0.441419
0.377588
0.395477
0.372547
0.266509
0.373616
0.396123
0.17375
0.177099
0.135428
0.227741
0.432104
0.356688
0.346502
0.349976
0.148511
0.0221643
0.001
0.001
0.001
0.00113029
0.00113028
0.133895
0.001
0.0835367
0.113855
0.001
0.001
0.001
0.001
0.001
0.001
0.00100984
0.001
0.00113023
0.001
0.001
0.001
0.00101
0.001
0.001
0.001
0.001
0.00239952
0.001
0.001
0.001
0.001
0.001
0.001
0.00100993
0.001
0.001
0.001
0.001
0.001
0.0010107
0.001
0.001
0.001
0.001
0.00101358
0.001
0.001
0.001
0.001
0.001
0.001
0.001
0.001
0.00101
0.001
0.001
0.001
0.001
0.001
0.001
0.001
0.001
0.001
0.001
0.00212143
0.001
0.001
0.001
0.001
0.00212139
1.93857
1.90475
1.88305
1.97991
2.01542
2.0088
1.22255
1.2203
1.2211
1.19519
1.12085
1.19913
1.03063
0.956648
0.875912
0.88746
0.86595
0.862378
0.866139
0.857312
0.735972
0.659127
0.750069
0.821407
0.82664
0.001
0.001
0.001
0.001
0.001
0.001
0.001
0.001
0.001
0.001
0.00100943
0.001
0.001
0.427122
0.451346
0.484388
0.00100998
0.001
0.001
0.001
0.001
0.001
0.001
0.001
0.0835107
0.001
0.254565
0.621404
0.767641
0.882196
0.882463
1.19812
1.09791
1.13338
0.920245
1.01147
1.08864
1.14972
1.16261
1.15384
1.15272
1.20008
1.20245
0.001
0.0011657
0.001
0.001
0.001
0.001
0.00100904
0.001
0.001
0.001
0.001
0.001
0.001
0.001
0.001
0.001
0.001
0.00100504
0.001
0.001
0.001
0.001
0.001
0.001
0.001
0.001
0.001
0.001
0.001
0.001
0.00101
0.001
0.001
0.001
0.001
0.001
0.001
0.586947
0.621366
0.61129
0.553683
0.547787
0.525995
0.547075
0.413165
0.444352
0.349282
0.353562
0.555108
0.544286
0.309327
0.302073
0.308525
0.305196
0.366207
0.338481
0.386994
0.329785
0.451238
0.40237
0.449747
0.457221
0.293022
0.233903
0.271513
0.301247
0.281185
0.278302
0.227954
0.251845
0.247548
0.217347
0.193158
0.196176
1.77547
1.78796
1.81026
1.8329
1.83887
1.84139
1.8753
1.8541
1.70739
1.70533
1.6898
1.71141
1.743
1.70449
1.75193
1.72562
1.64381
1.63097
1.62674
1.65985
1.68791
1.66136
1.24971
1.17398
1.07038
1.15834
1.00689
0.91953
1.17042
1.16936
1.40832
1.41256
1.4264
1.32333
1.40117
1.51381
1.45978
1.40249
1.44679
1.54671
1.56051
1.54519
1.55484
1.56158
1.58689
1.61462
1.6012
1.61625
1.60816
1.62
1.61283
1.61745
1.61416
0.656312
0.660635
0.799119
0.882386
0.659547
0.742015
0.898966
0.915063
0.647962
0.591344
0.501449
0.566611
1.78876
1.74164
1.76704
1.81212
1.8112
1.81443
1.82287
1.84573
1.86878
1.88046
1.87868
1.88228
1.90827
1.94702
1.92702
1.9439
1.9642
2.01066
1.9865
1.81944
1.83072
1.84583
2.01484
2.01722
2.01596
0.391811
0.404992
0.406205
0.3768
0.462423
0.478503
0.289476
0.320751
0.352854
0.248769
0.283233
0.292225
0.208953
0.222065
0.212851
0.220148
0.262106
0.288183
0.386428
0.311449
0.308342
0.454717
0.536313
0.447577
0.601096
0.631283
0.557967
0.606432
0.666357
0.630518
0.759897
0.697459
0.767813
0.787029
0.792899
0.781234
0.834777
0.869715
0.913234
0.909116
0.917265
0.898571
0.92757
0.907607
0.954227
0.964076
0.987446
0.981665
0.960775
0.965911
1.08114
1.13201
1.02747
1.09361
1.13821
1.10445
1.20307
1.251
1.34869
1.38684
1.36594
1.45419
1.51168
1.60798
1.59558
1.65515
1.62682
1.72093
1.72961
1.72083
1.74988
1.77649
1.77749
1.82975
1.79531
1.82006
1.79276
1.7698
1.82752
1.76333
1.78284
1.75797
0.001
0.161568
0.001
0.13581
0.414172
0.390839
0.388596
0.375112
0.387968
0.250463
0.147087
0.153022
0.0353952
0.248515
0.11165
0.137395
0.261965
0.001
0.001
0.001
0.019855
0.0213654
0.001
0.001
0.001
0.00103255
0.001
0.001
0.00113027
0.00113028
0.001
0.001
0.001
0.001
0.001
0.001
0.0010004
0.001
0.001
0.001
0.001
0.001
0.00222943
0.001
0.001
0.001
0.001
0.001
0.00101
0.001
0.001
0.00221357
0.001
0.001
0.001
0.00100982
0.00132682
0.001
0.00100983
0.001
0.001
0.001
0.00101
0.001
0.0010113
0.00101241
0.001
0.001
0.00101294
0.00101259
0.001
0.001
0.001
0.001
0.00163142
0.001
0.0016313
0.001
0.001
0.001
0.001
0.00100984
0.00101
0.00100994
0.001
0.001
0.001
0.001
0.001
0.001
0.001
0.001
0.001
0.001
0.00132677
0.001
0.00100958
0.00100997
0.001
0.001
0.001
0.001
0.00101
1.89695
1.91279
1.91361
1.91288
1.94877
2.05541
2.03263
2.03583
2.05968
1.99664
1.12415
1.11358
1.06486
1.0599
1.01626
1.0413
0.945689
0.913255
0.903403
0.856202
0.839249
0.829124
0.745361
0.754554
0.629343
0.665457
0.664941
0.001
0.001
0.001
0.00101
0.001
0.001
0.001
0.461588
0.600475
0.448101
0.001
0.001
0.001
0.001
0.325512
0.154813
0.00101
0.001
0.001
0.00102134
0.001
0.001
0.001
0.001
0.001
0.995578
1.01751
1.05182
0.736522
0.882315
0.877961
0.915423
1.03126
1.10941
1.06981
0.981014
1.06011
1.08084
1.08664
1.01585
1.03855
0.001
0.001
0.00116574
0.00101
0.001
0.001
0.00101
0.00117397
0.001
0.001
0.001
0.001
0.001
0.001
0.001
0.00102981
0.001
0.00102991
0.00102983
0.00101
0.001
0.001
0.001
0.001
0.001
0.00100577
0.001
0.001
0.001
0.001
0.00109969
0.001
0.00100563
0.001
0.001
0.001
0.001
0.001
0.001
0.001
0.001
0.001
0.001
0.001
0.00102986
0.60671
0.618078
0.623784
0.493861
0.510408
0.47385
0.471671
0.39588
0.390041
0.293753
0.304604
0.293872
0.302284
0.406167
0.397875
0.251725
0.246769
0.216738
0.189986
0.295184
0.2786
0.317762
0.375713
0.450304
0.40472
0.474904
0.422434
0.228877
0.196797
0.267263
0.288695
0.15933
0.154612
0.131727
0.160323
0.195124
0.180411
0.189005
0.198986
1.77982
1.73251
1.81052
1.774
1.77896
1.82648
1.81716
1.86702
1.85128
1.89468
1.85956
1.82524
1.89301
1.85484
1.67172
1.67488
1.66261
1.67615
1.68943
1.70311
1.70102
1.70804
1.61795
1.61855
1.64242
1.62676
1.65467
1.65979
1.25161
1.17499
1.09488
1.16994
0.967997
1.05923
1.17116
1.17554
1.39939
1.40198
1.40275
1.32978
1.48797
1.5375
1.44933
1.39872
1.54384
1.54019
1.55713
1.54168
1.5738
1.60171
1.61293
1.60893
1.61591
1.61241
1.61787
1.61827
1.61899
1.60818
0.654493
0.649856
0.817791
0.896846
0.797787
0.715866
0.953099
0.895069
0.624386
0.648504
0.618357
0.533661
1.77224
1.81942
1.81445
1.82851
1.85579
1.84052
1.87598
1.89005
1.86412
1.88017
1.86841
1.87727
1.88515
1.90462
1.93098
1.94369
1.94725
1.99913
1.97314
2.02586
2.03022
1.90192
1.91396
2.03221
2.04197
0.144138
0.284669
0.169723
0.272691
0.198229
0.172289
0.12199
0.0939592
0.112565
0.158231
0.0465144
0.106136
0.103842
0.001
0.0530458
0.197549
0.319741
0.228582
0.319787
0.319891
0.304662
0.387222
0.532889
0.430863
0.622202
0.619493
0.58862
0.533922
0.656263
0.70218
0.75999
0.743441
0.769528
0.754558
0.874329
0.824487
0.930428
0.911732
0.946779
0.942221
0.930215
0.980353
1.02456
0.994149
0.984539
1.00784
1.05953
1.04715
1.02659
1.07198
1.15356
1.15519
1.14883
1.16886
1.29899
1.21273
1.3836
1.41169
1.40922
1.48059
1.55242
1.63395
1.63717
1.65208
1.69733
1.74466
1.77942
1.78198
1.81805
1.78917
1.8412
1.85983
1.85543
1.85921
1.85774
1.85174
1.84476
1.85545
1.82646
0.001
0.001
0.00749603
0.001
0.001
0.0780464
0.001
0.276182
0.137308
0.146511
0.00966013
0.00915263
0.00650085
0.00977316
0.00594932
0.00320003
0.001
0.00561626
0.00410702
0.00706165
0.001
0.001
0.001
0.001
0.001
0.00102856
0.00103036
0.001
0.001
0.00100217
0.001
0.001
0.001
0.001
0.00101
0.00182299
0.001
0.001
0.00100986
0.001
0.001
0.001
0.00188019
0.001
0.001
0.001
0.001
0.001
0.001
0.001
0.001
0.001
0.00100941
0.001
0.001
0.001
0.00100992
0.001
0.001
0.001
0.00101
0.001
0.001
0.001
0.001
0.001
0.001
0.0010008
0.001
0.001
0.001
0.00100949
0.001
0.001
0.001
0.001
0.001
0.001
0.001
0.001
0.001
0.001
0.00101
0.001
0.001
0.001
0.001
0.001
0.001
0.001
0.001
0.001
0.001
0.001
0.001
0.001
0.001
0.001
0.001
0.001
0.001
0.001
0.001
0.001
0.001
0.001
0.001
0.001
0.001
0.001
0.001
0.001
0.00106341
0.001
0.001
0.001
0.001
2.0873
2.07441
2.09193
2.08269
2.0943
2.09247
1.9285
1.9309
1.99644
1.96231
2.06164
2.08428
2.05846
1.94102
1.88614
0.988666
0.985401
0.987652
0.9715
1.00592
0.939671
0.951539
0.750525
0.818512
0.68065
0.671265
0.61689
0.627051
0.624456
0.001
0.001
0.001
0.001
0.438668
0.627307
0.451182
0.001
0.001
0.409901
0.303499
0.001
0.001
0.001
0.001
0.001
0.144637
0.00104031
0.00104129
0.001
0.001
0.001
0.001
0.001
0.989546
0.991887
0.999811
0.978192
0.993942
0.708141
0.823746
0.767282
0.8874
0.950547
0.992947
0.899681
0.991446
0.93202
0.942971
0.920167
0.001
0.00108836
0.001
0.001
0.001
0.001
0.001
0.00101452
0.001
0.001
0.00101246
0.001
0.001
0.001
0.0010198
0.001
0.001
0.001
0.001
0.001
0.001
0.001
0.001
0.001
0.001
0.00100955
0.001
0.001
0.001
0.001
0.001
0.001
0.001
0.001
0.001
0.001
0.00109915
0.001
0.00109942
0.001
0.001
0.001
0.001
0.001
0.00100037
0.001
0.001
0.001
0.001
0.001
0.00101
0.001
0.001
0.001
0.001
0.001
0.001
0.600227
0.530325
0.524054
0.448205
0.446524
0.357965
0.352496
0.333839
0.332451
0.326337
0.327486
0.270161
0.285587
0.193932
0.187608
0.337229
0.348253
0.126181
0.116195
0.122593
0.133498
0.403363
0.469529
0.385724
0.284588
0.265409
0.354864
0.27695
0.349754
0.194399
0.165529
0.226435
0.19234
0.13155
0.134445
0.128803
0.14687
0.147205
0.123232
0.103775
0.096238
1.74757
1.72779
1.7495
1.74907
1.75396
1.76948
1.78132
1.81538
1.8104
1.81952
1.90016
1.85717
1.81424
1.66236
1.66129
1.68787
1.6728
1.70163
1.70035
1.72668
1.70919
1.61623
1.62457
1.645
1.63051
1.64286
1.65295
1.29011
1.21327
1.13721
1.17141
1.12024
1.02761
1.20645
1.17408
1.40429
1.40712
1.36645
1.40921
1.49582
1.54781
1.40792
1.4541
1.54381
1.54349
1.56636
1.5475
1.59054
1.60855
1.59862
1.61012
1.61368
1.60482
1.61298
1.61682
1.61265
1.6081
0.64897
0.707062
0.898218
0.873246
0.796318
0.879051
0.897784
0.974611
0.639487
0.636789
0.628327
0.547426
0.381886
0.425528
0.510316
1.8456
1.86431
1.88525
1.88893
1.90165
1.91593
1.91691
1.91973
1.95365
1.93056
1.94477
1.9129
1.94369
1.95158
1.97841
1.99372
2.00744
2.00703
2.05777
2.06088
2.08282
2.06208
1.97348
1.97842
2.09698
2.09349
0.001
0.001
0.001
0.0886295
0.0164709
0.0880239
0.0914832
0.081724
0.0138074
0.001
0.001
0.00190447
0.001
0.001
0.135503
0.0380494
0.0177244
0.218668
0.369555
0.326036
0.188147
0.419854
0.46242
0.482527
0.466284
0.567245
0.638072
0.520513
0.741745
0.678967
0.74833
0.755269
0.844054
0.780711
0.906989
0.933982
0.927506
0.94328
1.05702
1.03092
1.00151
1.05299
1.07147
1.06835
1.06425
1.05414
1.06961
1.07043
1.15013
1.19296
1.22926
1.18594
1.22909
1.25684
1.39581
1.32843
1.42138
1.41082
1.49003
1.56827
1.65339
1.65128
1.68485
1.72404
1.79761
1.78641
1.80948
1.81361
1.83838
1.85238
1.86602
1.86275
1.87007
1.87316
1.8592
1.86771
1.85715
1.86164
0.001
0.001
0.00101
0.001
0.001
0.001
0.001
0.001
0.001
0.00795797
0.0168123
0.001
0.001
0.00634145
0.00667382
0.00422279
0.00241825
0.0021807
0.00140598
0.001
0.001
0.00100982
0.001
0.001
0.001
0.00100179
0.001
0.001
0.001
0.001
0.001
0.00101
0.001
0.001
0.00100863
0.00170683
0.001
0.001
0.001
0.00383456
0.001
0.001
0.001
0.00100938
0.001
0.001
0.001
0.00100983
0.001
0.001
0.00100647
0.001
0.00100976
0.001
0.001
0.001
0.001
0.001
0.00341107
0.001
0.001
0.001
0.001
0.001
0.00127529
0.00127521
0.00127523
0.001
0.001
0.001
0.001
0.001
0.001
0.001
0.001
0.001
0.001
0.001
0.001
0.001
0.001
0.001
0.001
0.001
0.001
0.001
0.001
0.001
0.001
0.001
0.001
0.001
0.001
0.001
0.001
0.001
0.001
0.001
0.001
0.001
0.001
0.001
0.001
0.001
0.001
0.001
0.00101
0.001
0.00150297
0.001
0.00109434
0.001
0.00108492
0.001
0.001
0.001
2.10621
2.1271
2.1369
2.09526
2.09795
2.08412
2.09302
1.97872
1.99755
2.01609
2.03015
2.03476
2.06906
2.09208
1.94159
1.96905
1.88942
1.9234
1.9176
0.97741
1.00614
0.887125
0.855719
0.957716
0.870744
0.900805
0.763323
0.785543
0.653214
0.62286
0.627125
0.621776
0.600582
0.001
0.001
0.542256
0.653471
0.435729
0.001
0.001
0.388537
0.379462
0.001
0.001
0.121884
0.251579
0.001
0.001
0.001
0.001
0.00100711
0.001
0.001
0.00103278
0.001
0.001
0.001
0.9545
0.995132
0.983539
0.938805
0.713735
0.71321
0.735374
0.808853
0.912108
0.924665
0.874971
0.925155
0.92681
0.00100999
0.001
0.001
0.001
0.001
0.001
0.00113839
0.00113915
0.001
0.001
0.00101
0.00100946
0.001
0.001
0.00100846
0.001
0.0010099
0.00380183
0.001
0.001
0.001
0.001
0.001
0.001
0.001
0.00109952
0.001
0.001
0.00102042
0.001
0.001
0.001
0.001
0.001
0.001
0.001
0.001
0.001
0.001
0.001
0.001
0.001
0.001
0.001
0.001
0.001
0.001
0.001
0.001
0.001
0.001
0.00205484
0.001
0.001
0.001
0.001
0.001
0.001
0.001
0.001
0.001
0.001
0.001
0.518493
0.442277
0.428251
0.372563
0.381373
0.348789
0.372661
0.333387
0.375151
0.303274
0.313086
0.207011
0.223098
0.131695
0.137559
0.11462
0.10975
0.257414
0.228655
0.11635
0.112099
0.111824
0.100606
0.338562
0.371873
0.21373
0.190815
0.264513
0.376831
0.433042
0.387004
0.1154
0.0723408
0.14158
0.169987
0.0650627
0.0434877
0.0368328
0.00976588
0.0392387
0.0139278
0.0411217
0.0613398
1.74245
1.73969
1.76092
1.76364
1.75739
1.77938
1.80384
1.78244
1.80008
1.85483
1.80501
1.88599
1.85122
1.92056
1.64484
1.66461
1.65959
1.68358
1.66333
1.68856
1.72135
1.68155
1.61511
1.62457
1.63218
1.6321
1.6266
1.63241
1.34387
1.26662
1.1565
1.17208
1.07754
1.16833
1.18084
1.23402
1.41378
1.41079
1.41107
1.39162
1.50026
1.55074
1.46903
1.42614
1.5531
1.55048
1.5509
1.57143
1.59763
1.60372
1.60298
1.61973
1.60546
1.61784
1.60525
1.60267
1.61622
1.62549
0.728257
0.637646
0.905951
0.907821
0.820827
0.912466
0.909072
1.00997
0.630949
0.62777
0.607668
0.589821
0.52898
0.62589
1.87176
1.89086
1.91016
1.94705
1.93781
1.9608
1.97319
1.98277
1.99095
1.97679
1.98672
2.00585
2.02894
2.04086
2.03852
2.04963
2.07231
2.09132
2.10462
2.10179
2.11546
1.98733
1.97982
2.13378
2.15345
0.001
0.001
0.001
0.001
0.001
0.0406669
0.001
0.001
0.001
0.00192922
0.001
0.001
0.00494949
0.001
0.0281894
0.0308725
0.0301349
0.0980943
0.15877
0.344613
0.255604
0.406556
0.498247
0.496765
0.41246
0.560892
0.576051
0.659333
0.723287
0.690552
0.768735
0.706963
0.902697
0.828961
0.940658
0.935015
0.957251
1.00904
1.14457
1.14468
1.09324
1.11813
1.14713
1.09533
1.20426
1.12892
1.10548
1.14582
1.27458
1.28686
1.34985
1.40141
1.28653
1.3763
1.52142
1.47028
1.54264
1.50981
1.70795
1.67095
1.73949
1.75395
1.82462
1.83697
1.8953
1.86211
1.90793
1.8927
1.91177
1.94176
1.91661
1.94378
1.95247
1.91442
1.90399
1.94291
1.94035
1.91482
0.001
0.001
0.00101
0.001
0.001
0.001
0.001
0.001
0.001
0.00107485
0.001
0.001
0.001
0.001
0.001
0.001
0.001
0.00114447
0.001
0.001
0.00108853
0.00100996
0.001
0.001
0.00118307
0.001
0.001
0.001
0.001
0.001
0.00145599
0.00100993
0.001
0.001
0.001
0.001
0.001
0.001
0.001
0.001
0.001
0.001
0.001
0.001
0.001
0.001
0.00101189
0.00101191
0.001012
0.001
0.001
0.001
0.001
0.00123227
0.001
0.001
0.0012322
0.001
0.001
0.001
0.00100996
0.0015029
0.001
0.00118893
0.001
0.001
0.001
0.001
0.00101
0.001
0.001
0.001
0.001
0.001
0.001
0.001
0.001
0.001
0.001
0.001
0.001
0.001
0.001
0.001
0.001
0.001
0.001
0.001
0.001
0.001
0.001
0.001
0.001
0.001
0.001
0.001
0.001
0.001
0.001
0.001
0.001
0.001
0.001
0.001
0.001
0.001
0.001
0.001
0.001
0.001
0.001
0.001
0.001
0.001
0.001
0.001
0.001
0.00109434
0.001
0.001
0.001
0.00118894
0.001
0.001
2.1576
2.14411
2.15831
2.13223
2.1212
2.14809
2.13185
2.11189
2.12989
1.99216
2.01635
2.01201
2.01479
2.08775
2.13724
2.15127
2.04936
1.92406
1.95695
1.93018
1.929
1.92017
1.96223
1.85156
0.752822
0.843126
0.759919
0.78897
0.808399
0.706485
0.698998
0.708276
0.704627
0.707597
0.676993
0.600038
0.574638
0.49062
0.490736
0.601839
0.711578
0.001
0.001
0.378484
0.381017
0.001
0.00100999
0.310295
0.189474
0.00100155
0.001
0.0570601
0.001
0.001
0.001
0.001
0.0010576
0.001
0.00102787
0.001
0.001
0.852021
0.786093
0.76098
0.848764
0.712969
0.736861
0.878655
0.802507
0.852104
0.925212
0.915567
0.00109835
0.001
0.001
0.00114929
0.001
0.001
0.00113885
0.001
0.001
0.001
0.00100995
0.001
0.001
0.001
0.001
0.001
0.00380442
0.00380056
0.001
0.001
0.00380303
0.001
0.00205487
0.001
0.001
0.001
0.001
0.00361961
0.001
0.00102047
0.00374544
0.001
0.001
0.001
0.001
0.001
0.001
0.001
0.001
0.001
0.001
0.001
0.001
0.00101
0.001
0.001
0.001
0.001
0.001
0.0011098
0.001
0.001
0.001
0.00101
0.001
0.001
0.001
0.001
0.001
0.001
0.001
0.001
0.001
0.001
0.001
0.001
0.001
0.001
0.001
0.001
0.001
0.001
0.001
0.375814
0.372979
0.408995
0.369132
0.381515
0.382103
0.376425
0.188939
0.192597
0.278262
0.298797
0.155279
0.160385
0.114244
0.11508
0.111869
0.110794
0.0809779
0.0820031
0.116313
0.111079
0.0294686
0.0138465
0.001
0.001