/*--------------------------------*- C++ -*----------------------------------*\
  =========                 |
  \\      /  F ield         | OpenFOAM: The Open Source CFD Toolbox
   \\    /   O peration     | Website:  https://openfoam.org
    \\  /    A nd           | Version:  8
     \\/     M anipulation  |
\*---------------------------------------------------------------------------*/
FoamFile
{
    version     2.0;
    format      ascii;
    class       volScalarField;
    location    "5280";
    object      H;
}
// * * * * * * * * * * * * * * * * * * * * * * * * * * * * * * * * * * * * * //

dimensions      [0 1 0 0 0 0 0];

internalField   nonuniform List<scalar> 
526318
(
0.769782
0.733029
0.804564
0.714814
0.787083
0.743719
0.749584
0.665523
0.738389
0.600407
0.598007
0.714601
0.659131
0.696257
0.66072
0.688995
0.656458
0.856759
0.76834
0.813879
0.807636
0.759583
0.516666
0.751704
0.650935
0.519236
0.786742
0.780029
0.78626
0.794292
0.830316
0.876528
0.854961
0.73628
0.741259
0.706166
0.715038
0.800948
0.729897
0.678097
0.737617
0.712156
0.374241
0.432801
0.33327
0.389206
0.36147
0.470639
0.655733
0.563108
0.647863
0.642618
0.600715
0.552735
0.0636599
0.308873
0.315337
0.0651733
0.814028
0.825835
0.846216
0.798826
0.744723
0.871382
0.868381
0.824844
0.814651
0.813445
0.716782
0.709585
0.823413
0.602968
0.658303
0.547096
0.50421
0.494645
0.592984
0.590006
0.504265
0.541065
0.625296
0.622997
0.578084
0.536029
0.564105
0.63103
0.629939
0.604814
0.554265
0.631651
0.533983
0.481825
0.479194
0.410498
0.406989
0.409524
0.410609
0.406679
0.40304
0.401178
7.97638e-05
2.15653e-06
0.00100019
1.25087e-06
0.000750891
0.000148343
0.309687
0.122248
0.443834
0.39954
0.444574
0.555153
0.778549
0.676092
0.783925
0.804017
0.865919
0.831833
0.881688
0.401339
0.398217
0.405425
0.407109
0.360457
0.401878
0.315118
0.354772
0.264353
0.317185
0.263493
0.26394
0.257709
0.230956
0.223808
0.248565
0.192896
0.246606
0.194632
0.213516
0.16069
0.163324
0.18382
0.212476
0.198582
0.160485
0.155294
0.170064
0.157197
0.154423
0.161417
0.175046
0.161229
0.166585
0.168045
0.169785
0.134209
0.172491
0.169695
0.134596
0.0963968
0.169668
0.112535
0.177134
0.670434
0.760819
0.707971
0.690878
0.496461
0.56354
0.493951
0.494114
0.497679
0.492553
0.514122
0.496591
0.430288
0.397053
0.36527
0.310955
0.366561
0.412918
0.409526
0.412978
0.299318
0.346923
0.233364
0.247847
0.255863
0.24483
0.249222
0.25005
0.237834
0.237296
0.235773
0.22327
0.209889
0.229354
0.223275
0.194779
0.170891
0.200357
0.18225
0.175973
0.197428
0.186432
0.191201
0.147296
0.168621
0.198661
0.198403
0.654776
0.667463
0.69424
0.672485
0.65397
0.65255
0.650982
0.526485
0.569002
0.316717
0.293021
0.305868
0.409424
0.554334
0.429495
0.45954
0.472366
0.41401
0.387057
0.0011605
1.15005e-15
0.0358952
0.248806
0.00027704
9.76159e-09
0.000995694
0.000255125
0.000396609
0.000963311
0.863028
0.845612
0.891884
0.888564
0.854444
0.846376
0.753856
0.842951
0.685373
0.630046
0.628808
0.631049
0.631455
0.630695
0.61591
0.620523
0.532241
0.602341
0.41465
0.471903
0.400766
0.411964
0.00100536
4.55059e-11
0.000154997
0.00100202
0.000103589
0.000987509
2.40501e-19
0.0316812
0.417376
0.219416
0.465979
0.455572
0.569368
0.671732
0.794868
0.799607
0.841176
0.809556
0.874362
0.913887
0.379779
0.379133
0.341676
0.309976
0.21333
0.248959
0.173162
0.181812
0.170619
0.167428
0.158698
0.165544
0.0900756
0.118067
0.142273
0.189178
0.243508
0.207435
0.173019
0.16795
0.0973283
0.0860582
0.135602
0.196248
0.115293
0.166107
0.160357
0.12533
0.122157
0.0917413
0.0889201
0.048963
0.048297
0.056637
0.040032
0.156115
0.201534
0.159948
0.203106
0.563034
0.527418
0.424866
0.515292
0.431417
0.485481
0.493752
0.483906
0.492886
0.496453
0.406227
0.317314
0.249985
0.23016
0.312365
0.248738
0.235153
0.348315
0.232587
0.288707
0.225001
0.224558
0.2351
0.227799
0.24102
0.235674
0.233074
0.234012
0.232905
0.233112
0.244482
0.241321
0.252673
0.253571
0.252052
0.232419
0.246315
0.229906
0.20324
0.206411
0.231114
0.261468
0.254472
0.223218
0.21302
0.2404
0.280804
0.285684
0.291399
0.246735
0.285333
0.303437
0.334948
0.296027
0.295941
0.318501
0.339896
0.471483
0.547388
0.470141
0.508254
0.573959
0.638741
0.555813
0.415791
0.533172
0.426567
0.446075
0.166162
0.132973
0.160471
0.150276
0.261881
0.389881
0.317446
0.390683
0.389915
0.40842
0.386968
6.70977e-09
0.000888028
0.00104706
2.06374e-05
0.0357577
0.000967457
0.000599399
0.00100998
0.000160582
0.00100962
0.000664765
0.00100889
0.000730728
0.000955715
0.000582482
0.000952703
0.886845
0.879923
0.912051
0.907413
0.883844
0.853649
0.782679
0.694979
0.629917
0.639759
0.620118
0.618077
0.599847
0.600487
0.579449
0.578684
0.529117
0.570607
0.493457
0.437807
0.379713
0.342337
0.000976366
0.00110655
0.00110662
0.000663073
0.000410089
0.000731205
0.000576392
0.000626679
0.00110654
0.00110651
0.000818351
0.00100984
0.00069923
0.00100942
0.00126876
0.00017911
0.0002947
0.000487392
0.000977135
0.00096135
7.31626e-08
0.000978536
0.000793614
1.85613e-05
0.116801
0.000157428
0.319474
0.492105
0.495279
0.595515
0.810147
0.702432
0.82322
0.825818
0.834053
0.871272
0.894598
0.91986
0.297512
0.296399
0.251668
0.277687
0.218565
0.183806
0.171279
0.170476
0.168691
0.170499
0.121484
0.118213
0.0699663
0.079957
0.145289
0.113645
0.0811906
0.125856
0.117544
0.142694
0.050623
0.0398117
0.0640296
0.0700106
0.0771161
0.0325197
0.0373405
0.0323274
0.0393157
0.0225459
0.0205735
0.31309
0.298887
0.295166
0.298552
0.315403
0.424429
0.375779
0.355743
0.243264
0.281245
0.274211
0.270609
0.178058
0.105098
0.287356
0.40553
0.290321
0.296174
0.274987
0.361922
0.33452
0.411898
0.442681
0.370226
0.350427
0.384898
0.257341
0.234271
0.229233
0.233393
0.149573
0.199267
0.128834
0.0765752
0.0620203
0.181195
0.17654
0.22841
0.226373
0.228172
0.229055
0.226366
0.232787
0.227564
0.24039
0.234701
0.252015
0.244763
0.254607
0.255018
0.278949
0.262808
0.288524
0.289126
0.243088
0.226243
0.290534
0.269723
0.261889
0.278222
0.256431
0.2426
0.29207
0.273834
0.379745
0.389514
0.3467
0.379041
0.385746
0.347518
0.445527
0.428433
0.491502
0.508968
0.539993
0.442731
0.443819
0.448785
0.413058
0.386766
0.360751
0.450201
0.302411
0.281455
0.327816
0.346551
0.0310029
0.0802338
0.15921
0.28197
0.321695
0.347646
0.255505
0.220851
0.176426
0.122635
0.000965631
0.000310861
2.92004e-06
1.84795e-07
0.000999263
0.0250185
0.000993891
0.000234006
0.00100979
0.000545241
0.00024476
0.000470015
0.000926911
0.000208943
0.000839195
0.000986846
0.000766556
0.000551352
0.000138864
0.000388285
0.00097475
0.00101
0.000134211
0.00100053
0.000975509
0.000380307
0.00118678
0.000967069
0.000994473
0.00118679
0.00118679
0.00118679
0.000889315
0.000999494
0.0009727
0.000201819
9.59135e-05
0.000989075
0.000892979
0.0009482
0.00100959
0.000881287
0.0010078
0.00100281
2.68833e-05
0.000989557
0.88469
0.892853
0.913336
0.907788
0.884597
0.809644
0.63014
0.717232
0.597128
0.601054
0.579621
0.57943
0.57316
0.573417
0.568888
0.565852
0.508244
0.479725
0.382189
0.424252
0.276251
0.322964
0.000851104
0.000624444
0.000948563
0.000967574
0.000969466
0.000982262
0.000986514
0.000879074
0.000998153
0.000666735
0.000677989
0.000965569
0.000971308
0.000759356
0.000380116
0.000991326
0.000690401
0.00100737
0.000803925
0.000839513
0.000369052
0.000975289
0.000889611
0.000439439
0.000917861
0.00070769
0.00102263
0.000605829
9.59962e-06
6.82991e-05
0.000891307
0.000719123
0.00383107
0.00374865
0.297383
0.131159
0.511919
0.467086
0.534074
0.64128
0.746224
0.824496
0.837963
0.82457
0.864357
0.898615
0.884541
0.878966
0.00101
0.000734461
0.000886173
0.000267557
0.000901104
0.000922867
0.00081396
0.000932423
0.000890554
0.000725685
0.000975785
0.00092383
0.000794854
5.1251e-07
0.00079829
0.00101
0.000170373
0.278674
0.278149
0.275207
0.247668
0.162197
0.203218
0.123663
0.116345
0.0833809
0.0829204
0.0309641
0.0309514
0.0626646
0.0570985
0.0184658
0.0534664
0.0385195
0.107096
0.0820097
0.0842322
0.00105431
0.00090482
0.000969595
0.0148322
0.0232876
0.0232314
0.000657325
0.00222173
0.000704269
0.000988238
0.00092102
0.00039254
0.518724
0.487893
0.526196
0.53537
0.489779
0.442229
0.610161
0.631405
0.69716
0.70659
0.253083
0.295719
0.340026
0.430546
0.248648
0.202655
0.229426
0.231646
0.0699415
0.117105
0.170912
0.0573962
0.275927
0.276361
0.277466
0.279426
0.293647
0.272995
0.293038
0.306132
0.182416
0.182378
0.0784729
0.16154
0.157123
0.115891
0.0695376
0.0773285
0.0197297
0.0457565
0.0280141
0.115838
0.174583
0.105808
0.174091
0.227224
0.227814
0.226918
0.227524
0.233708
0.253509
0.248692
0.269144
0.258174
0.277018
0.264952
0.294965
0.292443
0.294155
0.290261
0.305716
0.295058
0.332375
0.308567
0.272558
0.273108
0.337157
0.307875
0.312637
0.355603
0.395281
0.391437
0.39312
0.393498
0.435116
0.476487
0.545654
0.559052
0.57251
0.549142
0.693649
0.628646
0.756378
0.794953
0.790464
0.827796
0.887131
0.746179
0.834204
0.861396
0.932462
0.98165
1.00881
1.0293
1.05723
1.00198
1.05403
1.01327
1.09534
1.09515
1.13933
1.10934
1.17289
1.20036
1.19216
1.13852
1.20567
1.22805
1.19508
1.19178
1.25641
1.2322
1.26577
1.20619
1.2066
1.27135
1.24072
1.1907
1.19204
1.22553
1.25247
0.244398
0.220758
0.390609
0.379119
0.348428
0.346614
0.345465
0.115138
0.249875
0.000433154
0.000685024
0.0754997
0.0661186
0.000906499
0.0179067
0.00895571
0.169204
0.0849977
0.0858577
0.000263153
0.000669048
0.00204681
0.0201847
0.000348518
0.00102566
7.15742e-07
5.8384e-05
1.50323e-05
1.89669e-05
0.00101
0.000966006
0.000995857
0.000655466
1.93584e-05
0.00141795
0.000842141
0.000928041
0.000844807
0.000725829
0.000258236
0.00069126
0.000943677
0.000831092
0.00121875
0.000634556
0.00012748
0.000146108
0.000949
0.000255762
1.12819e-05
1.61879e-05
0.000990101
0.000818938
0.00100231
0.000950861
0.000911134
0.000410555
0.000786562
0.000971487
0.00117847
0.000907839
0.000982964
0.000976174
0.000961291
0.00101012
0.00108021
0.000743208
0.00103365
0.000905221
0.00103193
0.000982396
0.00102196
0.000966114
0.00109639
0.00109608
0.000453333
0.000691779
0.00101272
0.000784848
0.000909689
0.000377029
0.000991017
0.000960908
0.00100983
0.00100977
0.000136678
0.000923328
0.000950381
0.000921886
0.000915695
0.000919934
0.000797993
0.00121603
0.000779185
0.000968314
0.873142
0.86335
0.836652
0.833918
0.749989
0.82341
0.645937
0.577778
0.57042
0.571604
0.572552
0.571112
0.511673
0.515596
0.364045
0.319147
0.282345
0.451582
0.452648
0.400988
0.401809
0.402118
0.000647301
0.000461053
0.00108191
0.00108205
0.000962471
0.000414864
0.000711517
0.000410365
0.00099825
0.000971197
0.000161511
0.00100893
0.000972717
0.000941946
0.000297472
0.000985833
0.000726155
0.00091818
0.00021426
0.00071546
0.000551294
0.000951565
0.00122351
0.00122376
3.81621e-05
7.37144e-06
0.000201484
0.00396998
0.126032
0.0032397
0.30344
0.461245
0.501695
0.525897
0.6115
0.721902
0.787059
0.767399
0.807897
0.744928
0.794095
0.83469
0.79138
0.787426
0.00123434
0.000903328
0.00101
0.000849207
0.00099335
0.00120096
0.000757001
0.000798513
0.00120096
0.00102849
0.00099159
0.000996719
0.000100393
1.14836e-05
0.000883392
0.000469635
1.11098e-05
0.000656439
0.00098774
0.000236686
0.000248866
0.000738842
0.00096459
0.000795867
0.00172006
0.00101033
0.254878
0.24711
0.171453
0.197005
0.0719725
0.088237
0.0285708
0.0282444
0.0282773
0.029011
0.00103919
0.00365798
0.00100551
0.000972636
0.000211727
0.00106291
0.0678349
0.0263829
0.0633902
0.0743333
0.000512107
0.000310422
0.000339182
0.0008342
0.000324874
0.000933762
0.000717662
0.000602104
0.000980152
0.000764758
0.00124389
0.000742087
0.738718
0.741197
0.569763
0.484749
0.479119
0.460111
0.738899
0.650437
0.895585
0.973476
0.869279
0.787061
0.988171
0.967483
1.03411
1.0833
1.11099
1.10886
1.13664
1.10872
1.162
1.19006
1.1861
1.18641
1.20847
1.19409
1.1932
1.23899
1.18143
1.17528
0.307517
0.224767
0.371831
0.447061
0.235235
0.175122
0.233175
0.222299
0.0583947
0.117781
0.000920382
0.11467
0.00230827
0.276688
0.213502
0.271926
0.268704
0.276624
0.165613
0.0708336
0.0009237
0.000450974
1.23035e-05
0.0300781
5.16948e-71
6.7659e-19
2.2451e-06
0.00101265
0.039362
0.0315392
7.62172e-06
0.0567274
0.120485
0.069142
0.177329
0.121449
0.161525
0.224175
0.253778
0.235888
0.261689
0.260826
0.283543
0.271339
0.302765
0.306803
0.306297
0.31806
0.324608
0.328997
0.358936
0.37191
0.365874
0.357758
0.365944
0.353134
0.373406
0.386969
0.434866
0.428782
0.400113
0.429272
0.42477
0.461569
0.489781
0.550597
0.585326
0.580711
0.590496
0.66439
0.74173
0.818797
0.832343
0.958909
0.832621
0.884696
1.03371
1.05429
1.0567
1.09046
1.14301
1.18936
1.20339
1.20337
1.23307
1.26015
1.28827
1.28611
1.29119
1.28286
1.29069
1.26956
1.20795
1.26749
1.24047
1.19394
1.19447
1.22689
1.25652
1.26682
1.19636
1.25707
1.21457
0.0404582
0.0308158
0.112753
0.180771
0.0706763
0.136737
0.273133
0.205381
0.23629
0.0721467
0.000728167
4.88231e-06
0.000767744
0.0404509
0.0327448
1.48133e-05
0.000105043
8.06126e-09
0.000992957
0.00165506
0.00165704
0.000843636
0.000374496
0.00563293
0.019834
0.000871197
0.000837817
0.000904459
0.000699214
0.00126033
0.00126189
0.00086849
0.000172666
0.000710564
0.0014176
0.000981197
0.000844681
0.000478021
0.000315336
0.000555775
0.00101
0.000736257
0.0012183
0.000934557
0.000984534
0.000789862
0.000660221
0.000998234
0.000701989
0.00100779
0.000868975
0.00105273
0.000951238
0.000951224
0.000744326
0.00109535
8.48051e-05
0.00099613
0.000976554
0.000217577
0.000668234
0.000544652
0.000936558
0.000816347
0.000910402
0.000835924
0.000993967
0.000978339
0.000943996
0.000974885
0.00092222
0.000239769
0.00132567
0.000932886
0.00104054
0.000815497
0.00100962
0.000641972
0.000367709
0.000916152
0.000960434
0.000958538
0.000892128
0.000597051
0.000479733
0.786954
0.783191
0.765212
0.773879
0.698202
0.763794
0.570486
0.633494
0.533951
0.530502
0.475302
0.46195
0.403419
0.40204
0.321053
0.214624
0.195558
0.358026
0.404935
0.401586
0.402353
0.403107
0.00108181
0.000934376
0.00108156
0.00032482
0.000973634
0.000973647
0.00094649
0.000972052
0.00100548
0.000830393
0.000135327
0.000443538
0.00093376
0.000997208
0.00060297
0.00100999
0.00098232
3.53596e-05
0.000985985
0.000873381
0.000276721
0.00064551
0.000655599
0.00101
0.000321117
3.32274e-05
0.000173382
0.00304008
0.196942
0.0282144
0.337383
0.464052
0.445438
0.551922
0.719765
0.624909
0.70128
0.698022
0.693305
0.719317
0.780774
0.771051
0.776815
0.751257
0.000769413
0.000922585
0.000573493
0.000958878
0.000712787
0.000933944
0.000627141
0.000309821
0.000814724
0.000879841
0.000957505
0.000939816
0.00106102
5.40474e-05
0.000866099
0.000873917
0.00096514
0.000987798
0.000858762
0.0011453
0.00059554
0.0011327
0.00130188
0.000901385
0.00101
0.000860782
0.000668131
0.000489708
0.000136748
0.000114036
0.00098545
0.125356
0.129641
0.0930805
0.072958
0.0289883
0.0509709
0.0159454
0.0161684
0.174
0.115455
0.0937319
0.000209527
0.000898429
0.000408908
0.00100989
0.00135277
0.00135242
0.000311018
0.000942238
0.0461554
0.000718324
0.0332861
0.0197674
0.000830286
0.000589446
0.000349619
0.000338827
0.000587295
0.00100971
1.30661e-05
0.00052455
0.000737284
0.000689738
0.000594218
0.000809643
1.31738
1.32299
1.35296
1.33049
1.36974
1.35886
1.38445
1.37023
1.43139
1.4135
1.37835
1.43233
1.39932
1.4555
1.28528
1.23921
1.25463
1.30394
1.28692
1.25751
1.26097
1.31276
1.31834
1.29359
1.27511
1.32682
1.31027
1.32275
1.34484
1.19353
1.19362
1.19515
1.1958
1.21251
1.23076
0.784958
0.731869
0.627587
0.535282
0.447842
0.526883
0.722748
0.703317
0.940792
0.97043
0.849257
0.937267
0.976352
1.0256
1.07271
1.11337
1.10882
1.11169
1.10464
1.13712
1.14942
1.17567
1.16115
1.1672
1.17144
1.1813
1.15404
1.15621
0.350917
0.282838
0.229055
0.213377
0.271829
0.445234
0.425709
0.153578
0.20927
0.0863632
0.016641
1.30172
1.32017
1.33889
1.34529
1.35002
1.36367
1.36315
1.39415
1.37618
1.3939
1.39347
1.44144
1.46272
1.48925
1.48609
1.49729
1.50644
1.52812
0.000493924
0.000825781
0.00137833
0.20042
0.0829642
0.256801
0.160758
0.083104
0.00126273
0.000332444
0.00125576
0.00125835
0.000150505
0.000241982
0.000506018
0.000634227
1.56935e-49
6.10001e-120
0.0500297
0.000878742
0.000459887
0.0690114
0.069524
0.0693028
0.131227
0.0794327
0.205394
0.15639
0.244323
0.200839
0.248332
0.262457
0.289541
0.308227
0.333687
0.333275
0.33987
0.33337
0.392172
0.388106
0.376011
0.373877
0.428198
0.405846
0.471816
0.433726
0.41288
0.45624
0.507781
0.492541
0.518004
0.550235
0.552533
0.501722
0.605995
0.632674
0.600485
0.591247
0.673037
0.75642
0.833301
0.899389
0.84637
0.865858
0.992601
1.04916
1.09379
1.07242
1.1418
1.17034
1.21089
1.22916
1.22216
1.23755
1.29595
1.27981
1.29238
1.29613
1.29746
1.28603
1.29452
1.27779
1.28999
1.29131
1.28744
0.0249827
0.015649
0.0403317
0.000414398
0.000849914
0.000460794
0.000990749
0.072906
0.000301301
0.000486872
0.000122289
0.000992538
0.000316699
0.000585262
0.00137705
0.000221547
0.000868388
1.60472e-05
4.28478e-05
0.00164995
0.000925994
0.00038011
0.000991314
0.000889719
0.000735431
0.00014751
0.000767392
0.000997744
0.00117289
0.00117283
0.00126055
0.000839108
0.00107536
0.000977068
0.000776109
0.00096702
0.000896738
0.000998449
0.00026155
0.000888291
0.00100984
0.000894905
0.0011726
0.000473799
0.000398457
0.000668916
0.00100238
0.000270015
0.000740386
3.14045e-09
2.43989e-06
0.0023966
0.000350275
0.00100904
0.000694792
0.000545923
0.000997667
0.000406675
0.00100993
0.000972649
0.000977525
0.000963111
0.000999516
0.0007028
0.00105914
0.000896551
0.000762698
0.000977322
0.000831474
0.00105874
0.00089779
0.000955844
0.000631827
0.000258775
0.00078362
0.000964465
0.000941166
0.000838222
0.00101
0.000334973
0.000769708
0.000685233
0.000978177
0.000925692
0.000935309
0.000919732
0.00091709
0.000695524
0.000567275
0.00195843
0.000207304
0.000674617
0.000835469
0.000995657
0.00195038
1.48434
1.4468
1.4091
1.52013
1.54939
1.54926
0.763583
0.765291
0.753092
0.746493
0.672878
0.734435
0.564896
0.493045
0.4227
0.432039
0.403954
0.401646
0.400959
0.402169
0.283141
0.197259
0.284742
0.368582
0.366343
0.00093523
0.000814729
0.000875173
0.000890082
0.000958001
0.0009764
0.000965395
0.000493094
0.000931051
0.000554111
0.00100943
0.00104023
0.00099585
0.000996711
0.000927973
0.032482
0.00100998
0.000498781
0.000128694
0.000927014
4.59314e-06
0.00027335
0.000921556
0.000785239
0.00052174
0.000783296
0.000978157
0.167957
0.30759
0.42044
0.421638
0.740549
0.663479
0.673226
0.458986
0.550855
0.639043
0.692043
0.692862
0.691146
0.710037
0.738587
0.732375
0.000740329
0.00112403
0.000622951
0.000982796
0.000768958
0.000760034
0.00100904
0.000845157
0.000732734
0.000835941
0.000817811
0.000932446
0.000763197
0.000965333
0.00100996
0.000975531
0.000875886
0.00101646
0.000978385
0.000913372
0.000921088
0.000824304
0.000770427
0.000960938
0.00101871
0.000975265
0.000332931
0.000924251
0.000978012
0.000973622
0.00101
0.000984843
0.000871643
0.000978065
0.000827832
0.00113634
0.000993611
0.127929
0.162482
0.15373
0.0915035
0.0937758
0.0663946
0.0834854
8.7512e-07
0.000801026
0.000278868
0.000919408
0.0944397
0.0815144
0.000406768
0.000929436
0.000612942
0.000962556
0.000490688
0.000432878
0.000938211
0.000136085
0.00068982
0.000676821
0.000857816
0.00257023
5.79952e-05
0.000680105
0.000702988
0.000420221
0.000653842
0.000551523
0.000693939
9.93495e-05
0.000358069
0.000994303
6.29712e-05
0.000979051
1.31583
1.33133
1.35231
1.37091
1.37727
1.37516
1.42618
1.39724
1.24904
1.24823
1.23209
1.25097
1.28731
1.24809
1.28975
1.26883
1.17928
1.16881
1.1707
1.19848
1.22821
1.20531
0.791657
0.71616
0.608362
0.698543
0.549285
0.456882
0.708137
0.713826
0.94771
0.956149
0.970413
0.864489
0.944233
1.06016
1.00391
0.942623
0.991496
1.08914
1.10456
1.09468
1.10145
1.1069
1.13223
1.15861
1.14759
1.15964
1.15741
1.15436
1.15531
1.15078
1.15852
0.201508
0.201675
0.343056
0.416118
0.199602
0.284905
0.43814
0.451327
0.189975
0.129828
0.0433381
0.10747
1.33153
1.29448
1.30821
1.35387
1.35463
1.35801
1.36162
1.38943
1.40726
1.41705
1.42099
1.42643
1.44984
1.49126
1.47386
1.48777
1.50415
1.55296
1.52723
1.35751
1.37504
1.38416
1.55211
1.55732
1.55476
0.00137969
0.0013767
0.00136808
0.000660762
0.00833665
0.0214044
0.000867994
0.000977427
0.000705502
0.000659527
0.000757232
0.000881632
0.000657144
0.00123912
0.000620882
0.00123908
0.000969713
4.81753e-06
0.0009852
2.60918e-09
0.00177618
0.000977635
0.0746194
0.00100691
0.146253
0.170659
0.110954
0.145987
0.206362
0.169943
0.300917
0.244198
0.314661
0.324103
0.339318
0.327166
0.372997
0.407682
0.451779
0.449215
0.460546
0.443717
0.46932
0.452425
0.499679
0.50544
0.529346
0.521139
0.502555
0.508318
0.623473
0.674167
0.567323
0.636395
0.67631
0.64078
0.743998
0.787752
0.889678
0.927516
0.905439
0.993374
1.04851
1.14667
1.13183
1.1921
1.16768
1.26305
1.2666
1.25873
1.29078
1.31519
1.31385
1.37123
1.33786
1.36827
1.32313
1.33741
1.35187
1.28726
1.34051
1.28526
0.000329187
0.000739256
0.000811448
0.000602999
0.000769361
0.000964183
0.00057408
2.26263e-06
0.00101
0.000199154
0.000229338
0.000512431
0.000147806
0.000632165
0.000512678
0.0003504
0.000944311
3.6638e-05
0.000302915
2.87791e-05
0.000124015
4.98173e-05
5.50518e-07
0.000280095
0.000978557
0.000832985
0.000999883
6.78421e-05
0.00117286
0.00117283
0.0009869
0.000995782
0.000992745
3.82214e-05
0.00101
0.000912008
0.0010004
0.000112849
0.00044385
0.000919656
0.000101158
0.000297927
0.00196431
2.42042e-05
0.000984734
7.25696e-05
0.0009581
0.000364482
0.000996217
2.5498e-05
0.000994615
0.00221497
0.000972856
0.000134455
0.000977415
0.0012273
0.00115998
0.000449714
0.00100983
0.000979813
0.000465046
0.000983408
0.000969573
0.000835887
0.00105906
0.00105899
0.000935521
0.000974542
0.00105879
0.0010589
0.000955402
0.000699772
0.000711032
0.000919589
0.00134857
0.00010811
0.0013483
0.000904583
0.00098702
0.000966821
0.000965866
0.0010023
0.00104764
0.00104823
0.00084526
0.000805878
0.000827454
1.23268e-05
9.12481e-06
0
0.000996657
0.000799517
0.000430028
0.000884215
0.00115989
0.000898711
0.00100958
0.00100997
0.000969369
0.000998553
0.000946811
0.000914726
0.00101
1.45517
1.44835
1.45409
1.45956
1.48814
1.59197
1.57279
1.56998
1.59756
1.53167
0.669452
0.660651
0.594195
0.595581
0.558003
0.582002
0.492536
0.455218
0.434113
0.402302
0.376745
0.375285
0.287602
0.297937
0.163749
0.206224
0.211547
0.000529692
0.000965684
0.000913493
0.00101
0.000971312
0.000917688
0.000585991
0.00169719
0.140479
0.000465851
0.000919443
0.000220381
0.000954139
0.000961382
1.73805e-06
0.000368616
0.00101
0.000973131
0.000928251
0.00102239
0.000849804
0.000991991
0.000944045
0.000847483
0.00025022
0.531794
0.539312
0.576286
0.281994
0.424984
0.41773
0.462304
0.582447
0.649981
0.616097
0.518462
0.601901
0.633395
0.636385
0.552989
0.582165
0.000957717
0.000987458
0.0011241
0.0010395
0.000564774
0.000864715
0.00102837
0.00120174
0.000990309
0.000994954
0.000160682
0.00193884
0.000973288
0.000936631
0.000510229
0.00293888
0.0029396
0.00293954
0.000575495
0.000968383
0.000941863
0.00101644
0.000857318
0.000955682
0.000921083
0.00101897
0
0
0
0.000959356
0.000920205
0.000959732
0.00100136
0.000920463
0.000464602
0.00101899
0.00110095
0.000999608
0.00097325
0.000341416
0.000950085
0.000929535
0.000975634
0.000764237
0.000954094
0.143768
0.154335
0.17025
0.0326204
0.0554584
0.0134659
0.0132982
0.00079737
0.000791147
0.000896289
0.000479969
0.00108595
0.00208594
0.000995101
0.000144967
0.000406739
0.000501906
0.000242686
0.000584634
0.000389242
0.000843435
0.000270985
0.000575667
0.000668832
0.000877991
0.0163279
0.000467244
0.000156871
0.00113578
0.00063711
0.00118716
0.000312228
0.000747328
0.00073573
0.000346646
0.00101
0.000942721
0.000638975
0.00113549
1.32709
1.27627
1.35805
1.314
1.32191
1.36286
1.33407
1.40185
1.38067
1.42719
1.4
1.37035
1.43526
1.39001
1.21578
1.20995
1.2041
1.21539
1.23049
1.24018
1.24212
1.25667
1.15577
1.15455
1.17466
1.16306
1.1922
1.20316
0.797573
0.717172
0.632169
0.711965
0.503019
0.601768
0.708031
0.720357
0.941175
0.944929
0.946471
0.87395
1.03278
1.0849
0.993342
0.942167
1.0894
1.08685
1.10279
1.08748
1.12664
1.14918
1.15263
1.16134
1.15723
1.14868
1.1531
1.15245
1.15148
1.15055
0.195304
0.192746
0.36032
0.429741
0.341389
0.255976
0.486703
0.430659
0.163521
0.193705
0.154579
0.0789614
1.34174
1.37391
1.34498
1.37512
1.3904
1.38569
1.41717
1.43057
1.40344
1.4174
1.41216
1.4221
1.42613
1.44788
1.47013
1.48594
1.48925
1.5395
1.51404
1.56307
1.57002
1.44135
1.45893
1.57363
1.58154
0.000415286
0.000119009
0.000696944
0.000551543
0.000525579
9.76082e-05
0.000260243
0.000216129
0.00101
1.00585e-05
0.000927799
0.000258474
0.000621671
0.000657476
5.07035e-06
0.000780461
0.001776
0.000547981
0.000872027
0.000687083
0.000549516
6.68921e-16
0.0635938
2.80339e-39
0.162254
0.161243
0.124036
0.0818217
0.194811
0.246913
0.299656
0.2893
0.307282
0.298619
0.419394
0.365277
0.470413
0.462149
0.48648
0.491646
0.468211
0.520139
0.5658
0.537082
0.527021
0.545187
0.60253
0.588759
0.563101
0.613147
0.690531
0.694544
0.685212
0.709036
0.842516
0.754782
0.925577
0.955468
0.949554
1.01977
1.09107
1.16961
1.17742
1.18938
1.23946
1.2834
1.32026
1.31861
1.35736
1.32924
1.38081
1.39889
1.39892
1.39999
1.39612
1.4051
1.35133
1.40789
1.35675
0.000848916
6.3049e-05
0.00630086
0.00102566
0.000692767
7.76113e-05
0.000686777
0.000538285
0.00079675
0.000645976
0.00102481
0.00127317
0.000468027
0.00127418
0.0012731
0.00127301
0.00127328
0.000994994
0.00127206
0.00601606
0.00100103
0.000638589
0.000184916
0.00210256
0.000408187
0.00205693
0.00209173
0.000429485
0.000319876
0.00100217
0.000993637
0.000687571
0.000863306
0.000753435
0.00102154
0.00104463
0.00077978
0.000959982
0.00100986
0.000887496
0.000962023
0.000981265
0.00176614
0.000986964
0.000146754
1.36216e-05
0.000607696
0.00096357
0.000988249
0.000479144
0.000826696
0.000965387
0.00100941
0.00031059
9.18369e-05
0.000987756
0.00100992
0.000817418
0.000560979
0.000843812
0.00101
0.000799183
0.000972919
0.000279366
0.000904827
0.00095865
0.000976537
0.00100223
0.000954241
0.000970027
0.000886752
0.00100949
0.00097168
0.000773375
0.000984106
0.000952799
0.000800395
0.00098992
0.000934564
0.000964099
0.000974876
0.000974485
0.00116203
0.000985208
0.000905098
0.000558152
0
0
0
0
0
0
0
0
0
0
0
0
0
0
0
0
0
0
0
0.00099334
0.000901226
0.000937661
0.000812305
0.000902506
0.000434354
0.000930592
0.00106871
0.000325168
0.000811332
0.00035232
0.000878445
1.63139
1.61335
1.63289
1.61851
1.62891
1.63315
1.47189
1.47026
1.53336
1.5003
1.59661
1.62591
1.59088
1.48845
1.44326
0.531958
0.536775
0.538122
0.526494
0.532878
0.464994
0.511324
0.295446
0.354191
0.225099
0.218218
0.167497
0.158131
0.169782
4.53839e-05
0.000888676
0.000495047
0.000982711
0.00098558
0.158418
0.00103297
0.000961728
0.000977449
0.000625545
0.000686377
0.000984192
0.000961616
0.000962997
0.00097202
0.000717645
0.000335301
0.000981692
0.00101124
0.000212654
0.00101118
0.000932938
0.0004632
0.000639417
0.533617
0.533745
0.538544
0.538734
0.536765
0.246228
0.371558
0.311352
0.431651
0.489905
0.514183
0.444537
0.529072
0.47919
0.481334
0.464286
0.000954778
0.00114106
0.000687826
0.000970576
0.000973219
0.000935143
0.000890249
0.00101624
0.000129035
0.000841941
0.00101487
0.00060371
6.92933e-05
0.000527482
0.000638273
0.000616055
0.000763669
0.000919235
0.000966992
0.00101583
0.000698046
0.00091236
0.000740767
0.000726241
0.000621516
0.00100986
0.00070147
0.000988971
0.000352617
2.15212e-05
0
0
0
0
0
0.000978181
0.000983823
0.000968882
0.00116766
0.00103723
0.000931255
0.00080046
0.000821506
0.000975435
0.000944306
0.000977372
0.000845929
0.000979339
0.000967902
0.000787048
0.000895148
0
0
0
0
0
0
0.144546
0.0699653
0.0610006
0.000441872
0.000207656
0.000705021
0.000824561
0.000960083
0.000791447
0.000311719
0.00100956
0.000850879
0.000375808
0.000550644
0.00033854
0.000760208
0.000752664
0.000795758
0.000905726
0.000971356
0.000999631
6.55583e-05
0.0127164
0.000803536
0.000486704
0.000725916
0.000634249
0.000404769
0.000958393
0.00027789
0.000629744
1.31742e-05
0.000467482
0.00183083
0.00183083
0.000704762
0.000959699
0.000281529
0.000798649
0.00100972
0.000818552
1.26815
1.27059
1.28551
1.29126
1.29693
1.30017
1.3655
1.35927
1.35195
1.32418
1.44556
1.38859
1.36678
1.20009
1.2024
1.22808
1.21861
1.23953
1.24259
1.26943
1.24998
1.15437
1.16121
1.1855
1.16828
1.18255
1.19022
0.834748
0.753184
0.675849
0.712515
0.658931
0.562862
0.749697
0.714163
0.948576
0.946158
0.909257
0.950611
1.03819
1.08943
0.949836
0.994127
1.08962
1.08889
1.11233
1.08842
1.13035
1.15116
1.1545
1.15372
1.14432
1.15534
1.14991
1.14371
1.14741
1.14797
0.188834
0.249338
0.431623
0.412982
0.336783
0.419246
0.432998
0.507131
0.185298
0.175527
0.167212
0.0873876
5.44777e-05
0.000365086
0.0521504
1.41103
1.40649
1.42993
1.41421
1.45039
1.45624
1.46095
1.4552
1.49586
1.47805
1.49023
1.45224
1.48346
1.49575
1.51895
1.53925
1.54912
1.54545
1.59606
1.60183
1.62035
1.60115
1.51538
1.51837
1.64269
1.64097
0.00016622
0.000334169
0.00101
8.45085e-06
0.000729054
0.00122089
0.0012208
0.000989272
0.000305007
0.000145841
0.00016479
0.00191137
0.00124436
0.000477783
0.000822227
0.000856885
0.00100232
0.000626775
0.000320397
0.000824137
8.63116e-05
0.000992328
0.00515995
0.0227277
0.0113527
0.112361
0.181977
0.0548531
0.282272
0.222183
0.286831
0.298145
0.384224
0.320432
0.455781
0.477397
0.475798
0.481482
0.603529
0.570667
0.536907
0.598845
0.614807
0.609474
0.605115
0.595672
0.617752
0.608151
0.687392
0.733516
0.773879
0.72763
0.773138
0.800008
0.941152
0.870834
0.963288
0.954409
1.02994
1.10921
1.19439
1.18991
1.22849
1.26051
1.33836
1.32821
1.34938
1.35186
1.37781
1.39461
1.40679
1.40372
1.41285
1.40842
1.40051
1.41459
1.40164
1.3924
0.000982042
0.000865381
0.00101
0.00067133
0.000956189
0.000657298
0.000566723
0.000831408
0.000642839
0.00127185
0.000349253
0.000777264
0.000295436
0.00127034
0.00128849
0.00126397
0.0012853
0.00127234
0.00127053
0.00031936
0.000371652
0.00100989
0.000695569
0.000938422
0.000788581
0.00100179
0.000973789
0.000997704
0.000180038
0.000954666
0.000624923
0.00101
0.000209386
0.00062953
0.00100863
0.00104467
0.000661098
0.000881619
0.000973574
0.00354725
0.000140501
0.000210438
0.00024578
0.00100992
0.000871155
6.51125e-09
0.000983433
0.00100983
0.000267439
0.000848872
0.00100647
0.000131712
0.00100976
0.000959372
0.000183765
0.000986414