/*--------------------------------*- C++ -*----------------------------------*\
  =========                 |
  \\      /  F ield         | OpenFOAM: The Open Source CFD Toolbox
   \\    /   O peration     | Website:  https://openfoam.org
    \\  /    A nd           | Version:  8
     \\/     M anipulation  |
\*---------------------------------------------------------------------------*/
FoamFile
{
    version     2.0;
    format      ascii;
    class       volScalarField;
    location    "2220";
    object      nut;
}
// * * * * * * * * * * * * * * * * * * * * * * * * * * * * * * * * * * * * * //

dimensions      [0 2 -1 0 0 0 0];

internalField   nonuniform List<scalar> 
526318
(
0.000165342
0.000283252
0.000243992
0.000246805
0.000186095
0.000318871
0.000108987
0.000244794
0.000198038
0.000201891
0.000218042
0.000266828
0.000297271
0.000196824
0.000371133
0.000386789
0.000360092
0.000315086
0.000282327
0.000159153
0.00021069
0.000163843
0.000169763
0.000150222
0.000192498
7.32894e-05
0.000209707
6.50156e-05
0.00010256
0.000167459
4.88662e-05
0.000167608
8.15904e-05
0.000185063
0.000310033
0.000290134
0.000387133
0.000246843
0.000187728
0.000138567
0.000319481
0.00033053
0.0001402
5.25178e-05
0.000108408
0.000132835
9.35883e-05
0.000253271
0.000318858
0.000405535
0.000346093
0.000467485
0.000172003
0.000353878
8.4058e-05
4.6406e-05
7.63862e-06
0.000252899
0.00018459
0.000214265
0.000148555
0.000196037
0.000197184
8.37551e-05
8.89182e-05
0.000178034
0.000182054
0.00013675
0.000260128
0.000107705
0.000200716
0.000187916
0.00015021
3.16554e-05
0.000145411
0.000219724
0.000133707
0.000141639
8.20972e-05
6.69765e-05
7.86963e-05
5.81728e-05
5.35185e-05
8.15335e-05
0.000145615
8.54533e-05
0.000273892
0.000108655
0.000176777
0.000202211
4.3076e-05
0.000120823
0.000257069
0.000316513
0.000169054
0.000203548
0.000145171
0.000122594
0.000118234
0.000114407
0
0
7.65175e-06
3.10703e-05
2.76161e-05
0
5.72907e-05
9.25761e-05
0.000113955
7.27579e-05
6.0564e-05
0.000192745
0.000164989
0.000109122
0.000149393
0.000100136
6.60159e-05
6.72693e-05
8.82343e-05
0.000195367
0.0001356
0.00015038
0.000218618
0.000169194
0.000135939
0.00016968
0.000174068
0.000177636
0.000158558
0.000200897
0.00019503
0.000190035
0.000179531
0.000151567
0.000220213
0.000149409
0.000170994
0.000189472
0.00021015
0.000137143
0.000164936
0.00016522
0.000168257
0.000170485
0.00015447
0.000121243
0.000155281
0.000133859
0.0001648
0.00014835
0.000147786
0.0001657
0.000129511
0.000141065
0.000142184
0.000131462
0.000158254
0.000126555
0.000137761
0.000109624
0.000145033
0.000115333
0.000179666
0.000118464
0.000184138
0.000160469
0.000290037
0.000130938
0.000195222
0.000105745
3.60252e-05
8.82422e-05
4.77289e-05
5.64994e-05
4.17473e-05
8.48507e-05
6.43219e-05
9.96386e-05
0.000104854
0.000147602
0.000125835
0.000213185
0.000154673
0.000170778
0.000199962
0.000192627
0.00021527
0.000225358
0.000195869
0.000226591
0.000193268
0.000201798
0.000188771
0.00018836
0.000185264
0.000197118
0.000183846
0.000180911
0.000205071
0.00020469
0.000184242
0.000100571
0.000113188
0.000138849
0.000189633
0.000170218
0.000117864
0.000134235
0.00013553
0.000130585
0.000145452
0.000338946
0.000265893
0.000268469
0.00024416
0.000298635
0.000219895
0.000220421
7.03859e-05
0.000109787
0.000186119
0.000339814
0.000272893
3.94615e-05
0.000505052
0.00036484
0.000251573
0.000225863
0.000218984
6.95723e-05
0
0.000129595
0.000311955
0
0
0
0
0
0
0.000154099
0.000173722
6.09945e-05
6.95376e-05
0.000122946
0.000244928
0.000130875
0.000151928
0.00010505
0.000136396
0.000106069
0.000150816
8.83275e-05
0.000190027
0.00021365
0.000107872
5.08692e-05
0.000109792
0.000144278
0.000156342
0.000138262
0.000138519
0
0
0
0
6.58198e-06
0
2.19941e-05
3.93104e-05
8.45006e-05
0.00010065
0.000123297
8.68682e-05
9.22248e-05
0.000140563
8.06439e-05
0.000171729
0.000124727
8.68106e-05
0.000146707
0.000135552
0.000169678
0.00013559
0.000128477
0.000167223
0.000147071
0.00012997
0.000122854
0.000169317
0.000156873
0.000133513
0.000125192
0.000143231
0.000118144
8.1144e-05
0.000105637
0.000122401
0.000122155
6.0443e-05
0.000116908
0.00012026
0.000124494
0.000108796
0.000133306
0.000133182
8.74528e-05
0.000154372
0.00012121
0.000127851
0.000159659
0.000119529
0.00012506
0.000126537
7.70299e-05
5.12226e-05
9.09054e-05
4.62247e-05
0.00011563
8.2643e-05
5.03834e-05
0.000192519
0.000292739
0.00020038
0.000160885
0.00015879
7.13158e-05
3.15561e-05
8.58941e-05
1.5497e-05
9.85249e-05
7.02122e-05
5.49857e-05
5.4232e-05
7.42812e-05
6.54059e-05
9.28121e-05
0.000126762
0.000201363
0.000137768
0.000174255
0.000199228
0.000231557
0.000225102
0.000201002
0.000213089
0.000200374
0.000191373
0.000211839
0.000215758
0.000196811
0.000208759
0.000202516
0.000213925
0.000202079
0.000197226
0.000232759
0.000184963
0.000205153
0.000101329
0.000121798
0.000127818
0.000154781
0.000106252
0.00012844
0.00012376
8.95672e-05
0.000118397
0.000114738
8.03844e-05
5.39544e-05
9.96781e-05
7.90427e-05
0.00010284
0.000119277
8.00549e-05
7.68407e-05
5.18578e-05
8.88496e-05
0.000218337
0.000189077
0.000135854
0.000217793
0.000129388
0.000227494
0.000163343
6.86948e-05
2.96435e-05
0.000161466
0.00016004
0.000251423
0.000245669
0.000415034
0.00010256
0.000317531
0.000249853
0.000351048
0.000187063
0.000231859
7.36614e-05
0
0
0.000149274
0
0.000309065
9.66454e-05
0
1.20028e-07
0
0
0
0
0
0
0
0
0.00015737
0.000101479
0.000130562
5.73309e-05
7.0294e-05
0.000172516
0.000146803
4.70175e-05
0.000133527
0.000135187
0.000137717
0.000121648
0.000259002
0.000144276
8.71311e-05
0.000169119
0.000168173
0.000129817
9.28399e-05
8.88772e-05
0.000133145
0.000150266
0
5.97862e-10
0
0
0
0
0
0
4.23912e-10
9.1588e-10
0
0
0
0
2.75338e-09
0
0
0
0
2.58773e-08
3.30184e-07
0
0.000164712
2.52906e-05
0.000102047
4.25722e-05
9.22841e-05
0.000113281
2.2662e-05
9.93951e-05
0.000163194
7.72723e-05
5.81034e-05
0.000209481
0.000103716
0.000147724
0.000199489
9.37427e-05
0.000136041
0.000154657
0.000152742
0.000118353
0.00012115
0.000151463
0.00014014
0.000168343
0.00012191
0.000145323
0.000133222
9.54315e-05
0.000110716
4.42559e-05
5.98417e-05
0.000152235
6.62883e-05
5.91189e-05
4.28108e-05
5.85343e-05
0.00011567
4.6052e-05
7.18658e-05
0.00013429
9.87124e-05
0.000127903
9.81561e-05
0.000131302
7.51265e-05
7.11629e-05
9.15293e-05
0.000102116
0.000178259
7.52131e-05
0.000142958
0.000146812
0.000184888
0.000232321
0.00012943
7.30401e-05
7.99835e-05
5.45388e-05
0.000124914
9.14119e-05
5.31043e-05
0.000100299
0.00012067
0.000105837
0.000126953
3.47428e-05
4.17335e-05
0.000105778
3.70827e-05
3.87891e-05
0.000105215
5.14339e-05
9.93326e-05
8.54797e-05
6.77475e-05
0.000106942
8.50513e-05
5.91503e-05
0.000103935
0.000151839
0.000128427
0.000151974
0.000229502
0.000190679
0.000223207
0.00021655
0.000170218
0.000207501
0.000200857
0.00020509
0.000199644
0.000224159
0.000195705
0.000207376
0.00019036
0.000191189
0.000191932
0.000192802
0.000170796
0.000183102
0.000191232
0.000112863
0.000106297
0.000147482
0.000133679
0.000131425
8.83052e-05
0.000104797
0.000136434
0.000100628
9.26362e-05
9.70549e-05
0.000149825
8.79715e-05
0.000117351
7.29243e-05
0.000131405
0.000205248
0.000192478
0.000105564
0.000215497
0.000180942
2.98106e-05
0.000114508
5.64658e-05
0.000165326
0.000113389
0.000124801
0.000152208
5.31156e-05
0.000118411
9.38746e-05
0.000156047
0.00018984
0.000174286
0.000417387
0.000229451
0.000289168
0.000340831
0.000277371
5.23701e-05
0.000140605
0.000109561
0
0
7.61923e-07
0
9.20538e-05
0.000216364
0
0
0
0
0
0
0
0
0
0
0
0
0
0
0
0
0
0
0
0
2.35225e-09
0
0
3.09043e-10
9.76004e-10
2.55031e-09
0
0
0
0
0
0
0
0
0
0
1.98514e-06
1.66238e-06
0
0
9.1222e-05
0.000154534
0.000153691
5.14169e-05
0.000125296
8.96354e-05
2.20271e-05
0.000116256
0.000198358
0.000175786
8.27064e-05
0.000130093
0.000222205
0.000106636
0.000122228
9.36421e-05
9.22302e-05
0.000106606
0.000112321
0.000103948
0.000108459
0.000109193
0
0
0
0
0
0
0
0
0
0
0
0
0
0
0
0
0
0
0
0
0
0
0
0
1.05135e-08
0
0
0
0
0
0.000113518
0
7.73397e-05
5.16316e-05
0.00012926
0.000116674
0.000129419
5.97104e-05
8.10496e-05
0.000132615
3.06393e-05
0.000164261
0.000148341
0.000119383
0.000171929
5.63939e-05
8.65224e-05
0.00018688
0
0
0
0
0
0
0
0
0
0
0
0
0
0
0
7.9832e-09
0
0.00012448
0.000114187
0.000127195
0.000130122
0.000150812
0.000124082
0.00013109
0.000137911
9.78632e-05
0.000115722
9.51928e-05
9.12876e-05
0.000149006
0.000115552
6.63558e-05
4.43568e-05
5.46378e-05
7.40136e-05
3.71351e-05
6.64128e-05
6.95472e-05
3.87903e-05
4.4246e-05
3.7093e-05
7.9799e-05
0.000106345
9.81292e-05
0.000106681
8.23902e-05
7.51577e-05
3.40949e-05
5.17352e-05
0.000151853
0.000200759
0.000151198
0.000159073
0.000230587
0.000225825
0.000145749
0.000208922
0.000184753
0.000145453
0.000184283
0.000184297
0.000172907
0.000217897
5.88881e-05
5.6227e-05
7.03069e-05
3.56156e-05
5.87478e-05
6.55553e-05
9.02347e-05
5.41765e-05
0.000100081
6.05802e-05
0.000115033
3.53698e-05
3.01244e-05
0.000113082
0.000109517
5.45289e-05
6.5184e-05
4.71146e-05
7.08868e-05
8.17328e-05
9.00908e-05
6.22774e-05
8.98061e-05
0.000160355
0.000156449
0.000152201
0.000184449
0.000200521
0.000185001
0.00014688
0.00014924
0.000220581
0.000209276
0.000176357
0.000190052
0.000222857
0.000215786
0.000192164
0.000194328
0.000201449
0.000192779
0.000199101
0.000197239
0.000193175
0.000173757
0.000175353
0.000145576
0.00011643
0.000128372
0.000152215
0.000118655
0.0001299
0.000139262
0.000125409
9.17118e-05
0.000101265
8.1533e-05
0.000143912
0.000121024
0.000115137
0.000186537
0.000154008
0.000122919
0.000198594
0.000170352
0.000162242
0.000107838
0.000245165
0.000242591
0.000279809
0.000138879
0.000250882
0.000187027
0.000182556
0.000237316
0.00021526
0.000200616
0.000240534
0.000192516
0.000244902
0.000253933
0.000167373
0.00015808
0.000202454
0.000250555
0.000261607
0.000243571
0.000288326
0.000234083
0.000332871
0.000224025
0.000329572
0.000228784
0.000323505
0.00025788
0.000297524
0.000270271
0.000270999
0.000302547
0.00027095
0.000316507
0.000264402
0.000210726
0.000289751
0.000297673
0.000303609
0.000286349
0.000120585
9.25611e-05
3.86676e-05
2.48529e-05
0.000120973
0.000119747
5.08367e-05
8.06089e-05
0.000112752
1.36972e-05
9.74886e-06
7.85796e-05
6.20472e-05
0.000136792
0.000203111
0.00051496
0.000528892
0.000201954
0.000193824
0.000123005
5.91545e-05
0.000130989
6.49754e-05
0
3.81437e-09
0
0
0
0
0
0
0
0
0
4.82236e-09
0
0
0
0
0
0
0
0
4.34506e-09
0
0
0
0
0
0
0
0
0
0
0
0
0
0
0
0
0
0
4.83325e-09
0
0
9.84081e-09
0
2.40828e-09
0
1.11989e-09
1.17579e-09
1.52951e-10
0
5.12412e-09
1.58271e-09
0
0
3.03223e-09
0
0
0
0
0
0
0
0
0
0
0
0
0
0
1.47248e-07
0
0
0.000112171
0.000123497
4.14607e-05
6.02247e-05
0.000116616
0.000111586
6.49412e-05
7.13295e-05
0.000154229
0.000186801
0.000223764
0.00015873
0.000122882
8.11963e-05
0.000111507
0.000115412
9.28881e-05
0.00012856
0.000110954
9.35383e-05
8.72852e-05
0.000106627
0
0
2.76426e-09
1.95971e-09
0
0
0
0
0
1.32704e-09
0
0
0
0
0
0
0
0
0
0
0
0
4.20378e-09
2.85026e-09
0
0
9.91062e-07
0.000130006
8.09951e-05
6.97142e-05
0.00013887
0.000101826
9.67003e-05
2.19683e-05
4.12547e-05
0.000101866
6.6373e-05
9.18982e-05
9.47713e-05
0.000125046
0.000135162
7.38949e-05
0.000102929
4.04167e-05
1.82469e-09
0
3.65553e-09
0
0
2.32385e-10
0
0
7.56445e-11
0
0
0
0
0
0
0
0
0
0
0
0
0
0
0
5.60082e-09
0
0.000111317
0.000119419
0.00011275
9.67542e-05
0.000102587
8.82185e-05
8.39906e-05
7.90688e-05
9.97418e-05
9.29021e-05
6.71542e-05
8.49308e-05
8.73273e-05
4.72494e-05
5.39051e-05
7.66839e-05
0.000101535
6.75089e-05
0.000160046
9.60616e-05
1.81667e-05
2.8157e-05
5.82744e-05
5.09569e-05
4.79711e-05
5.63179e-05
1.04213e-05
3.35367e-05
1.04652e-05
1.86879e-05
3.34012e-05
1.56184e-05
0.000206172
0.00014977
0.000189451
0.000226108
0.000211484
0.000264497
0.000180207
0.000142058
0.00016651
0.000252461
0.000259874
0.000208832
0.000243965
0.000157943
0.000233465
0.000254551
0.00026579
0.00030084
0.000273077
0.000302444
0.000296938
0.000269457
0.000318283
0.000268693
0.000237763
0.000314346
0.000281437
0.000270132
0.000269768
0.000308354
0.000111724
0.000101892
9.87251e-05
0.000113315
6.45206e-05
1.20303e-05
9.31071e-05
0.000131759
4.06231e-05
0.000132354
2.24066e-05
5.85006e-05
5.85748e-05
9.04997e-05
8.20465e-05
3.62337e-05
1.72027e-05
0.000123692
7.39318e-05
3.47542e-05
6.21125e-05
5.05424e-05
4.58451e-05
0.000111635
5.11291e-05
6.34036e-05
2.82635e-05
5.20492e-05
0.00017114
0.000311977
0.000110308
0.000174896
0.000170822
0.000134387
0.000194211
0.000146977
0.000162599
0.000224378
0.000211926
0.000176082
0.000185444
0.000190841
0.000196825
0.000190695
0.000178539
0.000205699
0.000200573
0.000190019
0.000175922
0.0001521
0.000157562
0.000159483
0.000162759
0.000169264
0.000150726
0.00013418
0.000182254
0.000154933
0.000200712
0.000115054
0.000150578
9.72703e-05
0.000126939
0.000115289
0.000145528
0.00012879
0.000163602
0.000102254
0.000181813
0.000121333
0.000236214
0.000115102
0.000203113
0.000201752
0.000177671
0.000173779
0.000230658
0.000130948
0.000262479
0.000169678
0.000219363
0.000294766
0.000199827
0.000332485
0.000230428
0.000281594
0.000236741
0.000149702
0.000308617
0.000260381
0.000229492
0.000119381
0.000231895
0.00022333
0.000188163
0.00021437
0.000165482
0.000139176
0.000169284
0.00010678
0.000198926
0.000148789
9.25155e-05
7.93847e-05
0.000104216
4.28277e-05
4.18569e-05
8.30751e-05
7.60231e-05
8.20177e-05
7.85848e-05
0.000133907
4.88361e-05
3.12838e-05
2.91675e-05
2.20128e-05
6.46719e-05
0.000116884
0
1.31411e-06
0.000202858
0.000142798
0.000181196
0.000105128
5.31151e-05
3.69383e-05
9.34339e-05
0.000135897
0
0
0
0
3.8843e-09
3.0954e-09
0
0
0
7.2365e-09
0
0
0
0
0
7.29308e-09
0
4.46827e-09
0
0
0
0
0
0
0
0
4.93856e-10
0
0
0
1.76885e-09
0
0
0
0
0
0
0
0
0
0
0
0
0
0
0
0
5.50576e-09
0
1.72797e-09
0
0
0
0
0
0
0
0
0
0
2.30729e-05
0.000123097
0.000104348
2.83654e-05
0.00012859
0.000105548
0.000167048
0.000123769
0.000105586
9.04299e-05
0.000119703
0.000165514
7.97201e-05
0.000105116
0.000101478
0.000108199
8.08346e-05
9.78634e-05
0.000118796
0.00011931
7.70085e-05
8.42033e-05
1.65522e-09
0
1.57119e-09
0
0
0
0
0
0
0
0
0
0
0
0
0
0
0
0
0
0
0
0
6.38159e-09
0
0
5.02984e-05
8.25431e-05
4.05947e-05
4.69273e-05
0.00011135
5.59641e-05
8.32175e-05
2.16146e-05
0.000124157
7.45932e-05
8.31661e-05
8.58453e-06
2.85052e-05
4.44065e-05
8.67649e-05
1.14455e-05
0.000124488
0.000139806
0
0
0
0
0
0
0
0
0
0
0
0
0
0
1.40478e-09
0
0
0
0
5.97991e-10
0
3.98988e-10
0
0
7.89372e-09
0
0
0
0
0
0
0.000107786
8.42513e-05
6.52277e-05
7.58166e-05
9.35223e-05
8.02158e-05
9.88204e-05
7.61187e-05
8.84984e-05
8.71359e-05
6.89661e-05
5.43041e-05
6.43604e-05
2.00985e-05
3.06043e-05
4.71253e-05
3.05954e-05
1.14869e-05
0.00010015
6.80112e-05
0.000154931
9.44183e-05
7.70992e-05
3.13976e-05
1.60172e-05
1.57498e-05
4.99717e-06
1.49882e-06
6.20419e-07
1.4263e-06
8.19348e-06
1.69584e-05
1.08545e-05
0
0
0.000105115
0.000118017
0.000159892
0.000164436
0.000204288
0.000116789
0.000277205
0.00024508
0.000231706
0.000294266
0.000348841
0.000362044
0.000368469
0.000344941
0.000152864
0.000202437
8.10116e-05
8.56325e-05
0.000134846
0.000171619
0.000143329
0.000125408
0.000102394
0.000153865
0.000130117
0.000136907
0.00014324
0.000138438
9.41245e-05
0.000275652
0.000223159
0.000143385
0.000237957
0.000226056
9.80875e-05
0.000225861
0.000140696
0.000185471
0.000265048
0.000207355
0.000145089
0.000169648
0.000202044
0.000162821
0.000324173
0.000189937
0.000272107
0.000160753
0.000236314
0.000281415
0.000289347
0.000280367
0.000292668
0.000296586
0.000283692
0.000312807
0.000274692
0.000304189
0.000271801
0.000303991
0.000257612
0.000291886
0.00025886
0.000150594
7.44258e-05
8.71631e-05
0.000147191
0.000171927
0.000113436
9.46989e-05
8.94763e-05
0.000171987
0.000118879
3.60279e-05
8.12442e-05
0.000124798
0.000107987
0.00012317
0.000114429
0.000105353
9.2648e-05
7.82725e-05
7.42563e-05
7.3658e-05
0.00016037
0.000165057
0.000248283
0.000293303
0.000279632
0.000396598
0.000359608
0.000324709
2.40106e-05
2.61072e-05
3.98766e-05
4.2304e-05
5.95955e-05
3.05096e-05
7.91618e-05
5.82829e-06
2.06811e-05
3.36093e-05
5.45248e-05
0.000115593
0
7.3878e-05
0
0
5.42312e-05
0
0.000152628
0.000136263
9.23435e-05
0.000124328
0.000122551
0.000146409
0.000162724
0.000143454
0.000203181
0.000187411
0.000202117
0.0001572
0.000182983
0.000200258
0.000170145
0.000203958
0.00019502
0.000176341
0.000178138
0.000188334
0.000168211
0.000186979
0.000171779
0.000176826
0.000209987
0.000146282
0.000125453
0.00018231
0.000180496
9.65667e-05
0.000152881
0.000160712
0.000167614
0.0001489
0.000135945
0.00014963
0.000170434
0.000109993
0.000231788
0.000116285
0.000278969
6.2679e-05
0.000180802
0.000173168
0.000121001
0.000132836
0.000189923
0.00012577
0.000242181
0.000118879
0.000222628
0.000264446
0.000326996
0.000193168
0.000200562
0.000254505
0.000159475
0.000216658
0.000278928
0.000213703
0.000142193
6.92884e-05
0.000269232
0.000215554
4.56904e-05
0.000168861
0.0001443
0.000155077
0.000130445
0.000189346
6.36714e-05
0.000116074
2.2652e-05
5.87644e-05
5.59358e-05
4.19546e-05
7.50205e-05
3.96649e-05
3.71115e-05
0
5.94209e-05
8.56826e-06
0
0
0
0
0.000136059
0.000248096
4.2832e-05
3.22814e-05
0
0
0
0
0
2.67893e-09
2.81187e-09
4.2817e-09
0
3.12743e-11
0
0
0
0
0
0
0
0
0
1.04953e-08
0
0
0
0
0
0
0
0
2.75242e-07
0
4.20101e-10
0
0
0
0
0
0
6.88084e-10
0
0
0
8.24221e-10
0
0
0
0
2.87033e-09
0
0
0
0
0
0
0
0
5.63056e-09
0
0
0
0
0
0
0
0
0
0
4.3715e-09
0
0
0
0
6.15569e-09
0.000417944
0.000432291
0.000436827
0.00042979
0.00039113
0.000410299
3.28088e-05
6.60117e-05
1.3134e-05
0.000144003
0.000154894
0.000184427
4.96056e-05
0.000137221
0.000117817
8.45557e-05
0.000107834
5.8795e-05
4.89109e-05
0.00012201
0.000101233
7.76236e-05
6.20858e-05
0.000116224
4.90654e-05
0
0
0
0
0
0
0
0
0
0
0
0
0
7.33222e-05
7.18423e-05
3.75527e-05
0
0
0
0
0
0
0
0
0
0
0
3.80131e-05
7.83696e-05
5.94263e-05
0.000103358
8.58806e-05
5.51285e-05
4.35178e-05
6.89068e-05
3.34326e-05
3.30888e-05
5.67526e-05
4.23585e-05
0.000119532
0.00015867
8.07233e-05
0.000120073
0
2.7875e-10
0
0
0
0
0
0
0
0
0
0
0
8.6271e-09
0
0
0
1.40065e-09
0
0
0
0
0
6.96023e-09
0
0
0
0
0
0
2.33067e-08
0
0
0
0
0
0
8.0355e-05
5.81358e-05
6.18866e-05
9.5643e-05
7.16243e-05
7.91266e-05
6.08925e-05
8.07858e-05
4.99742e-05
3.96978e-05
3.55434e-05
8.43489e-05
4.67269e-05
0
0
0
3.58558e-07
3.89499e-05
8.8432e-06
1.24092e-05
1.69294e-05
7.0672e-06
6.58378e-05
9.09242e-05
3.52162e-05
0
0
0
0
0
0
0
0
0
0
0
0
0.000137665
0.000151198
0.000192253
0.000199008
0.000285493
0.000275173
0.00039531
0.000397981
0.000121934
0.000199938
0.000154338
0.00015657
0.000148832
0.000129198
0.000156101
0.000140299
0.000212602
0.000299361
0.000267159
0.000166278
0.000173078
0.000190976
0.000213578
0.000141648
0.000277524
0.000125653
0.000110806
0.000140172
0.000239763
0.000116381
0.000183164
0.000318109
0.000177413
0.000165589
0.000250917
0.000271448
0.000310823
0.000217765
0.00030093
0.000290818
0.000308774
0.000312475
0.000302169
0.000330195
0.000293059
0.000299571
0.000319892
0.000287325
0.000295686
0.000224176
0.000306203
0.000291718
0.000246099
7.10166e-05
0.000134278
9.94358e-05
0.000213306
0.000104558
0.000111678
0.0001586
0.00015369
0.000108722
9.75558e-05
7.11387e-05
0.000120499
8.22954e-05
0.000188517
0.00010383
8.25873e-05
0.000141751
8.34769e-05
7.97538e-05
5.74496e-05
7.62566e-05
0.000115169
8.27353e-05
0.000140898
0.00020254
0.000220687
0.000228358
0.000301719
0.000258445
0.000335486
0.000373075
5.65779e-05
7.36149e-05
8.21259e-05
0.000473938
0.000464887
0.000437824
4.74488e-05
4.62676e-05
4.546e-06
5.84901e-05
3.7851e-05
0.000124825
0
8.64048e-06
4.30144e-05
0
0
0
0
4.41988e-09
0
2.25456e-09
0
0
4.33706e-05
3.15602e-06
1.21056e-06
8.18293e-05
0.000159203
0.000103613
0.000108309
0.000181397
0.000139879
0.000153497
0.000205081
0.000148909
0.000182809
0.000176656
0.000190008
0.000152571
0.000166674
0.000186465
0.000174669
0.000103024
0.000206511
0.000165688
0.000103523
0.00017379
9.9293e-05
0.000120493
0.000198065
0.000144982
0.000106577
0.000214951
0.000142328
0.000132892
0.000157894
0.000187889
0.000182926
0.000168057
0.00020786
0.000101155
0.0002832
4.59433e-05
0.000206452
0.000118009
0.000141533
0.000137068
0.000118837
0.000211439
0.000112795
0.000233794
0.000223852
0.000184916
0.000315306
0.000244956
0.000198647
0.000217746
0.000185151
0.000204965
0.00017216
0.000113985
0.000147611
0.000381123
0.000236899
1.22545e-05
0.000217521
0.000277797
0
0
0
0
4.57109e-05
3.73712e-05
0.000129418
6.56399e-05
1.7034e-05
0
0
0
0
0
0
0
0
0
0
0
0
0
0
0
0
0
0
0
3.60654e-09
1.58382e-09
0
0
0
0
0
0
0
0
0
0
0
0
6.09754e-08
0
0
0
0
0
0
0
0
2.55205e-07
0
0
0
7.73421e-09
1.3779e-09
0
9.00311e-10
2.48812e-09
0
0
6.52666e-09
0
2.41571e-09
3.85542e-09
0
0
7.90054e-10
9.50423e-10
0
0
0
0
3.41623e-09
0
5.84108e-09
0
0
0
0
0
1.69364e-08
6.40946e-09
0
0
0
0
0
0
0
0
0
0
1.59899e-09
0
0
0
0
0
0
0
0
0.000505039
0.00050536
0.000497893
0.000474471
0.000477597
0.000538147
0.000487003
0.000554022
0.000542704
0.000476763
9.47332e-05
9.21125e-05
4.9485e-05
0.000132404
0.000121993
6.92179e-05
4.44684e-05
8.56597e-05
8.10594e-05
9.78618e-05
7.9174e-05
4.61074e-05
9.57614e-05
3.07263e-05
5.15248e-05
8.02802e-05
4.19272e-05
0
0
0
0
0
0
0
2.63844e-05
3.47401e-05
6.8756e-05
0
0
0
0
1.52561e-05
0
2.25697e-09
0
0
7.41426e-10
0
0
0
0
0
9.50166e-05
1.28173e-05
0.000112196
4.70687e-05
7.04172e-05
6.73662e-05
4.99947e-05
0.000140163
0.000105232
5.67597e-05
3.42007e-05
2.96231e-05
3.2789e-05
5.63796e-05
4.3072e-05
5.07672e-05
0
0
1.07422e-09
3.10741e-09
0
0
3.16174e-09
1.26187e-09
0
0
0
0
0
0
0
1.36517e-08
1.91441e-09
7.91804e-09
0
0
0
1.04796e-09
0
0
0
6.26384e-09
0
0
0
0
0
0
0
0
0
0
0
0
2.96131e-08
0
0
0
0
0
0
3.44301e-05
5.33751e-05
4.60348e-05
5.82095e-05
1.80554e-05
6.98746e-05
5.10884e-05
2.25229e-05
2.84138e-05
4.34925e-07
5.89654e-06
6.67003e-08
9.65452e-07
3.82552e-05
2.66409e-05
0
0
0
0
0
0
2.83664e-07
1.93014e-05
5.8603e-05
7.6495e-05
9.87669e-05
8.75101e-05
0
0
0
3.20947e-09
0
0
0
0
0
0
0
2.75319e-09
0.000193929
0.000178882
0.000232933
0.000220904
0.000303944
0.000322309
0.000415217
0.000465361
0.000494401
0.000554046
0.000547886
0.00058226
0.000558299
0.000587449
0.000125113
0.000185898
9.66751e-05
0.000155824
0.000105225
0.000129844
0.00015915
0.000190043
0.00020971
0.000314763
0.000220274
0.000272366
0.000210389
0.000231852
0.000173493
0.000231314
0.00023093
0.000113559
0.000157797
0.000162651
0.000251738
0.000156512
0.000177188
0.00026356
0.000211511
0.000211084
0.000272911
0.000318234
0.000319784
0.000217506
0.000309196
0.000303073
0.000304648
0.000314335
0.000306599
0.000304571
0.000293974
0.000307757
0.000283298
0.000287783
0.000310047
0.000211598
0.000226552
0.000296364
9.19839e-05
0.000114278
0.000160472
0.00016845
7.55545e-05
0.000122446
0.000190573
0.000191051
0.000136211
6.67036e-05
6.16233e-05
8.25893e-05
0.000259875
5.19358e-05
3.25414e-05
0.000118049
0.000173239
4.77695e-05
2.78045e-05
7.15001e-05
0.000103059
0.000107879
8.18886e-05
0.000147743
0.000158547
0.000204369
0.000188326
0.000264283
0.000220241
0.000313846
0.000322391
0.00042084
0.000447823
0.000106488
8.50275e-05
0.000547318
0.000520038
0
0
0
0
0
0
0
0
2.02009e-09
0
0
0
0
0
0
0
1.1095e-06
0
8.90977e-06
8.40437e-06
1.46343e-06
5.05856e-05
0.000115517
7.47187e-05
0.000146705
0.000142886
8.61502e-05
0.000141344
0.000150023
0.000128351
0.000113461
0.000192457
0.000144388
0.000164522
0.000108612
0.000184881
0.000198551
0.000128356
0.000145981
9.45147e-05
0.000152304
0.000179763
7.14142e-05
4.61797e-05
0.000140646
0.000141061
0.000142791
0.000108445
0.000145813
0.000152647
0.00018265
0.000153034
0.000163697
0.000181712
0.000106334
0.000225516
0.000168488
0.000121145
0.000112649
0.000125204
0.000163071
0.0001275
0.000212338
0.00018757
0.000181101
0.000277412
0.000173268
0.00023108
0.000204748
0.000197305
0.000203354
0.000205002
0.000181967
0.000222791
0.000191042
0.000244042
0.000151508
9.39802e-05
0.000411562
0
0
9.49385e-07
2.03564e-10
0
0
0
0
0
0
0
2.30101e-09
0
1.16943e-08
8.48754e-09
1.31459e-08
1.20523e-08
0
1.13642e-08
2.98394e-06
0
0
0
2.26257e-09
0
2.73945e-09
5.03929e-09
0
0
0
0
0
0
0
6.74042e-09
8.48282e-10
0
0
0
0
0
0
4.65389e-08
0
0
0
0
0
0
0
0
0
0
0
0
0
0
0
0
0
0
0
0
0
0
0
0
0
0
0
0
1.85545e-08
0
0
0
0
0
0
0
0
0
0
2.73574e-08
0
0
0
0
0
0
0
0
0
0
0
0
0
0
0
0
0
0
0
0
0
0
0
0
0
0
0
0
0
1.20287e-09
0
0
0
0
0.000617602
0.000626309
0.000593206
0.000576924
0.000608335
0.000615825
0.00057829
0.000533078
0.000572993
0.000544316
0.00055783
0.000633604
0.000636339
0.000641178
0.000641484
2.41731e-05
7.40941e-05
0.000182215
0.000152895
7.56921e-05
5.04108e-05
1.67428e-05
6.04308e-05
5.31974e-05
5.16559e-05
3.15047e-05
4.20726e-05
6.58415e-05
3.46257e-05
0
0
0
2.9435e-09
0.000123107
3.86391e-05
3.65523e-05
3.78553e-09
0
0.000145934
0
0
0
0
0
0
0
0
5.16683e-10
0
1.4556e-10
0
0
0
4.51095e-05
9.93818e-05
5.50874e-05
6.57951e-05
0.000137784
4.38818e-05
6.21676e-05
4.85236e-05
4.23441e-05
0.000120557
6.46195e-05
5.09813e-05
4.81364e-05
7.96261e-05
7.85373e-05
0.000122118
0
1.06108e-09
0
0
0
0
0
1.04097e-10
0
0
7.0495e-10
0
0
0
0
0
0
0
0
8.85696e-11
0
0
0
0
0
0
0
0
0
0
0
0
0
0
0
0
0
0
1.10803e-09
6.17161e-09
0
0
0
0
0
0
0
0
0
0
0
0
0
0
0
0
0
5.31835e-05
4.45856e-05
3.24865e-05
3.07381e-05
2.84783e-05
1.43672e-05
1.73505e-05
8.14944e-06
1.00487e-05
7.93981e-06
5.69458e-06
0
0
0
0
1.37934e-05
1.39929e-05
0
0
0
0
5.81067e-05
0.000109452
2.98719e-05
0
0
3.81428e-05
0
2.06556e-05
0
0
0
0
5.38637e-09
9.252e-09
0
0
0
0
0
0
0.000232914
0.00020397
0.000285498
0.000240271
0.000318039
0.000369042
0.000393358
0.000471128
0.000527445
0.000482094
0.000643005
0.000652173
0.000565684
0.000214059
0.000153423
0.000140815
0.00011278
0.000149448
0.00012795
0.000245856
0.000189809
0.000295978
0.000225355
0.000256603
0.000254381
0.000210436
0.000268923
0.000200951
0.000299578
0.000203569
0.000177069
0.000209835
0.000219849
0.000187659
0.000260226
0.000167317
0.000259372
0.000317048
0.000228673
0.000267717
0.000333254
0.000188287
0.000296254
0.000271766
0.000316928
0.000304661
0.00027393
0.000289907
0.000297114
0.0003068
0.000269413
0.000310526
0.000241673
0.000211792
0.000304035
0.000304423
0.000225711
7.14786e-05
0.000105608
0.000172682
0.000240655
0.000138988
0.000188457
0.000212307
0.000206514
0.000127817
0.000148429
3.42001e-05
6.13093e-05
6.24404e-05
7.92752e-05
0.000104644
0.000171024
0.000174752
0.000155825
0.000109523
4.36468e-05
0.000168453
4.41638e-05
6.89976e-05
0.000111793
0.000115169
0.000131622
0.000118934
0.000147255
0.000169157
0.000170821
0.000218615
0.000256011
0.000282043
0.000354311
0.00040404
0.000490014
0.000499289
0.000124622
9.84842e-05
0.000564152
0.000578499
0
0
3.18333e-09
0
0
2.44988e-09
5.22145e-09
0
0
0
0
4.09842e-09
2.11502e-09
0
0
0
0
0
1.20854e-05
1.56349e-05
0
5.48878e-05
8.10031e-05
6.04465e-05
9.09633e-05
0.000120389
0.000142515
0.000122812
9.61545e-05
0.000186036
0.000152384
0.000119618
0.00020003
0.000177377
0.000245721
0.00019073
0.000142292
0.000216669
7.0272e-05
0.000146705
0.000192384
0.000126753
5.21516e-05
6.841e-05
0.000141207
0.000115174
9.29186e-05
0.000116566
0.000162588
0.000154984
0.000146259
0.00014171
0.000146431
9.45303e-05
0.000116473
0.000125283
8.67765e-05
9.38746e-05
0.00013025
0.000117702
0.000185177
0.000155976
0.000191067
0.000214107
0.00021925
0.00016068
0.00023058
0.00016118
0.000173582
0.000226947
0.000169474
0.000184708
0.000132156
0.000151556
0.000202563
0.000158215
0.000140391
0.000170844
0
0
3.86247e-09
0
0
0
0
1.21682e-08
0
5.75812e-09
0
0
0
9.98223e-09
1.08509e-08
1.38389e-08
1.59863e-08
7.96643e-09
3.45722e-08
0
0
0
0
0
0
6.14433e-09
0
0
0
0
0
0
0
0
0
4.76966e-09
0
0
0
8.28943e-07
0
0
0
3.4792e-08
0
0
0
0
0
0
0
0
0
0
0
0
0
0
7.36997e-07
0
0
0
0
0
1.05244e-09
4.47051e-10
9.81693e-10
0
0
0
0
0
0
0
0
0
0
0
0
0
0
0
0
0
0
0
0
0
0
0
0
0
0
0
0
0
0
0
0
0
0
0
0
0
0
0
1.19649e-09
0
0
0
5.6899e-10
0
0
1.74551e-10
4.88065e-09
0
0.000670868
0.00061046
0.000643879
0.000655779
0.000648571
0.000661083
0.000677424
0.000621722
0.000643383
0.000617033
0.000655104
0.000674595
0.000696741
0.000684504
0.000688805
0.000692915
0.000645513
0.000676476
0.000689459
3.14686e-05
3.47358e-05
4.80509e-05
1.28756e-05
6.13257e-05
0.000101797
2.5286e-05
5.85492e-05
1.36396e-05
2.35875e-05
1.58968e-05
4.71074e-05
1.92579e-05
6.02102e-05
0
0
8.95115e-05
3.70099e-05
4.18343e-05
0
0
5.01469e-05
4.09429e-05
0
0
0
0
0
0
0
0
5.67695e-09
0
0
0
0
0
0
3.77859e-05
9.69679e-05
2.92026e-05
0.000115322
6.88949e-05
7.24214e-05
5.62773e-05
7.26854e-05
0.000126315
9.96124e-05
6.9173e-05
8.41876e-05
8.77884e-05
0
0
0
0
0
0
1.15016e-09
1.32502e-09
0
0
1.38429e-09
0
0
0
0
0
0
3.35216e-07
0
0
0
0
0
0
0
0
0
0
1.97336e-08
0
0
0
0
0
0
0
0
0
0
0
0
0
0
0
0
0
0
0
0
0
0
7.72668e-09
0
0
0
0
0
0
0
0
0
0
0
5.43118e-05
2.13737e-05
3.21482e-05
1.91342e-05
2.01306e-05
1.00279e-05
2.27697e-05
9.80529e-06
2.67016e-06
0
0
0
0
0
0
0
0
0
0
0
0
0
0
1.49542e-05
1.47047e-05
0
0
0
6.48576e-05
2.37588e-05
1.89913e-05
0
0
0
2.1964e-09
0
0
0
0
0
0
0
0
0.000298925
0.00028582
0.00032369
0.000391681
0.000360819
0.000430438
0.000465446
0.000501956
0.000550573
0.000639788
0.000588544
0.000686028
0.00065139
0.000671062
0.00019253
0.000204107
0.000162516
0.000146068
0.00016759
0.000178045
0.00029993
0.000217226
0.000273311
0.00022911
0.000238544
0.000255786
0.000201089
0.000279658
0.000222713
0.000360905
0.000255803
0.000193382
0.000231942
0.000249505
0.000306969
0.000270966
0.000176988
0.000209255
0.000207286
0.000387649
0.000214761
0.000301944
0.000183379
9.48682e-05
0.0002398
0.000301167
0.000270398
0.000276982
0.000246732
0.000288523
0.00024697
0.000268989
0.000264211
0.00024952
0.000226217
0.000287725
0.000261385
0.000259967
0.000208615
7.55419e-05
0.000215009
0.000245503
0.000179955
0.00013085
0.000199978
0.000274017
3.12525e-05
0.000117475
6.1998e-05
0.000109624
2.39815e-05
9.18387e-05
4.83783e-05
0.000114178
3.91399e-05
0.000178765
0.000161904
0.00011919
0.000163958
0.000128159
0.000147366
0.000133712
0.000104487
0.000162663
0.000137073
0.000235071
0.000216165
0.000293006
0.000345201
0.000401299
0.00043318
0.00047251
0.000498309
0.000126661
0.00010796
0.000548511
0.000529203
0
0
0
0
0
0
0
0
0
5.16746e-09
0
0
0
0
0
0
5.11563e-09
0
0
2.9017e-06
0
3.77509e-05
0.00010827
9.92197e-05
7.97394e-05