/*--------------------------------*- C++ -*----------------------------------*\
  =========                 |
  \\      /  F ield         | OpenFOAM: The Open Source CFD Toolbox
   \\    /   O peration     | Website:  https://openfoam.org
    \\  /    A nd           | Version:  8
     \\/     M anipulation  |
\*---------------------------------------------------------------------------*/
FoamFile
{
    version     2.0;
    format      ascii;
    class       volScalarField;
    location    "2280";
    object      H;
}
// * * * * * * * * * * * * * * * * * * * * * * * * * * * * * * * * * * * * * //

dimensions      [0 1 0 0 0 0 0];

internalField   nonuniform List<scalar> 
526318
(
0.911913
0.871648
0.946285
0.850868
0.921881
0.879593
0.891519
0.81135
0.878425
0.750504
0.736578
0.851917
0.796656
0.838567
0.799879
0.824906
0.800235
0.995689
0.907035
0.949331
0.946945
0.900323
0.660797
0.903433
0.78592
0.651667
0.921949
0.925345
0.927699
0.942972
0.966188
1.01124
0.999231
0.879544
0.876442
0.85269
0.85398
0.949573
0.873638
0.806337
0.873321
0.855417
0.512241
0.566638
0.469213
0.523714
0.497586
0.613949
0.803732
0.699578
0.782442
0.785791
0.739617
0.693522
0.199574
0.439985
0.43713
0.234889
0.957544
0.967324
0.983298
0.939416
0.885923
1.00726
1.01059
0.968551
0.958306
0.951779
0.851518
0.852333
0.96319
0.740847
0.799975
0.690151
0.647696
0.63398
0.732923
0.723059
0.644699
0.681421
0.76893
0.768663
0.718984
0.673402
0.702277
0.767884
0.760985
0.752618
0.701431
0.774451
0.677173
0.626271
0.615085
0.553451
0.547167
0.552329
0.547017
0.547066
0.544159
0.547111
0.00100468
1.19308e-06
0.00942455
0.0443263
0.107721
0.000730941
0.454318
0.269773
0.581284
0.543728
0.584509
0.702602
0.926018
0.816262
0.929577
0.936417
1.00328
0.977938
1.02235
0.540702
0.539403
0.547054
0.542692
0.50288
0.542413
0.453531
0.494924
0.405107
0.454505
0.403538
0.405067
0.393853
0.36892
0.360406
0.387968
0.328779
0.382848
0.333403
0.353049
0.296989
0.303866
0.32564
0.352976
0.339481
0.297352
0.297702
0.313914
0.301807
0.297302
0.303689
0.318071
0.304265
0.308475
0.309651
0.309426
0.273936
0.308622
0.312346
0.275828
0.23109
0.311192
0.257398
0.315765
0.80858
0.901438
0.85116
0.829437
0.634489
0.70683
0.633727
0.636028
0.634469
0.636538
0.655555
0.636208
0.569021
0.541579
0.50736
0.449172
0.510815
0.549018
0.549067
0.552322
0.438913
0.487782
0.37516
0.384811
0.392938
0.384972
0.387757
0.388315
0.380756
0.379977
0.377837
0.368092
0.348173
0.371913
0.364448
0.334309
0.31533
0.342443
0.327037
0.318933
0.339723
0.327148
0.332512
0.294237
0.311712
0.340325
0.342025
0.789707
0.805852
0.841765
0.831681
0.789377
0.791594
0.793697
0.666844
0.707595
0.449768
0.433923
0.438928
0.558386
0.700034
0.566026
0.597074
0.613609
0.550779
0.528899
0.0359951
7.29435e-06
0.182615
0.377165
0.00027704
9.76159e-09
0.00100084
0.000255125
0.000396609
0.000963311
1.00612
0.98371
1.03442
1.03053
1.00134
0.988114
0.895532
0.980662
0.825965
0.770562
0.770199
0.770949
0.771428
0.772588
0.757156
0.758024
0.674332
0.742196
0.556691
0.610629
0.541116
0.554624
0.00100874
6.09025e-11
0.000107434
0.000999634
0.0194672
0.000262538
0.0185923
0.170338
0.551874
0.366937
0.599933
0.603097
0.716123
0.813336
0.93834
0.93864
0.973535
0.952328
1.02079
1.05024
0.521749
0.521604
0.48318
0.452088
0.349592
0.38839
0.313684
0.321435
0.313707
0.306435
0.297209
0.302082
0.228659
0.254843
0.286721
0.328267
0.379969
0.347581
0.309127
0.306735
0.241035
0.233549
0.280997
0.338242
0.259513
0.295991
0.298339
0.266391
0.261616
0.230388
0.227161
0.189919
0.189053
0.190502
0.181106
0.30501
0.344709
0.308075
0.346428
0.700403
0.66908
0.566486
0.655042
0.569567
0.626519
0.633936
0.623186
0.634788
0.635548
0.547341
0.4626
0.3895
0.372034
0.445407
0.392607
0.376835
0.489794
0.381066
0.430088
0.366692
0.366101
0.374117
0.365905
0.381734
0.374451
0.374545
0.380775
0.379525
0.376091
0.385363
0.381159
0.391694
0.390556
0.391184
0.371843
0.383987
0.369376
0.342113
0.344164
0.37045
0.400147
0.392789
0.369268
0.352868
0.376347
0.419592
0.416702
0.429948
0.389866
0.424342
0.443681
0.480506
0.43236
0.436215
0.464676
0.496831
0.616399
0.685915
0.613544
0.635244
0.712491
0.797499
0.681625
0.548641
0.667365
0.570579
0.588603
0.319303
0.271566
0.301022
0.294162
0.410967
0.530283
0.454724
0.529862
0.521032
0.549307
0.524648
0.000691698
0.000397377
0.100058
8.24821e-07
0.181035
0.0647939
0.000599399
0.00123548
0.000209249
0.00100962
0.000664765
0.00100889
0.000730728
0.000955715
0.000582482
0.000952703
1.03201
1.01725
1.05537
1.04746
1.02347
1.00078
0.920176
0.838903
0.769501
0.780595
0.758948
0.754495
0.73901
0.734607
0.721358
0.71715
0.669364
0.708573
0.635412
0.577854
0.522584
0.481689
0.000956836
0.0012164
0.000989225
0.000663073
0.00035416
0.000718604
0.000569306
0.000420374
0.00121553
0.00121212
0.000657242
0.00100984
0.00078504
0.00100942
0.00134225
0.00017911
0.000238807
0.000578091
0.000970625
0.00101024
0.000104274
0.000925286
0.084635
0.0622601
0.258701
0.104414
0.463641
0.626667
0.636385
0.729511
0.948195
0.846124
0.966218
0.961441
0.977031
1.00514
1.03968
1.05722
0.442006
0.43961
0.391337
0.422233
0.358597
0.322775
0.314255
0.312859
0.307705
0.312945
0.265355
0.260376
0.210172
0.222917
0.279027
0.252252
0.225757
0.26905
0.263879
0.282561
0.195355
0.180503
0.201075
0.214369
0.217681
0.173348
0.178503
0.172753
0.181045
0.164424
0.16258
0.458971
0.44161
0.436727
0.43715
0.459193
0.563542
0.519957
0.502701
0.383926
0.427794
0.412949
0.418839
0.319947
0.255557
0.433553
0.539933
0.431966
0.439219
0.414613
0.498523
0.476676
0.549905
0.581836
0.508833
0.489713
0.525512
0.399764
0.374898
0.371627
0.36972
0.288657
0.346816
0.268204
0.220417
0.200138
0.319452
0.317637
0.365997
0.367631
0.365401
0.37181
0.365924
0.375407
0.369117
0.381352
0.373531
0.389251
0.385695
0.392807
0.390786
0.419305
0.404168
0.430814
0.431663
0.384403
0.365219
0.429862
0.41348
0.402374
0.417483
0.399688
0.38948
0.439749
0.419851
0.522276
0.528947
0.483146
0.523249
0.529252
0.494344
0.589343
0.561815
0.635526
0.650266
0.677419
0.584338
0.59073
0.587454
0.557094
0.536332
0.504987
0.587063
0.447778
0.418195
0.469915
0.491118
0.170271
0.222213
0.295405
0.420211
0.444956
0.492536
0.403439
0.34829
0.318111
0.263748
0.000965631
0.00059563
0.00101668
5.33783e-06
0.0988903
0.166461
0.000993891
0.000234006
0.00100979
0.000545241
0.00024476
0.000470015
0.000926911
0.000208943
0.000660945
0.000986846
0.000766556
0.000551352
0.000138864
0.000388285
0.00097475
0.00101
0.000133445
0.00100014
0.000978036
0.000382967
0.00118369
0.000966323
0.000977095
0.00118343
0.00118343
0.00118345
0.00084293
0.000999494
0.000972368
0.000201819
9.59135e-05
0.000989075
0.000892979
0.0009482
0.00100959
0.000881287
0.00100838
0.000997328
2.70386e-05
0.000968823
1.02468
1.03264
1.05362
1.04664
1.0223
0.952378
0.769771
0.859368
0.741717
0.740089
0.724486
0.718528
0.711469
0.710469
0.705604
0.703472
0.651772
0.620928
0.52434
0.561625
0.420883
0.460119
0.000851104
0.000624444
0.000948563
0.000967574
0.000969827
0.000959968
0.000986514
0.000867944
0.000998153
0.000707615
0.000677989
0.000965569
0.000971308
0.000759356
0.000363775
0.000983729
0.000690401
0.00100737
0.000803925
0.000839513
0.000369052
0.000975289
0.000889611
0.000483341
0.00126571
0.000992097
0.000919582
9.07407e-05
1.07506e-05
0.000352403
0.123665
0.000185008
0.144802
0.140868
0.443004
0.268773
0.646175
0.606386
0.674765
0.777525
0.884476
0.961077
0.976778
0.967495
1.00347
1.03755
1.02212
1.02163
0.00101
0.000734461
0.000886173
0.000276154
0.000942406
0.000922867
0.00081396
0.000927473
0.000890554
0.000762235
0.000975785
0.00092383
0.000794854
6.36832e-07
0.000705754
0.00104389
0.000170373
0.421789
0.41853
0.419776
0.384301
0.308016
0.338493
0.26693
0.25707
0.223119
0.216851
0.172996
0.17061
0.203207
0.195349
0.159481
0.199765
0.195198
0.238031
0.217004
0.220177
0.141912
0.114939
0.114526
0.155431
0.162554
0.165728
0.139136
0.143777
0.10431
0.0933143
0.0559871
0.0631843
0.662517
0.6307
0.670788
0.682896
0.631685
0.583854
0.755891
0.774106
0.840078
0.850266
0.396395
0.438393
0.488814
0.568646
0.397671
0.339975
0.378432
0.372224
0.209305
0.265974
0.315259
0.203029
0.416564
0.417741
0.414639
0.415779
0.434834
0.413268
0.430371
0.444322
0.324968
0.322416
0.214832
0.302506
0.294586
0.253384
0.205347
0.22659
0.165124
0.186405
0.166972
0.252666
0.316524
0.246197
0.313612
0.368651
0.36951
0.365337
0.368336
0.372085
0.389887
0.385595
0.403364
0.396107
0.417866
0.416201
0.435766
0.43342
0.435002
0.435035
0.443722
0.437678
0.480423
0.449567
0.418571
0.418875
0.483474
0.45283
0.457852
0.500782
0.536996
0.538658
0.535238
0.539378
0.573587
0.62591
0.687198
0.7068
0.716101
0.695019
0.837403
0.772793
0.90204
0.942071
0.930823
0.973867
1.02606
0.889719
0.979821
1.00167
1.07643
1.12621
1.15318
1.17138
1.20113
1.14529
1.20318
1.15966
1.23624
1.23719
1.28898
1.25855
1.31429
1.3485
1.33437
1.28761
1.34826
1.37335
1.33739
1.33618
1.40108
1.37745
1.41234
1.35134
1.35183
1.41448
1.38088
1.33747
1.33646
1.37247
1.40039
0.396715
0.349069
0.522369
0.518821
0.49187
0.482214
0.48617
0.247611
0.385006
0.0898831
0.113655
0.222458
0.201176
0.0779589
0.169253
0.129143
0.322592
0.239585
0.210627
0.135231
0.130803
0.136019
0.158283
0.00034943
0.00107132
0.000845785
0.000179488
0.000908539
6.15414e-05
0.00101
0.000966006
0.000995857
0.00070576
2.3351e-05
0.00124488
0.000842141
0.000928041
0.000844807
0.000857564
0.000172184
0.00069126
0.000943677
0.000831092
0.00111699
0.00081931
0.00012748
0.000146108
0.000949
0.000255762
1.53441e-05
1.61879e-05
0.000990101
0.000818938
0.00100231
0.000829579
0.00091624
0.000410555
0.000483556
0.000699892
0.000762255
0.000945839
0.000939563
0.00101363
0.0010096
0.00099283
0.00135959
0.000900456
0.00117409
0.000925686
0.0011738
0.00117382
0.00119212
0.000926273
0.00117347
0.00117349
0.000263555
0.000906271
0.00103408
0.000926026
0.000920623
0.000377029
0.000991017
0.000960908
0.00100744
0.000997061
0.000136942
0.000969509
0.000950381
0.000921886
0.000915695
0.000919934
0.000937199
0.00135459
0.000901299
0.000968314
1.015
1.00082
0.974789
0.974499
0.884915
0.963793
0.78675
0.723598
0.709862
0.70924
0.710976
0.70786
0.649208
0.661345
0.50306
0.461297
0.419899
0.593818
0.590887
0.543746
0.542078
0.539204
0.000818536
0.000487087
0.0012667
0.00126588
0.000967853
0.000410537
0.000584682
0.000410365
0.000992278
0.00102386
0.000161511
0.00100893
0.000992648
0.000944764
0.000297472
0.000985833
0.000726155
0.00091818
0.00021426
0.00077028
0.000579515
0.000951565
0.00111796
0.00111818
0.000383351
8.20428e-06
0.000451626
0.143166
0.274473
0.143161
0.435226
0.608219
0.633724
0.665446
0.749394
0.857021
0.9281
0.902453
0.951789
0.883342
0.928407
0.977259
0.932629
0.926443
0.00125571
0.000963629
0.00110861
0.000849207
0.000993557
0.00120775
0.000636615
0.000795975
0.00120772
0.00098429
0.00099196
0.00100515
0.000836763
1.14836e-05
0.00080328
0.000729553
0.000776991
0.000656439
0.00098774
0.000236686
0.000248866
0.0003305
0.00096459
0.000837119
0.00132146
0.000473441
0.393552
0.394986
0.315836
0.328165
0.209457
0.2302
0.167464
0.168437
0.167404
0.167514
0.140035
0.142893
0.117735
0.110817
0.093381
0.130894
0.224121
0.169309
0.220847
0.213125
0.0302812
0.0524598
0.0991236
0.0704224
0.0816849
0.0839315
0.0322762
0.023325
0.0101492
0.022348
0.028148
0.0278176
0.884749
0.883333
0.711246
0.628839
0.613919
0.59796
0.8835
0.794024
1.03619
1.11639
1.01221
0.933413
1.1284
1.10842
1.17737
1.22439
1.25436
1.25854
1.28329
1.25854
1.3124
1.33854
1.33444
1.33475
1.35251
1.33805
1.33873
1.38372
1.32875
1.32218
0.448339
0.373101
0.518052
0.584355
0.376861
0.31444
0.376943
0.37004
0.19434
0.252497
0.0871183
0.255076
0.14048
0.414137
0.358716
0.415812
0.407687
0.41574
0.308425
0.212654
0.135307
0.12165
0.134611
0.17244
0.100358
0.0801415
0.00972674
0.101991
0.179544
0.174291
0.0914451
0.19428
0.262768
0.208592
0.314967
0.260556
0.303825
0.359329
0.393232
0.372382
0.407588
0.406182
0.418912
0.410296
0.441258
0.449808
0.449426
0.466153
0.470289
0.47423
0.504188
0.517659
0.509615
0.501245
0.507745
0.497275
0.515705
0.531814
0.577605
0.571409
0.540536
0.572788
0.567985
0.599444
0.633904
0.696884
0.726503
0.727362
0.740035
0.804479
0.891148
0.960644
0.976188
1.10519
0.977785
1.0264
1.17722
1.20396
1.20122
1.23904
1.28628
1.33646
1.34654
1.34992
1.38097
1.4066
1.43551
1.42971
1.44059
1.43517
1.43293
1.41158
1.35099
1.41536
1.38703
1.33898
1.33752
1.3708
1.40068
1.41025
1.33903
1.39996
1.35917
0.17685
0.168794
0.240435
0.320101
0.212733
0.269479
0.412901
0.349991
0.373713
0.206701
0.11262
0.0790606
0.0807834
0.182652
0.171417
2.5048e-08
0.000807677
0.137011
0.0152438
0.12993
0.127541
0.138454
0.122249
0.15171
0.157949
0.000871197
0.000837817
0.000904459
0.000815593
0.00129399
0.00129373
0.00086849
0.000172666
0.000904358
0.00124433
0.000981197
0.000943468
0.000498984
0.000315336
0.000533623
0.0010412
0.000701751
0.00111648
0.000934557
0.000984534
0.000929289
0.000660221
0.000998234
0.000701989
0.00100779
0.000868975
0.0010537
0.000960747
0.000819375
0.000709956
0.00119465
0.000105408
0.000999557
0.000884356
0.000262817
0.000849466
0.000544652
0.000893442
0.000765323
0.000997944
0.000988067
0.000823507
0.000978339
0.000943996
0.000974885
0.00092222
0.000279051
0.00152739
0.000948971
0.00106627
0.000914705
0.00100962
0.000641972
0.000367709
0.000916152
0.000960434
0.000952942
0.000892128
0.000791435
0.000479733
0.93014
0.921665
0.907727
0.908301
0.840095
0.899676
0.709064
0.778376
0.671072
0.675826
0.614608
0.596997
0.544522
0.543033
0.457947
0.35623
0.330035
0.498732
0.544825
0.544144
0.541652
0.53931
0.00126751
0.000990139
0.00126797
0.000274114
0.000956527
0.000945818
0.000982176
0.00099334
0.000967193
0.000813892
0.000135327
0.000443454
0.000999665
0.000979554
0.00060297
0.00100999
0.00098232
3.53596e-05
0.000985985
0.000873381
0.000276721
0.000849196
0.00047267
0.00105168
0.000322902
5.38411e-05
0.107806
0.140051
0.338676
0.171743
0.474895
0.609466
0.583541
0.690195
0.859842
0.761971
0.838031
0.841956
0.829973
0.86129
0.915129
0.912957
0.922092
0.886727
0.000769413
0.000922585
0.000573493
0.000958878
0.000712787
0.000933944
0.000627141
0.000311966
0.000810173
0.000879841
0.000957505
0.000891854
0.000967271
0.000694159
0.00102067
0.000867182
0.00096514
0.000987798
0.000863594
0.00107165
0.000724917
0.00107173
0.000907015
0.00091839
0.0010221
0.000860782
0.000668131
0.000493976
0.000136748
0.000756032
0.000938482
0.270851
0.265287
0.23372
0.21241
0.166963
0.189233
0.155903
0.157041
0.311332
0.252146
0.234207
0.0834307
0.0922428
0.0261807
0.0253263
0.0917566
0.096767
0.0858598
0.125671
0.189399
0.135889
0.183466
0.163111
0.0525992
0.0286287
0.0455128
0.0662543
0.000456157
0.000564171
0.000683924
0.00480144
0.0198346
0.0084885
0.000957609
0.000746706
1.4599
1.46556
1.4991
1.47114
1.514
1.50549
1.52743
1.5168
1.57657
1.55856
1.52492
1.5765
1.5421
1.5976
1.42685
1.37801
1.3985
1.44645
1.43029
1.398
1.4004
1.45313
1.45962
1.43328
1.41525
1.46682
1.45155
1.45561
1.48551
1.33823
1.33995
1.34099
1.33759
1.35675
1.37898
0.93123
0.872363
0.770189
0.678639
0.584689
0.66351
0.867608
0.846481
1.08328
1.1114
0.994213
1.07829
1.11474
1.16607
1.21424
1.25621
1.25532
1.25696
1.25376
1.28502
1.29638
1.3228
1.30865
1.31172
1.31355
1.32646
1.30145
1.30251
0.497106
0.423665
0.369463
0.358712
0.414612
0.58293
0.567112
0.294702
0.352978
0.224789
0.158003
1.44436
1.46317
1.48105
1.489
1.49128
1.50347
1.50896
1.53625
1.51941
1.54093
1.5349
1.58836
1.60575
1.63292
1.62857
1.63587
1.65032
1.67097
0.132043
0.081068
0.0803011
0.341191
0.229875
0.399918
0.302085
0.218357
0.115837
0.123625
0.120367
0.121553
0.000926167
0.0478739
0.000368995
0.000932987
0.00511113
4.58987e-112
0.185973
0.119058
0.0115398
0.209873
0.209301
0.21119
0.264791
0.220607
0.347217
0.297861
0.384675
0.346894
0.384105
0.410646
0.430408
0.456537
0.478359
0.478944
0.486782
0.480077
0.535751
0.524631
0.517128
0.516945
0.566474
0.543383
0.611777
0.574344
0.554315
0.596848
0.648835
0.632683
0.658077
0.694828
0.692745
0.640631
0.750481
0.776087
0.747852
0.740934
0.820335
0.904578
0.9745
1.04563
0.992894
1.00609
1.13647
1.19772
1.23782
1.21966
1.28328
1.31573
1.35646
1.37207
1.36928
1.38528
1.44145
1.42852
1.4418
1.44922
1.43605
1.42191
1.44304
1.43623
1.42961
1.43114
1.43217
0.165185
0.154995
0.18168
0.102054
0.123249
0.135784
0.0766272
0.221682
0.12327
0.0536626
0.0754578
0.054754
0.000241829
0.0572412
0.0784769
0.000858472
3.97675e-21
3.35772e-09
0.000828811
0.1288
0.0161839
0.027633
0.0229268
0.000832686
2.2546e-10
0.0001917
0.000953536
0.000928626
0.00112269
0.00112251
0.00129346
0.000647008
0.00109841
0.000955369
0.000776109
0.00096702
0.000896738
0.000998449
0.00026155
0.000888291
0.00100984
0.00092666
0.00112226
0.00075369
0.000398457
0.000668916
0.000969842
0.000270015
0.000740386
8.61564e-07
8.23363e-05
0.00236476
0.000302912
0.00101022
0.000694792
0.000545923
0.000960813
0.000395011
0.00100993
0.000970553
0.00102281
0.000981481
0.000999516
0.000690589
0.00117493
0.000968494
0.000683387
0.00096931
0.00085871
0.00117516
0.00089779
0.000955844
0.000631827
0.000258775
0.000803578
0.000964465
0.000941166
0.000838222
0.00107298
0.000359457
0.000860837
0.000709605
0.000978177
0.000925692
0.000935309
0.00093217
0.00091709
0.000695524
0.000567275
0.00171704
0.000263986
0.000674617
0.000835469
0.000977878
0.00171432
1.62626
1.59115
1.56669
1.66769
1.70124
1.69669
0.908792
0.902392
0.885441
0.885893
0.811005
0.872146
0.706997
0.628829
0.556957
0.57467
0.541896
0.543827
0.541629
0.542489
0.419475
0.341296
0.426221
0.508067
0.504119
0.00093523
0.000866039
0.000875173
0.000890082
0.00095502
0.000963454
0.0009791
0.000493094
0.000952111
0.000556963
0.00100943
0.00100702
0.000860931
0.109084
0.138478
0.166502
0.00100998
0.000498781
0.000128694
0.000939282
4.59314e-06
0.000267721
0.000921556
0.000849706
0.000611909
0.000783296
0.000311105
0.309776
0.451411
0.563386
0.561577
0.887643
0.80193
0.817518
0.599444
0.692411
0.781412
0.832548
0.832987
0.832578
0.852836
0.880071
0.867923
0.000766663
0.00109622
0.000627199
0.000982796
0.00087078
0.000905511
0.00100904
0.000845157
0.000779897
0.000910434
0.000817811
0.000932446
0.000763197
0.00111526
0.000978212
0.000903382
0.000929381
0.00109031
0.000987667
0.000998908
0.00090143
0.000895539
0.000803256
0.00110082
0.000964155
0.000885777
0.000462082
0.000801713
0.000962731
0.00100068
0.00113755
0.000984843
0.000791152
0.000981068
0.000797896
0.00101
0.001009
0.269432
0.302167
0.292217
0.235016
0.231641
0.203204
0.226403
0.0937224
0.121631
0.0344603
0.0338821
0.236222
0.228344
0.000398222
0.000922108
0.000923672
0.00163389
0.0462505
0.025763
0.0651566
0.0101594
0.130583
0.0879455
0.135148
0.145044
0.000682803
0.000694742
0.000706292
0.000261385
0.000863895
0.000551523
0.000693939
0.000165696
0.000360653
0.000994303
8.71897e-06
0.000979051
1.45772
1.47329
1.49433
1.51942
1.52557
1.52506
1.56265
1.53858
1.3923
1.38985
1.37372
1.39421
1.42555
1.39013
1.43213
1.41026
1.32775
1.31227
1.31298
1.34625
1.37438
1.34765
0.939688
0.85454
0.754446
0.840188
0.689079
0.598174
0.851692
0.856523
1.09264
1.09463
1.11174
1.0067
1.08944
1.19909
1.14236
1.08652
1.12779
1.22948
1.246
1.23444
1.24357
1.2493
1.27353
1.2998
1.29054
1.29983
1.30117
1.30018
1.29858
1.30152
1.29925
0.341095
0.347716
0.486789
0.563724
0.348618
0.424417
0.580888
0.591261
0.337715
0.269745
0.18839
0.252911
1.4725
1.43831
1.45068
1.49955
1.4955
1.49786
1.5101
1.53098
1.5529
1.56212
1.56508
1.57038
1.58871
1.62781
1.61548
1.63257
1.64613
1.69379
1.674
1.50414
1.51472
1.53213
1.70207
1.70233
1.70094
0.0804625
0.0802446
0.0812234
0.054729
0.150869
0.161916
0.000404361
0.00626772
0.0423999
0.00039774
0.000857687
0.0010283
0.000803115
0.00139727
0.00056391
0.00139718
0.000969713
1.79778e-07
0.0634035
0.000280537
0.00203343
0.138825
0.215261
0.127895
0.284107
0.313994
0.242894
0.287661
0.350425
0.314055
0.440186
0.380458
0.453498
0.472485
0.480173
0.466058
0.512582
0.551803
0.590912
0.591792
0.597023
0.585833
0.611191
0.590875
0.646474
0.645567
0.669939
0.67327
0.645305
0.646575
0.766188
0.813865
0.712866
0.77478
0.822038
0.785444
0.885292
0.933698
1.02732
1.06934
1.04641
1.1377
1.19379
1.29128
1.2783
1.33816
1.3086
1.40372
1.41402
1.40558
1.43475
1.4655
1.46043
1.51953
1.48181
1.50832
1.4632
1.48718
1.5101
1.42135
1.46929
1.43897
0.00038606
0.00107634
0.000922825
0.000670352
0.0922984
0.0762883
0.0728801
0.0579577
0.0742724
0.000597415
2.8209e-05
0.000565949
0.00013414
0.00013401
0.000552568
0.000411929
0.000133185
6.75955e-06
0.000302915
3.6394e-05
0.00092496
0.000712867
7.1806e-07
0.000338335
0.000978557
0.000427567
0.000999883
0.000224457
0.00112249
0.00112245
0.0009477
0.000995782
0.000992745
3.82214e-05
0.00101
0.000912008
0.0010004
0.000112849
0.00044385
0.000919656
0.000792429
0.000297927
0.00143357
0.000126065
0.000984734
7.72131e-05
0.0009581
0.000364482
0.000989929
2.55198e-05
0.000995118
0.002164
0.000974494
0.000134455
0.00095676
0.00133526
0.0010988
0.000478127
0.00101429
0.00101431
0.000465046
0.000981826
0.00102453
0.000877054
0.0011755
0.00117517
0.000961963
0.000972286
0.00117561
0.00117524
0.000955402
0.000831929
0.000711032
0.000919589
0.00121349
0.000124621
0.00121313
0.000969121
0.00098702
0.000966821
0.000996572
0.00102229
0.00104918
0.00105426
0.000893207
0.000805878
0.000827454
1.24245e-05
9.12481e-06
0
0.000956924
0.000799517
0.000430028
0.000901306
0.00109871
0.000923733
0.00100958
0.00100998
0.000998481
0.000998553
0.000946811
0.000914726
0.00101
1.58547
1.59584
1.60071
1.60037
1.63623
1.74371
1.71902
1.72002
1.74503
1.68497
0.814169
0.797501
0.736396
0.737222
0.697134
0.723731
0.63727
0.590176
0.575529
0.541836
0.516182
0.517984
0.427288
0.437055
0.307658
0.351185
0.346395
0.000529692
0.000965684
0.000913493
0.00101
0.000994913
0.000958706
0.000787685
0.141973
0.279506
0.138759
0.000919443
0.000194133
0.000939635
0.000973276
0.0063045
0.000775581
0.0010111
0.000947297
0.000970702
0.00102307
0.000849804
0.00098658
0.000944045
0.000847483
0.00025022
0.681143
0.67583
0.722421
0.422101
0.564823
0.559426
0.598783
0.723173
0.79208
0.751576
0.659878
0.741829
0.772353
0.777494
0.693189
0.721962
0.000957717
0.000997503
0.00109656
0.001074
0.000406962
0.000957652
0.00107572
0.00127996
0.000937721
0.000999095
0.000161435
0.000942647
0.00096803
0.000936631
0.000510229
0.00293195
0.00293197
0.00293181
0.000382157
0.00094347
0.000827964
0.00111294
0.000909607
0.000954991
0.000911508
0.0010381
0
0
0
0.000945975
0.000905119
0.000967225
0.00100048
0.000836671
0.000437222
0.000902611
0.000930546
0.000993984
0.000973284
0.000330773
0.000914357
0.000959611
0.00100117
0.000686934
0.000957376
0.284963
0.295036
0.309252
0.173301
0.194015
0.151301
0.151039
0.081784
0.0732725
0.000339153
0.000523361
0.00164383
0.00263806
0.0878215
0.0823524
0.000406739
0.000584601
0.000242686
0.000584634
0.000203484
0.000671765
0.000614303
0.0473226
0.133054
0.0972549
0.167057
0.110566
0.000105983
0.00084334
0.000741535
0.00126944
0.000312228
0.000747328
0.000708576
0.000346646
0.00101
0.000942721
0.000729172
0.00138615
1.46349
1.41689
1.49491
1.45545
1.46434
1.50753
1.49919
1.5494
1.52791
1.57851
1.5427
1.51226
1.57842
1.54319
1.3582
1.35861
1.34913
1.36114
1.37634
1.38329
1.38672
1.3899
1.30029
1.2994
1.32389
1.30925
1.33964
1.347
0.941806
0.857063
0.777958
0.852766
0.646582
0.742438
0.854377
0.861074
1.08501
1.08661
1.09356
1.01432
1.1728
1.22032
1.13214
1.08589
1.22659
1.22583
1.23983
1.22683
1.26536
1.28542
1.29873
1.29508
1.29679
1.29804
1.30064
1.29789
1.29706
1.29761
0.343667
0.32973
0.505805
0.576125
0.482248
0.402747
0.629807
0.57758
0.307985
0.337835
0.300065
0.226137
1.48808
1.50692
1.48413
1.52159
1.53723
1.52535
1.55889
1.57099
1.55158
1.56279
1.55216
1.56269
1.56636
1.59118
1.61165
1.63139
1.62875
1.68182
1.66138
1.7091
1.71719
1.58596
1.59739
1.71791
1.72612
0.000437086
0.000310883
0.000735887
0.000715324
0.000549352
0.000106789
0.00020072
0.00022877
0.00104642
1.12051e-05
0.000927799
0.000258474
0.000566386
0.000657476
5.07035e-06
0.000780461
0.00193588
0.000604404
0.00345483
0.00347054
0.00123086
0.0639803
0.211723
0.116137
0.302771
0.305398
0.26887
0.221383
0.341419
0.379475
0.440059
0.430213
0.453984
0.441015
0.558145
0.50432
0.608866
0.601965
0.629974
0.633662
0.60824
0.665456
0.709564
0.68238
0.668562
0.69202
0.744391
0.732063
0.71242
0.753679
0.836238
0.834451
0.830656
0.850821
0.979938
0.898298
1.06712
1.09136
1.0934
1.16159
1.23622
1.31382
1.3188
1.33527
1.37747
1.43189
1.46268
1.46628
1.50232
1.47649
1.529
1.54236
1.54216
1.54403
1.54215
1.54997
1.49472
1.53652
1.52088
0.000845194
5.49865e-05
0.00558318
0.00102611
0.000789746
0.00017712
0.000766658
0.000288583
0.000826553
0.000545345
0.000713438
0.00124347
0.000268423
0.00124184
0.00124321
0.00124095
0.00123961
0.000968418
0.00123856
0.00511362
0.00100023
0.000638589
0.000184916
0.00231215
0.000302441
0.00208425
0.00225294
0.000497684
0.000524016
0.00100217
0.000993637
0.000687571
0.000932002
0.000441579
0.00111971
0.00103437
0.000791422
0.000959982
0.00100986
0.000887496
0.000962023
0.0009956
0.00137077
0.000968647
0.000146754
1.36216e-05
0.000607696
0.00096357
0.000988249
0.000479144
0.000826696
0.000963253
0.00100941
0.00031059
0.000133779
0.000987756
0.00100992
0.000817418
0.000560979
0.000908215
0.00101
0.000799183
0.000975053
0.000279366
0.000904827
0.00095865
0.000927253
0.00101
0.000954704
0.000876282
0.000949405
0.00102194
0.00097168
0.000773375
0.000984106
0.000952799
0.000946755
0.00098992
0.000934564
0.000964099
0.000974876
0.000974485
0.00135917
0.000976152
0.000905098
0.000676078
0
0
0
0
0
0
0
0
0
0
0
0
0
0
0
0
0
0
0
0.00099334
0.000900429
0.000937661
0.000812305
0.000955267
0.000436148
0.000952648
0.00111136
0.000325168
0.000811332
0.000317982
0.000878445
1.7707
1.7584
1.7761
1.7691
1.77834
1.77766
1.6135
1.61778
1.68597
1.65147
1.74454
1.76832
1.74318
1.6281
1.57572
0.674243
0.678887
0.670784
0.665292
0.672962
0.607482
0.655162
0.436777
0.494329
0.358216
0.360002
0.308104
0.30781
0.306758
4.53839e-05
0.000938139
0.00049897
0.00132655
0.113416
0.306467
0.139864
0.00104237
0.000841812
0.0957876
5.34485e-05
0.000971966
0.000945796
0.000976708
0.000982643
0.000717645
0.000366526
0.000974626
0.0010242
0.000193922
0.00102383
0.000932938
0.0004632
0.000759535
0.678648
0.677267
0.679531
0.67792
0.679903
0.38802
0.506293
0.448026
0.570525
0.628659
0.653316
0.584257
0.670185
0.620724
0.61879
0.605596
0.000954778
0.00115355
0.000622172
0.000970576
0.000973219
0.000935143
0.000955291
0.00101904
9.8865e-05
0.000686113
0.00101054
0.000485131
6.92933e-05
0.000527482
0.00098964
0.000616055
0.000763669
0.000919235
0.000884306
0.00101603
0.00069526
0.000939259
0.000740767
0.000726241
0.000621516
0.00100951
0.000739043
0.000823674
0.000354107
2.15212e-05
0
0
0
0
0
0.000969416
0.000983618
0.000907267
0.00118567
0.00110314
0.000642717
0.000835369
0.000411245
0.00099024
0.00101447
0.000964926
0.000965413
0.00073615
0.001038
0.000787048
0.000894438
0
0
0
0
0
0
0.283146
0.215466
0.200767
0.129402
0.122497
0.0404475
0.0266853
0.0180895
0.0172819
0.00651404
0.0174367
0.000833539
0.000875036
0.000550644
0.00033854
0.0177556
0.0219681
0.000795758
0.000905726
0.000971356
0.000993322
0.0913736
0.15354
0.0767607
0.000603628
0.000710854
0.026909
0.000861933
0.0444273
0.00027789
0.000687127
1.31742e-05
0.000467482
0.00182812
0.00183037
0.000741817
0.000959699
0.000281529
0.000798649
0.00100972
0.000818552
1.4251
1.40966
1.43482
1.43488
1.43476
1.45493
1.47592
1.49488
1.49469
1.49627
1.58009
1.53652
1.50048
1.34781
1.34867
1.37277
1.36431
1.38255
1.38896
1.4072
1.39466
1.29951
1.3044
1.32817
1.31386
1.32848
1.33637
0.978866
0.898286
0.819627
0.856702
0.801902
0.708328
0.89115
0.858967
1.09013
1.09508
1.05032
1.1013
1.18179
1.22836
1.09262
1.14221
1.23258
1.22618
1.24773
1.23532
1.27692
1.28928
1.29416
1.29109
1.29528
1.29253
1.29517
1.29669
1.29584
1.29375
0.332287
0.396161
0.579034
0.558574
0.476812
0.562915
0.58094
0.654904
0.323687
0.321827
0.309593
0.236812
0.0719878
0.113933
0.198416
1.55303
1.54163
1.57877
1.56028
1.59134
1.60297
1.60009
1.59976
1.63571
1.61919
1.62807
1.59541
1.62617
1.63628
1.66063
1.68036
1.69496
1.69041
1.74534
1.74543
1.76934
1.74707
1.65691
1.66243
1.7814
1.77895
0.000170865
0.000293636
0.00103419
8.95089e-06
0.000729054
0.00125857
0.00125843
0.000773311
0.000305007
0.000156407
0.000197658
0.00183471
0.00134508
0.000326823
0.000822227
0.000835447
0.00100232
0.000690721
0.0537687
0.014479
0.000181429
0.107929
0.144599
0.165536
0.153222
0.25219
0.319779
0.200552
0.424085
0.36299
0.434569
0.436568
0.525618
0.466595
0.589389
0.620343
0.615434
0.620187
0.746277
0.711199
0.680816
0.736295
0.760959
0.75292
0.748875
0.737958
0.753768
0.753185
0.832361
0.87845
0.914111
0.871396
0.916048
0.939616
1.08418
1.01337
1.10527
1.09605
1.17307
1.25181
1.33572
1.33394
1.36758
1.40839
1.48375
1.46924
1.49374
1.49795
1.52584
1.53584
1.55253
1.54724
1.55316
1.55326
1.54643
1.55216
1.54368
1.5395
0.000972756
0.000964504
0.00106367
0.000764897
0.000962536
0.000657298
0.000566723
0.00125663
0.000857779
0.00124461
0.000318574
0.000903598
0.000295436
0.00124425
0.00124315
0.00124277
0.0012432
0.00124129
0.00124212
0.000329365
0.000371652
0.00100886
0.000717288
0.000938422
0.000788581
0.00100179
0.000993216
0.000997704
0.000180038
0.000954666
0.000624923
0.00101
0.000209386
0.000798967
0.00100863
0.00103415
0.000762293
0.000881619
0.000854334
0.00385222
5.45108e-05
0.000210438
0.00024578
0.00100994
0.000902067
6.57154e-09
0.000990547
0.00100983
0.000290087
0.000848872
0.00100647
0.000131712
0.00100976
0.000959372
0.000191843
0.000986414
0.000975827
0.000995823
0.00325317
0.000980885
0.000759889
0.00098777
0.000863877
0.000790481
0.0011114
0.00111102
0.00111068
0.000896489
0.000943214
0.000938694
0.000973731
0.000935172
0.000927075
0.000961192
0.000874935
0.000897996
0.000947049
0.000951887
0.000925848
1.67713e-05
0.000881191
0.00092376
0.0003855
0.000414352
0.00098456
0
0
0
0
0
0
0
0
0
0
0
0
0
0
0
0
0
0
0
0.000981313
0.000947104
0.00101251
0.000935432
0.000885025
0.000833678
0.00120218
0.00067336
0.000771623
0.00115231
0.00109395
0.000966435
1.78998
1.81269
1.82216
1.77743
1.78308
1.76796
1.77704
1.66403
1.68567