/*--------------------------------*- C++ -*----------------------------------*\
  =========                 |
  \\      /  F ield         | OpenFOAM: The Open Source CFD Toolbox
   \\    /   O peration     | Website:  https://openfoam.org
    \\  /    A nd           | Version:  8
     \\/     M anipulation  |
\*---------------------------------------------------------------------------*/
FoamFile
{
    version     2.0;
    format      ascii;
    class       volScalarField;
    location    "17820";
    object      H;
}
// * * * * * * * * * * * * * * * * * * * * * * * * * * * * * * * * * * * * * //

dimensions      [0 1 0 0 0 0 0];

internalField   nonuniform List<scalar> 
526318
(
1.63677
1.56924
1.64194
1.56943
1.64089
1.58545
1.6014
1.52746
1.59316
1.45964
1.44796
1.5601
1.51236
1.54635
1.50585
1.52457
1.5164
1.7059
1.60315
1.65666
1.64342
1.60147
1.36733
1.61529
1.48604
1.35613
1.63212
1.63513
1.63746
1.64238
1.68068
1.71655
1.70373
1.57819
1.57396
1.57729
1.55167
1.63311
1.56586
1.52923
1.56892
1.57718
1.22834
1.27443
1.17425
1.22812
1.20448
1.31954
1.50205
1.39162
1.47577
1.51049
1.43011
1.41183
0.900422
1.14131
1.14214
0.940534
1.64688
1.67318
1.69663
1.63594
1.57844
1.72367
1.70567
1.67494
1.64639
1.65718
1.5614
1.56619
1.66162
1.43881
1.49591
1.39656
1.34196
1.33607
1.4307
1.42793
1.35046
1.38539
1.47537
1.46599
1.42101
1.3776
1.40162
1.47127
1.47347
1.45474
1.40613
1.47557
1.38497
1.32591
1.32289
1.25952
1.25072
1.25544
1.25369
1.24943
1.24399
1.24849
0.688045
0.618105
0.706662
0.746102
0.812081
0.592691
1.16049
0.965111
1.28764
1.2414
1.28965
1.41093
1.63698
1.51754
1.62849
1.64565
1.69974
1.68259
1.72748
1.24282
1.24698
1.24529
1.24659
1.20402
1.24127
1.1579
1.19681
1.10968
1.1586
1.10627
1.10729
1.09899
1.07279
1.06609
1.09124
1.03314
1.08802
1.03785
1.05537
1.00148
1.00718
1.02786
1.05615
1.04321
1.00153
1.00382
1.01731
1.00919
1.00261
1.00787
1.02276
1.00816
1.01544
1.01017
1.01431
0.980848
1.01425
1.00993
0.976736
0.933892
1.01131
0.963799
1.02084
1.50493
1.60894
1.54705
1.52089
1.34287
1.40146
1.33764
1.3426
1.33147
1.3412
1.35247
1.34376
1.27904
1.24093
1.21203
1.15597
1.21328
1.25401
1.25108
1.25481
1.1428
1.1902
1.07787
1.08832
1.09852
1.08856
1.08936
1.09355
1.08099
1.08305
1.07811
1.06883
1.05113
1.07382
1.06873
1.03835
1.01762
1.04839
1.0303
1.02442
1.04358
1.03268
1.03625
0.998106
1.01759
1.04757
1.04747
1.49138
1.53175
1.54388
1.50648
1.5001
1.50079
1.50177
1.36099
1.41666
1.16548
1.13609
1.13154
1.26863
1.38553
1.27661
1.30439
1.31238
1.24566
1.25036
0.7366
0.541691
0.886217
1.07757
0.324215
0.177491
0.463756
0.576104
0.538326
0.537463
1.69257
1.69598
1.73861
1.72787
1.69273
1.67801
1.59527
1.67838
1.53674
1.47203
1.47714
1.47326
1.47716
1.47755
1.46337
1.46417
1.37853
1.44878
1.26046
1.31976
1.24113
1.25634
0.0620115
2.47097e-17
0.444562
0.222183
0.725903
0.65904
0.717296
0.877619
1.25791
1.06421
1.30474
1.30157
1.41677
1.5168
1.64542
1.64146
1.66954
1.65295
1.72091
1.74792
1.22195
1.22577
1.18341
1.15704
1.05583
1.0901
1.0177
1.02694
1.01776
1.01087
1.00305
1.00674
0.932364
0.95765
0.991436
1.02981
1.08319
1.05179
1.01334
1.01021
0.946388
0.936583
0.98706
1.04093
0.965028
1.00211
1.00605
0.974993
0.967721
0.939042
0.931994
0.896549
0.894433
0.897864
0.884562
1.00918
1.04711
1.00946
1.05093
1.40587
1.36654
1.26834
1.35119
1.27248
1.32642
1.33212
1.33312
1.33668
1.34095
1.25071
1.16288
1.09276
1.07923
1.15285
1.09425
1.0831
1.18928
1.07848
1.13508
1.06758
1.07413
1.08355
1.06907
1.08499
1.07926
1.07714
1.08076
1.07889
1.07717
1.08738
1.08173
1.09388
1.09353
1.09683
1.07317
1.09104
1.07182
1.04832
1.04732
1.07314
1.10503
1.09625
1.07211
1.05566
1.07925
1.12002
1.12167
1.13255
1.09389
1.12626
1.14321
1.18333
1.13318
1.14016
1.1626
1.19649
1.32572
1.37794
1.3038
1.34886
1.40134
1.48931
1.37431
1.25487
1.38201
1.28559
1.28106
1.0362
0.96748
1.00983
0.984864
1.11467
1.23445
1.16909
1.21954
1.24127
1.24832
1.23086
0.51484
0.642764
0.793935
0.650087
0.889619
0.764135
0.000584297
0.064279
1.52125e-10
0.00100962
2.07719e-11
0.0660551
0.28915
0.521121
0.425638
0.447563
1.71988
1.72832
1.77309
1.7456
1.72973
1.70915
1.62309
1.54047
1.48033
1.48713
1.46574
1.46125
1.44793
1.44541
1.42558
1.42423
1.37039
1.418
1.34037
1.27841
1.22475
1.18276
0.000943126
0.00107242
0.00107243
0.000663073
0.00063212
0.000731205
0.000582127
0.00107244
0.0010725
0.00107243
0.00100999
0.00100984
0.000550093
0.00100942
0.000857462
0.000172183
0.000555876
0.061435
0.0691158
0.224844
0.691131
0.479868
0.787256
0.767574
0.962111
0.802266
1.16477
1.32999
1.34067
1.43338
1.64871
1.54537
1.67235
1.66327
1.67791
1.71786
1.73587
1.753
1.14147
1.142
1.09828
1.12203
1.06077
1.02745
1.0172
1.01701
1.01278
1.01752
0.970199
0.968386
0.911088
0.924917
0.98182
0.953598
0.926492
0.973013
0.967074
0.987519
0.89349
0.886527
0.906794
0.919583
0.926146
0.877028
0.886008
0.877771
0.886306
0.86652
0.866195
1.16441
1.13858
1.13836
1.14033
1.15966
1.26572
1.22473
1.20408
1.08733
1.13233
1.11632
1.12172
1.02117
0.956377
1.13192
1.24292
1.13043
1.1515
1.13279
1.19999
1.18289
1.26086
1.29189
1.20797
1.18983
1.22913
1.10834
1.07534
1.0777
1.07588
0.993928
1.04479
0.967857
0.919653
0.911393
1.0293
1.02058
1.07619
1.07195
1.07026
1.07268
1.0698
1.07448
1.0718
1.08154
1.07573
1.09255
1.08884
1.09662
1.09382
1.12029
1.10853
1.13287
1.13785
1.08694
1.06712
1.13541
1.11601
1.10315
1.1203
1.10228
1.09211
1.1441
1.11972
1.22222
1.22998
1.18238
1.22394
1.23147
1.19759
1.29005
1.26225
1.33158
1.35069
1.37641
1.29651
1.29154
1.28809
1.2516
1.26962
1.21153
1.30948
1.15828
1.12087
1.17441
1.18916
0.868176
0.933213
1.00804
1.12988
1.16294
1.1956
1.09755
1.06768
1.0229
0.966745
0.341749
0.399434
0.684328
0.483977
0.803806
0.874944
0.000993891
0.000234006
0.00100979
0.000545241
0.000714307
1.29066e-05
0.373673
0.115851
0.270046
0.284252
0.000766556
0.000551352
0.000138864
0.000388285
0.00097475
0.00101
0.000140191
0.000999779
0.000889416
0.000425035
0.001136
0.000778648
0.000973646
0.00113584
0.00113584
0.00113585
0.000916216
0.000999494
0.0009727
0.000201819
9.59135e-05
0.000989075
0.000892979
0.0009482
0.00100959
0.000881287
0.00100965
0.000996543
2.65749e-05
0.000931251
1.73088
1.73888
1.76734
1.75153
1.73727
1.66863
1.47831
1.55653
1.45088
1.44215
1.42579
1.42494
1.41553
1.42226
1.40839
1.41162
1.3547
1.32472
1.22169
1.26479
1.12188
1.16226
0.000902499
0.000636742
0.000948563
0.000967574
0.000969466
0.000982262
0.000983985
0.000870723
0.00101
0.000938084
0.000677989
0.000965569
0.000971308
0.000759356
0.000380116
0.000991326
0.000690401
0.00100737
0.000803925
0.000839513
0.000369052
0.000975289
0.000889611
0.000439439
0.000630232
0.00127207
0.156677
0.136303
0.19698
0.387982
0.836354
0.630031
0.846038
0.849659
1.14344
0.97378
1.3507
1.31133
1.37389
1.48456
1.58464
1.66557
1.68001
1.66562
1.71284
1.74205
1.72803
1.70756
0.00114005
0.000875558
0.000886173
0.00022353
0.000682632
0.000987943
0.00081396
0.000938866
0.000890554
0.000725685
0.000975785
0.00092383
0.000794854
2.99799e-07
0.000880516
0.00101
0.000170373
1.12153
1.12268
1.12105
1.08965
1.01057
1.04141
0.970492
0.960626
0.929765
0.921868
0.877963
0.878742
0.905577
0.900491
0.862489
0.896584
0.891856
0.941546
0.924923
0.923941
0.844801
0.816589
0.814609
0.858876
0.869381
0.865762
0.84103
0.849047
0.807845
0.796738
0.760386
0.765217
1.36405
1.32947
1.37112
1.37991
1.33006
1.28589
1.45271
1.47656
1.53928
1.54876
1.09769
1.13992
1.18904
1.27342
1.09816
1.04151
1.07874
1.07701
0.915889
0.970296
1.031
0.905773
1.12732
1.11524
1.11558
1.13199
1.1441
1.12056
1.13462
1.15034
1.029
1.02333
0.92435
1.00604
0.996288
0.959324
0.911677
0.927845
0.869134
0.887339
0.878618
0.963775
1.02102
0.949425
1.01623
1.07094
1.06795
1.06957
1.07268
1.07331
1.09238
1.08979
1.10709
1.09887
1.12116
1.11733
1.13989
1.1379
1.14148
1.13878
1.14904
1.14085
1.18214
1.15528
1.11968
1.12006
1.18625
1.15251
1.16021
1.20126
1.2401
1.24012
1.24003
1.24105
1.27175
1.32442
1.38838
1.40719
1.4184
1.39464
1.53791
1.47659
1.60314
1.64389
1.63403
1.6737
1.72929
1.59214
1.68069
1.70381
1.77871
1.82816
1.85343
1.87428
1.90385
1.84752
1.90257
1.86014
1.94018
1.94075
1.98831
1.95673
2.019
2.04769
2.03825
1.98695
2.05215
2.07486
2.04324
2.03923
2.10444
2.08279
2.11242
2.05413
2.05344
2.11764
2.085
2.03785
2.03794
2.06902
2.10244
1.08776
1.05937
1.23734
1.22011
1.19036
1.18444
1.17364
0.944083
1.08726
0.791438
0.820685
0.92052
0.905952
0.778997
0.871127
0.850001
1.03076
0.932388
0.926772
0.842977
0.827078
0.838522
0.866814
0.370527
0.255714
0.652981
0.468516
0.660179
0.607438
0.00101
0.000966006
0.000995857
0.000384139
0.000523607
0.000711016
0.00145669
0.235296
0.149228
0.152234
0.000265528
0.00069126
0.000943677
0.000831092
0.00137701
0.0004556
0.00012748
0.000146108
0.000949
0.000431299
6.93167e-06
1.61879e-05
0.000990101
0.00093513
0.00100829
0.000664975
0.000911134
0.000410555
0.0010095
0.000992465
0.000895735
0.000988794
0.000682483
0.00100665
0.000974989
0.000926586
0.00101
0.00057983
0.00101484
0.000924812
0.00101265
0.00101874
0.000968485
0.00101446
0.00101404
0.00101338
0.000462085
0.000535562
0.000993933
0.000773625
0.000877713
0.00099375
0.000922247
0.000776475
0.0010078
0.000994205
0.000136415
0.000956593
0.000950381
0.000921886
0.000915695
0.000919934
0.000616216
0.00101
0.000623175
0.000968314
1.72181
1.69666
1.68535
1.67257
1.59602
1.66793
1.50291
1.42225
1.42114
1.41862
1.4173
1.41743
1.35507
1.36042
1.20174
1.1639
1.12168
1.29029
1.29759
1.24536
1.24686
1.24362
0.00081225
0.000382097
0.00115285
0.00115283
0.000962471
0.000414864
0.00093308
0.000410365
0.00115283
0.000916804
0.000161511
0.00100893
0.000972717
0.000941946
0.000297472
0.000985833
0.000726155
0.00091818
0.000175967
0.000894221
0.238766
0.0366622
0.235532
0.268855
0.501767
0.287434
0.691619
0.849814
0.974004
0.848494
1.13943
1.30643
1.33724
1.36728
1.4572
1.56212
1.62861
1.60555
1.63928
1.58825
1.64536
1.67886
1.63881
1.63498
0.00101
0.000865295
0.00100993
0.000849207
0.000924318
0.001192
0.000759957
0.000801821
0.001192
0.000964874
0.000981161
0.000996251
1.35625e-05
1.51015e-05
0.00101
0.000411253
9.78928e-13
0.00072123
0.00101
0.000253336
0.000277025
0.000765241
0.00096459
0.000879022
0.00220617
0.00101147
1.09701
1.09628
1.01795
1.03108
0.91306
0.93098
0.873026
0.873786
0.872295
0.875821
0.844918
0.847969
0.819639
0.817958
0.794257
0.834619
0.914342
0.874012
0.915046
0.915579
0.735668
0.757925
0.798952
0.776834
0.786106
0.78805
0.734693
0.728892
0.714607
0.724177
0.734972
0.733656
1.58471
1.58256
1.41166
1.32549
1.31391
1.30136
1.5804
1.49158
1.74095
1.81838
1.71398
1.63584
1.83166
1.81243
1.87847
1.92771
1.95821
1.95635
1.98649
1.95777
2.01303
2.04018
2.03473
2.03478
2.04976
2.03679
2.03595
2.08291
2.02706
2.02284
1.14843
1.07622
1.21763
1.28966
1.07784
1.02327
1.07696
1.07683
0.905434
0.960136
0.796341
0.953844
0.842971
1.12088
1.07178
1.12367
1.11948
1.11614
1.01157
0.92098
0.839469
0.826437
0.841598
0.870515
0.801075
0.789227
0.716448
0.808568
0.881194
0.881452
0.79725
0.902231
0.967462
0.907409
1.01765
0.960642
1.0051
1.0616
1.09698
1.07577
1.11102
1.10847
1.12101
1.11327
1.14663
1.15538
1.1554
1.16949
1.17431
1.17656
1.20881
1.21918
1.21102
1.20505
1.20805
1.20025
1.21877
1.23412
1.27913
1.27364
1.2399
1.27192
1.26838
1.29831
1.33502
1.3972
1.42857
1.42956
1.44106
1.50866
1.59255
1.66476
1.6787
1.80496
1.67892
1.72974
1.88003
1.90407
1.90356
1.93996
1.9888
2.03637
2.04815
2.0502
2.07903
2.10615
2.13378
2.13304
2.13247
2.1343
2.13353
2.11489
2.04935
2.11451
2.08132
2.03501
2.0347
2.06684
2.09915
2.10898
2.03604
2.09726
2.05604
0.888392
0.872454
0.956192
1.03367
0.910959
0.976302
1.12945
1.05357
1.08222
0.920545
0.816734
0.789828
0.782142
0.882523
0.877347
0.52792
0.654111
0.843321
0.716114
0.819454
0.847388
0.854997
0.817091
0.84175
0.867878
0.063143
0.195184
0.321882
0.476216
0.509242
0.493952
0.00086849
0.000172666
0.000348616
0.00101
0.000353655
0.000632917
3.01404e-06
0.000305727
0.000139003
0.000924451
0.000515155
0.00137679
0.000928609
0.00101
0.000865852
0.000660221
0.000998234
0.000701989
0.000938544
0.000874495
0.00105184
0.000943287
0.000791252
0.000751098
0.000990039
7.57449e-05
0.00099613
0.000976554
0.000151024
0.000618537
0.000544652
0.000936558
0.000848613
0.00100226
0.000987375
0.00101853
0.000978339
0.000944855
0.000974885
0.00092222
0.000207016
0.000979907
0.000919067
0.00101
0.000732523
0.00100962
0.000641972
0.000367709
0.000916152
0.000960434
0.000965236
0.000892128
0.000582234
0.000479733
1.63003
1.61934
1.62032
1.61369
1.55489
1.60856
1.4205
1.47593
1.37378
1.37396
1.32508
1.30116
1.24773
1.24789
1.15954
1.05756
1.03287
1.20269
1.24349
1.24258
1.24396
1.24871
0.00115291
0.000971528
0.00115292
0.000737848
0.000973634
0.000973647
0.00094649
0.000972052
0.00100548
0.000830393
0.000135327
0.000443538
0.00093376
0.000997208
0.00060297
0.00100999
0.00098232
3.53596e-05
0.000613726
0.000727674
0.108414
0.239849
0.325264
0.269303
0.480454
0.663301
0.814972
0.845357
1.03606
0.874869
1.18103
1.31236
1.28552
1.39507
1.56089
1.4627
1.55008
1.54448
1.53034
1.56162
1.63102
1.60718
1.62641
1.60392
0.000769413
0.000922585
0.000563688
0.000958878
0.000712787
0.000933944
0.000627141
0.000452485
0.000820802
0.000879841
0.000957505
0.000856862
0.000968979
1.41067e-20
0.000922039
0.000873917
0.00096514
0.000987798
0.000743529
0.00100999
0.000468733
2.33918e-09
0.00206357
0.000901385
0.00101
0.000860782
0.000668131
0.000489708
0.000136748
6.82042e-18
0.00098545
0.970919
0.971
0.932985
0.914094
0.871278
0.892014
0.861268
0.859488
1.01569
0.956698
0.935372
0.78653
0.798843
0.727718
0.730021
0.796179
0.796814
0.786067
0.827561
0.888483
0.839897
0.878483
0.861921
0.75793
0.73701
0.752427
0.770856
0.69576
0.694779
0.695923
0.704493
0.721724
0.710793
0.676026
0.683684
2.15944
2.16711
2.1964
2.17391
2.21576
2.20102
2.22591
2.21676
2.27367
2.26018
2.22831
2.27726
2.23677
2.29785
2.12534
2.0772
2.09736
2.14553
2.12949
2.09847
2.10132
2.15363
2.16006
2.13581
2.11584
2.16754
2.15275
2.15978
2.18421
2.03569
2.03484
2.03484
2.03448
2.05425
2.07491
1.63079
1.57332
1.46973
1.37381
1.28809
1.36329
1.56445
1.54575
1.78843
1.81381
1.69736
1.78117
1.82001
1.86917
1.91594
1.95862
1.95509
1.9579
1.95335
1.98458
1.99591
2.02272
2.00828
2.01109
2.01354
2.02257
2.0016
2.00056
1.19778
1.12673
1.07089
1.05993
1.11742
1.2896
1.26826
0.999284
1.05742
0.929229
0.861753
2.14128
2.16224
2.17883
2.18675
2.19086
2.20253
2.20767
2.23427
2.21989
2.23797
2.23727
2.28492
2.30913
2.33009
2.33151
2.33713
2.34851
2.37056
0.831793
0.780451
0.780736
1.03952
0.933514
1.11019
1.00204
0.93111
0.828839
0.822421
0.822208
0.826398
0.67459
0.753679
0.608634
0.627374
0.709156
0.629658
0.887345
0.820285
0.716365
0.91487
0.908478
0.916676
0.970961
0.921219
1.05236
0.998687
1.08618
1.05089
1.0866
1.11124
1.1362
1.15766
1.17986
1.18127
1.18904
1.18271
1.24046
1.22758
1.22172
1.2196
1.27192
1.24675
1.31583
1.27585
1.25822
1.30101
1.34249
1.33533
1.35794
1.39574
1.39642
1.33884
1.45157
1.48042
1.45226
1.44034
1.52405
1.60612
1.67909
1.74622
1.69401
1.70979
1.83864
1.89798
1.9404
1.92075
1.9859
2.01574
2.05592
2.0727
2.06626
2.08437
2.14194
2.12345
2.13415
2.14445
2.13565
2.1335
2.13168
2.13373
2.13161
2.13242
2.13154
0.869023
0.863987
0.890221
0.814279
0.823765
0.850921
0.774125
0.919193
0.822265
0.763411
0.773397
0.754365
0.665297
0.761742
0.773968
0.56318
0.561433
0.509204
0.624158
0.846664
0.716712
0.753706
0.715877
0.527307
0.387219
0.202944
0.22539
0.116742
0.000596665
0.00114085
0.517336
0.32085
0.499865
0.531895
0.000776109
0.00096702
0.000896738
0.000998449
0.00026155
0.000888291
0.00100984
0.000894905
0.00100983
0.000200908
0.000398457
0.000668916
0.00101
0.000330569
0.000740386
2.31098e-19
1.11523e-12
0.00241054
0.000379096
0.000850418
0.000694792
0.000545923
0.000997667
0.0003892
0.00100993
0.000972649
0.000977525
0.000963111
0.000999516
0.000744241
0.00101262
0.000936388
0.000731185
0.00098518
0.000652419
0.000987668
0.00089779
0.000955844
0.000631827
0.000258775
0.000727473
0.000964465
0.000941166
0.000838222
0.00101
0.000334973
0.000769708
0.000685233
0.000978177
0.000925692
0.000935309
0.000880754
0.00091709
0.000695524
0.000567275
0.00214439
0.000167904
0.000674617
0.000835469
0.000899226
0.00214436
2.32661
2.29119
2.26345
2.3649
2.40202
2.39542
1.61755
1.61519
1.59905
1.58821
1.50584
1.5797
1.41958
1.33875
1.2658
1.2797
1.24514
1.24227
1.25264
1.24644
1.12088
1.04235
1.13327
1.20851
1.20844
0.00093523
0.000755382
0.000875173
0.000890082
0.000922295
0.0009764
0.000965395
0.000493094
0.000931051
0.000554111
0.00100943
0.000959595
0.000969088
0.810516
0.847929
0.867339
0.00100998
0.000498781
0.000125561
0.000927014
0.0988659
0.0003339
0.273388
0.315854
0.469971
0.345152
0.652636
1.01187
1.14862
1.26477
1.26281
1.58701
1.50187
1.5181
1.30115
1.39958
1.47759
1.53499
1.54743
1.53672
1.54679
1.5845
1.56008
0.000689967
0.00117045
0.000627402
0.000982796
0.000704864
0.000720222
0.00100904
0.000845157
0.00071885
0.000865554
0.000823186
0.000932446
0.000763197
0.000831138
0.000896425
0.000478615
0.000627663
0.00100504
0.000978863
0.000935387
0.000938185
0.000682923
0.000770427
0.000937995
0.000997599
0.000978674
0.000347723
0.000953032
0.000978459
0.000973622
0.00101
0.000984843
0.000871643
0.000978065
0.000827832
0.00097511
0.000811322
0.973079
1.00692
0.994772
0.933829
0.934683
0.906329
0.928804
0.797913
0.826196
0.737174
0.735707
0.940461
0.929207
0.689475
0.688367
0.691666
0.694544
0.747418
0.728101
0.766341
0.710008
0.836172
0.785394
0.835123
0.845391
0.677044
0.63519
0.659089
0.687469
0.661139
0.66079
0.600658
0.639229
0.62326
0.602462
0.580432
0.581078
2.15731
2.17265
2.19584
2.21569
2.23041
2.22782
2.2778
2.23268
2.09124
2.08935
2.07417
2.09498
2.12787
2.09037
2.13429
2.10939
2.02214
2.01131
2.0108
2.04075
2.07076
2.0454
1.63612
1.5573
1.45027
1.54013
1.38921
1.30067
1.55297
1.55401
1.79621
1.79973
1.81504
1.71019
1.788
1.90247
1.84751
1.79072
1.83317
1.93333
1.94773
1.9371
1.94449
1.95076
1.9747
2.00051
1.99039
1.99984
2.00008
1.99797
1.99934
1.99984
1.99914
1.04264
1.04776
1.18493
1.26683
1.04482
1.1274
1.28249
1.29882
1.03719
0.978271
0.888225
0.95607
2.17304
2.13149
2.15089
2.19734
2.19467
2.19717
2.20798
2.22995
2.25281
2.26413
2.26295
2.26912
2.29175
2.33214
2.31636
2.33161
2.34975
2.39477
2.3712
2.20391
2.21453
2.23152
2.40059
2.39842
2.39696
0.781342
0.780963
0.780563
0.757318
0.848457
0.873748
0.664508
0.718181
0.746334
0.624641
0.667692
0.67469
0.60339
0.602781
0.602368
0.604835
0.634184
0.664494
0.767652
0.697553
0.694743
0.844287
0.923738
0.830732
0.988801
1.01853
0.946113
0.993103
1.05134
1.01626
1.14294
1.08526
1.15714
1.16927
1.17713
1.16878
1.21822
1.25612
1.29575
1.29508
1.30119
1.28859
1.31347
1.29577
1.34292
1.34696
1.36992
1.37222
1.34581
1.34926
1.46951
1.5178
1.41331
1.47895
1.52746
1.48979
1.59039
1.63524
1.73336
1.77206
1.74882
1.84
1.89531
1.99419
1.98063
2.03887
2.01201
2.10549
2.11158
2.10344
2.13285
2.16065
2.15899
2.21554
2.17974
2.20834
2.17086
2.16862
2.20722
2.13741
2.17421
2.13649
0.245551
0.548255
0.255396
0.52441
0.797415
0.784564
0.777594
0.763539
0.775804
0.637451
0.52546
0.524173
0.433015
0.618431
0.502188
0.526196
0.651514
9.67043e-08
0.000331705
0.299842
0.41074
0.422399
0.223095
0.082369
0.0886376
0.000458451
3.80479e-07
1.14069e-05
0.00101
0.000265244
0.000980613
0.0399398
0.00155171
0.178104
0.00667018
0.00091387
0.0010004
0.000112849
0.00044385
0.000919656
3.29225e-15
0.000297927
0.0022256
9.2106e-14
0.000984734
5.68797e-05
0.0009581
0.000364482
0.00101
0.000172236
0.000990042
0.00220354
0.000977367
0.000134455
0.00096781
0.00100982
0.00134453
0.000358861
0.00100983
0.000979813
0.000465046
0.000983408
0.00101
0.000808151
0.00101263
0.00101252
0.000896998
0.00091687
0.00100289
0.00101253
0.000955402
0.000834946
0.000711032
0.000919589
0.00165596
6.62425e-05
0.00165586
0.000760961
0.00098702
0.000966821
0.00099923
0.00100984
0.00101
0.00100994
0.000799141
0.000805878
0.000827454
1.20946e-05
9.12481e-06
0
0.00090453
0.000799517
0.000430028
0.000836025
0.00134448
0.000898711
0.00100958
0.00100997
0.000740489
0.000998553
0.000946811
0.000914726
0.00101
2.29857
2.28679
2.30115
2.30176
2.32707
2.44237
2.41877
2.42042
2.44708
2.38676
1.51607
1.49636
1.4447
1.43593
1.4093
1.43376
1.3351
1.29337
1.29342
1.24983
1.22363
1.21496
1.1311
1.14543
1.01171
1.05028
1.05397
0.000529692
0.000965684
0.000913493
0.00101
0.000949844
0.000924031
0.000585991
0.838316
0.977727
0.844811
0.000919443
0.000220381
0.000959565
0.000979614
0.719707
0.545464
0.00101
0.000973661
0.000914827
0.0153697
0.318859
0.16274
0.347939
0.352964
0.392037
1.38247
1.39648
1.43208
1.12502
1.26507
1.26343
1.30144
1.42142
1.49402
1.45255
1.36483
1.4419
1.46606
1.46826
1.40006
1.43561
0.000957717
0.000980419
0.00117049
0.00101
0.000641962
0.000823908
0.00101
0.0011736
0.000945745
0.000999213
0.000160682
0.000986054
0.000875008
0.000936631
0.000510229
0.001038
0.000980094
0.0010384
0.00103588
0.00101
0.000771965
0.000895476
0.000833864
0.000976221
0.00092185
0.00100577
0
0
0
0.000685369
0.00110717
0.000997374
0.00100563
0.000944429
0.000473953
0.000911195
0.000978965
0.000968087
0.00097325
0.000338297
0.000895901
0.000914242
0.000926795
0.00086945
0.00103625
0.991829
1.00074
1.00973
0.879853
0.897288
0.856253
0.857252
0.786788
0.778044
0.690832
0.701337
0.687004
0.690321
0.789619
0.78577
0.635706
0.637805
0.598958
0.579242
0.680385
0.673437
0.696676
0.752957
0.830142
0.793815
0.860661
0.811769
0.617288
0.588649
0.649821
0.67462
0.542138
0.541099
0.516266
0.538323
0.579565
0.559613
0.578543
0.586046
2.16582
2.12096
2.19789
2.15228
2.16953
2.19317
2.20602
2.24952
2.2078
2.27193
2.25538
2.22749
2.27977
2.26855
2.05708
2.05648
2.04698
2.06082
2.07351
2.08613
2.0866
2.0941
1.99791
1.99923
2.0217
2.00748
2.03769
2.0452
1.63805
1.56017
1.47753
1.55429
1.35054
1.44372
1.55476
1.5615
1.7881
1.78863
1.7897
1.71699
1.87746
1.92534
1.83573
1.78841
1.93087
1.93006
1.94425
1.9296
1.96606
1.9898
1.99688
1.99829
1.99808
1.99509
1.99974
1.99878
1.99787
1.99521
1.0417
1.03458
1.20264
1.28058
1.18267
1.09911
1.33689
1.27893
1.01165
1.03695
1.00715
0.921772
2.17261
2.20951
2.19252
2.21688
2.23615
2.22498
2.26002
2.27224
2.24978
2.26358
2.25327
2.26421
2.26999
2.29091
2.31463
2.33113
2.33074
2.38295
2.36127
2.41004
2.41433
2.28707
2.29941
2.41492
2.4251
0.524969
0.687096
0.549976
0.655884
0.578473
0.559732
0.517061
0.470282
0.502195
0.548043
0.438473
0.486381
0.486606
0.378224
0.430371
0.584716
0.699154
0.611471
0.709401
0.703442
0.695574
0.773858
0.921541
0.817257
1.00745
1.00379
0.974738
0.918342
1.04118
1.08679
1.1431
1.13172
1.15224
1.14435
1.25927
1.21112
1.31289
1.30059
1.33251
1.33335
1.31161
1.36879
1.40896
1.38246
1.36618
1.39448
1.44714
1.42896
1.41124
1.45532
1.542
1.5417
1.53519
1.55482
1.68503
1.60183
1.77125
1.79595
1.79662
1.86314
1.93927
2.01536
2.02252
2.03446
2.08071
2.12849
2.16281
2.16373
2.20081
2.17416
2.22631
2.24181
2.24252
2.24183
2.24343
2.24259
2.21224
2.24393
2.21136
0.000294529
7.94078e-06
0.00394323
0.000473871
0.175934
0.490343
0.180053
0.657534
0.512444
0.523456
0.372529
0.384937
0.406089
0.381269
0.39528
0.39777
0.392428
0.400457
0.408038
0.00361274
0.00100047
0.000976998
2.4481e-10
1.81216e-09
0.000344384
0.000893012
0.00083827
0.000451392
4.65658e-05
0.000564919
0.000993637
0.000687571
2.08762e-06
4.2911e-06
0.00101
0.0022228
0.000172715
0.000959982
0.00100986
0.000887496
0.000962023
0.000998744
0.00188445
0.000970435
0.000146754
1.36216e-05
0.000607696
0.00096357
0.000988249
0.000479144
0.000826696
0.000961729
0.00100941
0.00031059
8.34018e-06
0.000987756
0.00100992
0.000817418
0.000560979
0.000652735
0.00101
0.000799183
0.000970425
0.000279366
0.000905419
0.000941315
0.000867683
0.0010008
0.000939674
0.000880492
0.000886752
0.00100949
0.00097168
0.000773375
0.000984106
0.000952799
0.000477714
0.00098992
0.000934564
0.000964099
0.000974876
0.000974485
0.00101
0.00099424
0.000905098
0.000464111
0
0
0
0
0
0
0
0
0
0
0
0
0
0
0
0
0
0
0
0.00099334
0.000880408
0.000937661
0.000812305
0.000919257
0.000434354
0.000930589
0.00106317
0.000325168
0.000811332
0.000787688
0.000885277
2.46397
2.45973
2.47253
2.45538
2.48679
2.47928
2.3094
2.31336
2.39528
2.35521
2.4252
2.47648
2.42869
2.33118
2.29711
1.38297
1.38364
1.37126
1.36659
1.38793
1.31867
1.34868
1.14277
1.20449
1.06434
1.06384
1.01231
1.01031
1.01217
4.53839e-05
0.000727829
0.000495047
0.000982711
0.809364
1.00336
0.842106
0.000948865
0.000967043
0.802675
0.68316
0.000977274
0.00068049
0.000970402
0.000977458
0.383765
0.54352
0.00101
0.000925608
0.0506732
0.000589982
0.350497
0.209426
0.359963
1.38047
1.37908
1.38627
1.36671
1.38072
1.09312
1.20635
1.14967
1.27091
1.33773
1.36413
1.2852
1.37841
1.32127
1.326
1.30133
0.000954778
0.00108088
0.000921321
0.000970576
0.000973219
0.000935143
0.000648946
0.00101449
0.00014882
0.000899872
0.00101238
0.000665397
6.68716e-05
0.000678267
0.00101307
0.000275445
0.000940773
0.000796792
0.000928579
0.000898052
0.00089722
0.000985883
0.000740767
0.000908685
0.000621516
0.00100955
0.000627569
0.000973579
0.000348921
2.15212e-05
0
0
0
0
0
0.00083514
0.00110713
0.000978274
0.0011075
0.000988902
0.000872265
0.00078846
0.000930893
0.00098805
0.000797061
0.00093197
0.000953825
0.000956596
0.00012797
0.00048162
0.000468535
0
0
0
0
0
0
0.987194
0.919235
0.904098
0.835723
0.831088
0.745239
0.732685
0.722512
0.720562
0.713024
0.720447
0.651319
0.660617
0.584225
0.571553
0.721288
0.726386
0.507473
0.507314
0.507339
0.513889
0.790039
0.856556
0.772753
0.674901
0.654576
0.730242
0.661556
0.743504
0.586292
0.554627
0.616492
0.570418
0.518512
0.519292
0.511133
0.531963
0.528448
0.500399
0.495086
0.475285
2.12466
2.10246
2.14189
2.15324
2.12352
2.19072
2.20216
2.1695
2.19695
2.17788
2.26405
2.23208
2.20933
2.04623
2.04547
2.07328
2.06002
2.08523
2.08423
2.11257
2.09152
1.9997
2.00609
2.02931
2.01356
2.02783
2.03599
1.67657
1.59774
1.52
1.55718
1.50525
1.41048
1.59317
1.55605
1.79241
1.79194
1.75079
1.79567
1.88408
1.93239
1.79447
1.84076
1.93347
1.93193
1.95452
1.93395
1.97486
1.99434
1.99288
1.99365
1.9931
1.99402
1.99702
1.99486
1.99307
1.99402
1.03221
1.09428
1.28095
1.25665
1.17818
1.2634
1.28082
1.35768
1.02822
1.02257
1.01768
0.9338
0.770283
0.812992
0.896811
2.24269
2.24654
2.27331
2.26625
2.28956
2.30116
2.30121
2.30172
2.33822
2.31808
2.33073
2.29742
2.32826
2.33966
2.36393
2.38283
2.39314
2.39126
2.44276
2.44318
2.46871
2.44529
2.35869
2.36407
2.48144
2.4763
0.292515
0.37267
0.251772
0.475835
0.396566
0.479587
0.479046
0.469067
0.401047
0.325463
0.261317
0.266013
0.286416
0.358246
0.519841
0.429806
0.399098
0.605703
0.755576
0.719868
0.570285
0.812267
0.8518
0.872681
0.849881
0.954623
1.02397
0.901569
1.12776
1.06558
1.13698
1.13896
1.22618
1.16864
1.28858
1.3188
1.31582
1.32177
1.44704
1.415
1.38171
1.43974
1.45938
1.45261
1.44603
1.43964
1.45651
1.452
1.53584
1.57731
1.6168
1.57487
1.61608
1.64416
1.7822
1.71794
1.81034
1.79527
1.87786
1.95163
2.03949
2.03351
2.06932
2.10633
2.18138
2.16976
2.1928
2.19691
2.22418
2.23502
2.25276
2.24649
2.25755
2.25333
2.24358
2.25659
2.24238
2.24517
0.00098674
0.000862298
0.00101
0.00067133
0.000858362
1.67354e-07
0.000509168
4.90029e-06
0.000321088
0.381602
0.404983
0.000803831
0.11355
0.414349
0.390512
0.402113
0.388749
0.395986
0.399821
0.318926
0.239546
0.00100986
0.000648283
0.000938422
0.000788581
0.00100179
0.000616531
0.000997704
0.000180038
0.000954666
0.000624923
0.00101
0.000209386
0.000613088
0.00100863
0.00197715
0.000998433
0.000918269
0.00097736
0.00381895
1.56207e-06
0.000210438
0.00024578
0.00100938
0.00081657
6.4021e-09
0.000997644
0.00100983
0.000217203
0.000848872
0.00100647
0.000131712
0.00100976
0.000959372
0.00015616
0.000986414
0.000975827
0.000994847
0.00350246
0.000980885
0.000657499
0.00098777
0.000776699
0.000638749
0.00129139
0.00129131
0.00129133
0.000900202
0.000946957
0.000832782
0.000987787
0.000948013
0.000941776
0.000961192
0.000871734
0.000897996
0.000947049
0.000951887
0.000925848
1.67713e-05
0.000881191
0.00092376
0.0003855
0.000414352
0.00098456
0
0
0
0
0
0
0
0
0
0
0
0
0
0
0
0
0
0
0
0.000872778
0.000943785
0.00101
0.000948967
0.00155548
0.000655009
0.00107898
0.000897695
0.00106601
0.000907116
0.000742332
0.000991424
2.49032
2.51307
2.52165
2.47787
2.48289
2.46991
2.47313
2.36986
2.37543
2.39613
2.42109
2.41542
2.44743
2.47753
2.31495
2.35973
2.27737
2.31414
2.30955
1.37969
1.37908
1.28211
1.2377
1.34378
1.27079
1.28379
1.14531
1.17094
1.03925
1.01023
1.00872
1.01311
0.989767
0.000942336
0.000660908
0.927175
1.03615
0.812641
0.000952845
0.000974084
0.765918
0.768575
0.000671453
0.000632291
0.503929
0.647227
0.000830662
0.000909395
0.000800383
0.00084364
0.364529
0.372509
0.000395759
0.00114023
0.0383718
0.135301
0.29696
1.33788
1.39271
1.36405
1.33175
1.09833
1.10095
1.12391
1.18783
1.30285
1.31106
1.26152
1.3031
1.31294
0.00100999
0.00060532
0.000473483
0.000951636
0.000983083
0.00098057
0.00114284
0.00114367
0.000326955
0.000835793
0.00101
0.000913119
0.00099849
0.000967716
0.0189729
0.0582642
0.0125616
0.0984551
0.0606549
0.015431
0.0530819
0.0647552
0.0586354
0.000995064
0.000853197
0.00110786
0.000570634
0.00039799
0.00101
0.000991121
3.7271e-05
0.000733696
0
0
0
0
0
0.000500823
0.000891535
0.000776104
0.000526859
0.000582622
0.000956503
0.000543944
0.0178947
0.0631983
0.000911194
2.05641e-05
0.000182975
0.169379
0.0668297
0.0987537
0.129691
0
0
0
0
0
0
0
0
0
0
0.903081
0.81985
0.822998
0.765237
0.760713
0.737908
0.756283
0.724916
0.762643
0.690629
0.688959
0.597696
0.618465
0.526185
0.525592
0.496655
0.49149
0.645313
0.616385
0.498454
0.494202
0.496646
0.488392
0.717048
0.759801
0.603356
0.574566
0.645049
0.761332
0.820215
0.775169
0.507716
0.462666
0.529418
0.554639
0.450991
0.433761
0.429187
0.392819
0.429216
0.403309
0.422478
0.442283
2.145
2.14781
2.07333
2.17295
2.1191
2.16277
2.19243
2.17793
2.18537
2.24083
2.18191
2.27126
2.23744
2.30299
2.02616
2.04864
2.04376
2.06679
2.04862
2.0762
2.09071
2.06281
1.99423
2.00391
2.00946
2.0194
2.01721
2.01709
1.72956
1.64832
1.53831
1.55773
1.45999
1.5525
1.56088
1.6193
1.79768
1.7969
1.79633
1.77213
1.88911
1.93565
1.85487
1.80809
1.93599
1.93656
1.94286
1.9625
1.99375
1.98083
1.99418
1.99304
1.99334
1.99448