/*--------------------------------*- C++ -*----------------------------------*\
  =========                 |
  \\      /  F ield         | OpenFOAM: The Open Source CFD Toolbox
   \\    /   O peration     | Website:  https://openfoam.org
    \\  /    A nd           | Version:  8
     \\/     M anipulation  |
\*---------------------------------------------------------------------------*/
FoamFile
{
    version     2.0;
    format      ascii;
    class       volScalarField;
    location    "13680";
    object      alpha;
}
// * * * * * * * * * * * * * * * * * * * * * * * * * * * * * * * * * * * * * //

dimensions      [0 0 -1 0 0 0 0];

internalField   nonuniform List<scalar> 
526318
(
0.000289892
0.000320592
0.000363127
0.000395619
0.000393299
0.00039157
0.000558666
0.000600278
0.000232146
0.000778645
0.000439377
0.000712915
0.00054539
0.000205208
0.000479351
0.000139275
0.00060172
0.000306936
0.000311907
0.000358143
0.000249679
0.000283041
0.0013593
0.000648112
0.000157227
0.000891397
0.000251926
0.000394646
0.000393822
0.000369352
0.000335054
0.000374487
0.00029133
0.000454678
0.000215239
0.000337048
0.000286698
0.000349923
0.000233884
0.000515957
0.000283686
0.000368893
0.00264117
0.000944922
0.00129511
0.0017069
0.00113125
0.00163964
0.000229667
0.000428288
0.000111981
0.000182092
3.8336e-06
0.000733673
0.0587835
0.00178365
0.00159517
0.0106729
0.000378176
0.000279958
0.000271494
0.000155411
0.000463164
0.000218338
0.000283571
0.000331173
0.000375886
0.000246437
0.000581143
0.000170008
0.000324103
0.00050504
0.000503755
0.000404657
0.000557902
0.000454315
0.000538053
0.000697758
0.000719916
0.000415082
0.000522012
0.000420701
0.000121606
0.00060552
0.000443315
0.000530787
0.000838723
0.000442215
0.00130635
0.00113732
0.00111922
0.00168569
0.000897363
0.00154884
0.000784969
0.000688809
0.00274334
0.000989412
0.00106885
0.00101534
0
0
0
0
0
0
7.76326e-05
0.0139158
0.000882903
0.00047287
0.000167444
0.00109188
0.00052846
0.000221625
0.000167748
0.000370403
0.00026892
0.000214133
0.000328053
0.0012394
0.000987782
0.00128142
0.00151429
0.00164651
0.000992709
0.00241579
0.00207047
0.00253233
0.00196026
0.00334554
0.00358615
0.00280424
0.00425249
0.00255313
0.00324607
0.0042324
0.00298712
0.00264625
0.00279149
0.00690864
0.00420007
0.00477315
0.00533905
0.00435044
0.00446041
0.00556625
0.00371044
0.00268602
0.00565685
0.00719394
0.00430551
0.00615117
0.00294342
0.00898104
0.00600919
0.0151602
0.00685063
0.00492775
0.00452911
0.01295
0.0027687
0.0134267
0.00692011
0.00018184
0.000403706
6.34715e-05
0.000543006
0.000729133
0.000143309
0.000824035
0.000520574
0.000989489
0.000249908
0.00116279
0.00057858
0.000518375
0.00145717
0.00296496
0.00302215
0.00480516
0.00102161
0.00202324
0.00127402
0.00254014
0.00215782
0.00487304
0.00316263
0.00360277
0.00414342
0.00349493
0.0041381
0.00485252
0.00490596
0.00491773
0.0037201
0.0046267
0.00359077
0.00497623
0.00809137
0.00665885
0.00696513
0.00511089
0.00607805
0.00604768
0.00722491
0.00477573
0.00791831
0.00906748
0.00631845
0.0060768
0.000444759
0.000735622
0.000180812
0.000382386
0.00033899
0.000602312
0.000195132
0.000488697
0.000364671
0.00289259
0.00484002
0.00482425
0.0010009
0.000862031
0.000755377
0.00013727
0.00102221
0.000422697
0.000147104
0
0
0
0.00614812
0
0
0
0
0
0
0.00028896
0.000440992
0.00019739
0.00037736
0.00033786
0.000462802
0.000452281
0.00025151
0.000550467
0.00056349
0.000711641
0.000728656
0.000857816
0.000762207
0.00107627
0.000857251
0.000568189
0.000320206
0.00128649
0.000728129
0.00112044
0.000630197
0
0
0
0
0
0
0
0.113689
0.00123885
0.00515328
0.000835117
0.000322167
0.000230428
0.000583632
0.000352973
0.000399235
0.000169267
9.59782e-05
1.58812e-05
0.0002021
0.00130323
0.000990153
0.00107181
0.00180386
0.00260423
0.00259952
0.00340596
0.00450051
0.00384153
0.00420769
0.0093213
0.00301565
0.0226046
0.009009
0.0141449
0.00182106
0.00275386
0.00521978
0.00271037
0.00579555
0.00772402
0.0296772
0.00673705
0.0098997
0.00319423
0.00418754
0.00453192
0.00121904
0.0117414
0.0075281
0.00711847
0.0390584
0.0135665
0.0243082
0.0384813
0.012791
0.00187125
0.00372372
0.00128323
0.000745584
0.000383352
0.000311348
0.000347589
0.00078827
0.000578985
0.000306664
0.000969543
0.00114378
0.000786824
0.000251231
0.00369023
0.00617279
0.00294062
0.00439341
0.000308927
0.00779548
0.00203816
0.0104806
0.00247136
0.00414635
0.003646
0.00291985
0.00363311
0.00380076
0.00327003
0.00409767
0.00488584
0.00402194
0.00509343
0.00318383
0.00415693
0.00357615
0.0044203
0.0047448
0.00452059
0.00365693
0.00424482
0.00667652
0.00577135
0.00474117
0.00304201
0.000344959
0.00392578
0.0033656
0.00212172
0.00319425
0.00164519
0.000379072
0.00454949
0.00376174
0.00222535
0.00214782
0.00257535
0.000581846
0.00238778
0.00100807
0.000606022
0.000101794
0.000885927
0.000634648
0.000360436
0.000574902
0.000495236
0.00037365
0.000475315
0.000667204
0.000387379
0.00709033
0.00558593
0.0187114
0.00851808
0.00458048
0.000988251
0.000488092
0.000222675
0.000661389
0.000555283
0.000553414
0
0
0
0
0.0398936
0
0
0
0
0
0
0
0
0
0
0
0.000339498
0.000406503
0.000239136
0.000290061
0.000265486
0.000213792
0.000269675
0.000406464
0.000628682
0.000610187
0.000679563
0.00062499
0.000658246
0.000859379
0.000350164
0.000492025
0.000693739
0.000252985
0.000480775
0.00107916
0.000880558
0.00138357
0
0.000199859
0.000504268
0
0
0
0
0.000339669
0.000655016
0.000411764
0
0
0
0
0
0
0
0
0
0
0
0
0
0
0.0108162
0
0.00154064
0.00045596
0.00123586
0.000575053
0.000299653
0.000753456
0.000287634
0.000277513
0.00022652
3.48429e-05
0.000131093
0.00014873
0.0010969
0.00147342
0.00282846
0.000698341
0.00171503
0.00228188
0.00286346
0.00356137
0.00371637
0.00457994
0.00296332
0.011634
0.0230069
0.0429776
0.0190796
0.0254107
0.0114797
0.00683141
0.0193895
0.0127841
0.0162005
0.0393172
0.0233314
0.00755281
0.0229161
0.0600719
0.0231728
0.0167672
0.0347099
0.118372
0.10569
0.00047046
0.00120967
0.000717015
0.0013541
0.00143658
0.00057478
0.00112483
0.000408469
0.00159754
0.00267255
0.00107527
0.00237632
0.00770112
0.00803694
0.000569939
0.000698833
0.0014876
0.000397449
0.00205522
0.000877962
0.00129521
0.000343336
0.000938412
0.00151543
0.00361919
0.000621582
0.00176976
0.00752732
0.00680482
0.00895082
0.0277301
0.00625393
0.0140158
0.099348
0.0724547
0.00448241
0.00126286
0.00265872
0.00372174
0.00159142
0.00480507
0.00333196
0.00450171
0.00357234
0.00364056
0.00315439
0.00354655
0.0035131
0.00404154
0.00323422
0.00242734
0.00330247
0.00212718
0.00289629
0.0033296
0.00586345
0.00143793
0.00398393
0.00363362
0.00102824
0.00351023
0.00320732
0.0023581
0.00273901
0.000656804
0.0024435
0.00196189
0.00205979
0.000387775
0.00133886
0.000570692
0.000717447
4.6226e-05
0.000231881
0.000385875
0.000563154
0.00030754
0.000371751
0.000100922
0.000421682
0.00121484
0.00080413
0.00250874
0.00221889
0.000557139
0.00135158
0.191889
0.0366028
0.00812277
0.000618633
0.000544009
0.00113288
0.00273518
0.00194903
0.00215577
0.00576708
0
0
0
0
0
0.449745
0
0
0
0
0
0
0
0
0
0
0
0
0
0
0
0
0
0
0
0
0.00733552
0
0.00140821
0
0.00289703
0.00791907
0
0
0
0
0
0
0
0
0
0
0
0
0
0
0.000172518
0.000360243
0.000299743
0.000167806
0.000238003
0.000147838
0.000503798
0.000348794
0.000320066
0.000470828
0.000620233
0.00035658
0.000244748
0.000314335
0.000327356
0.000332109
0.000301018
0.000544274
0.000753489
0.00054177
0.00102207
0.000739958
0
0
0
0
0
0
0
0
0
0
0
0
0
0
0
0
0
0
0
0
0
0
0
0
0
0
0
0
0
0
0
0
0
0
0.00110241
0.00454015
0.000155275
0.0012331
0.00105898
0.000189916
0.000600424
0.000265733
0.000201507
0.000336276
0.000380647
0.000178339
0.000266234
0.000222349
0.00304809
0
0
0
0
0
0
0
0
0
0
0
0
0
0
0
0
0.000706456
0.000447262
0.000662516
0.00191126
0.00257072
0.00191768
0.00552124
0.0036687
0.000630274
0.00979254
0.0422004
0.0619999
0.0493997
0.0326483
0.0483441
0.0294217
0.0890678
0.0342969
0.0354318
0.0151597
0
0
0
0.502628
0.100754
0.0204918
0
0
0
0
0
0
0.000787135
0.000407978
0.000718921
0.000600793
0.000398906
0.000945751
0.000420618
0.000779309
0.000546351
0.000301439
0.00309028
0.000940274
0.000589433
0.000336705
0.00134899
0.00472869
0.000903398
0.00472975
0.0281038
0.00601777
0.00672506
0.0344503
0.00088192
0.00264811
0.00112144
0.000730371
0.000831998
0.00197365
0.000401045
0.00274002
0.00357695
0.00975707
0.0145093
0.0198238
0.040405
0.00477527
0.183047
0.35794
0
0.0437145
0.108165
0.00797557
0.00550404
0.00531229
0.00473542
0.00382774
0.00498201
0.00258587
0.00382963
0.00530346
0.00418184
0.00272291
0.00313208
0.0042182
0.00121562
0.00338227
0.00249852
0.00146145
0.00262956
0.00286112
0.000925842
0.00403949
0.00302154
0.00297245
0.00243609
0.00316647
0.00342099
0.00237111
0.00354542
0.00146118
0.000493212
0.000149339
0.000283016
0.00154492
0.00115581
0.000344418
0.00122824
0.0004576
0.00142641
0.000143382
0.000398481
0.00110547
0.000607815
0.00070538
0.000744509
0.000569337
0.000546847
0.000517279
0.000723158
0.00060068
0.000548926
0.000434369
0.000463975
0.000451993
0.000471347
0.000418076
0.000408971
0.000397928
0.000428788
0.000478388
0.000389201
0.000394276
0.000359655
0.000386834
0.000373927
0.000414923
0.000395979
0.000356558
0.000370897
0.000367799
0.00035747
0.000351553
0.000288847
0.000362398
0.000358416
0.000297457
0.000268765
0.000382366
0.000433926
0.000335427
0.000296379
0.000685763
0.00338275
0.00149429
0.000419022
0.0024617
0.000867539
0.00288413
0.0113544
0.00324816
0
0
0.00773517
0.021848
0
0
0
0.00585955
0.00399796
0.0147028
0
0
0
0.213286
0
0
0
0
0
0
0
0
0
0
0
0.00620518
0
0
0
0
0
0
0
0
0.0124526
0
0
0
0
0
0
0
0
0
0
0
0
0
0
1.92334
0
0
0
0
0
0
0
0
0
0.0106018
0.192929
0
0.00990327
0
0
0
0
0
0
0
0
0
0
0
0
0
0
0
0
0
0
0
0
0
0
0
0.000359629
0.000173374
0.000305826
0.000367419
0.000187412
0.000358617
0.000242885
0.000236885
0.000447007
0.000139307
0.000225703
0.000164484
0.000222512
0.000379727
0.000234275
0.000267539
0.000466482
0.000154948
0.000110432
0.000135342
0.000237824
0.000106934
0
0
0.0226945
0.0177135
0
0
0
0
0.0200292
0
0
0
0
0
0
0
0
0
0
0
0
0
0.00888594
0.00747052
0
0
0
0
0.0106439
0
0.000853578
0.000616316
0.000987623
0.000729251
0.000990742
0.000371239
0.000299786
0.000505277
0.000368564
0.000543486
0.000533794
0.000377749
0.000417199
0.000454923
0.0135327
0
0
0
0
0.00010682
0
0
3.79406e-05
0
0
0
0
0
0
0
0
0
0
0
0
0
0
0
0.52832
4.93516
0.000614303
0.000370972
0.00192214
0.00220605
0.00474346
0.0167178
0.0567078
0.063445
0.0926105
0.0560119
0
0
0
0
0
0
0.032489
0.154673
0.0228154
0.00300812
0
0
0
0
0
0
0
0
0
0
0.00130435
0
0.00068919
0.000491162
0.000846398
0.000314881
0.000741363
0.00153653
0.000538333
0.000583573
0.000467601
0.000354326
0.000499049
0.000349095
0.000497541
0.000459119
0.000502408
0.00044217
0.000394093
0.000426126
0.000422161
0.000446309
0.000468483
0.000371767
0.000466042
0.000426832
0.000364676
0.000455391
0.000375535
0.000284456
0.000443645
0.000481756
0.000416337
0.0036027
0.000971107
0.00050592
0.00357539
0.00778749
0.00192827
0.00524032
0.0129316
0.0157159
0
0.00638614
0
0.00151926
0.00454529
0.000692976
0.00116358
0.00106239
0.00532071
0.00782188
0
0
0
0.206757
0
0
0
0
0.0408835
0.0264907
0
0.0360611
0.00507251
0.0276027
0.0063737
0.0100242
0.0116643
0.00404343
0.0045981
0.00049316
0.00512142
0.00429503
0.000561111
0.00106898
0.00153539
0.00293979
0.0017494
0.0039925
0.00223499
0.00247543
0.0021362
0.00173592
0.00167019
0.00178334
0.000976752
0.00225213
0.00142141
0.00150402
0.00108824
0.00134542
0.00216233
0.00103402
0.00177
0.00202319
0.00161078
0.000946324
0.000511634
0.00144729
0.00109988
0.000709576
0.000956902
0.000845927
0.000814415
0.000465899
0.000636517
0.000597991
0.000473432
0.000478958
0.000524781
0.000504032
0.00043734
0.000443707
0.000384028
0.000409372
0.000353677
0.00027771
0.000275205
0.000226097
0.000197166
0.000258768
0.00024574
0.000225675
0.000286676
0.000218907
0.000251752
0.000375515
0.000290536
0.000291145
0.000210591
0.000234578
0.000348462
0.000303934
0.000295987
0.027806
0.0700747
0.00939582
0.00448992
0.0344249
0.00923909
0.00550992
0.000163102
0.00547843
0.0721895
0
0
0
0.0521709
0.0332036
0
0
0
0
0.0237942
0.0126423
0
0
0
0.14565
0
0
0
0
0.000927838
0.0180463
0
0
0
0.00739251
0
0
0
0
0
0
0
0.0191249
0
0
0
0
0
0
0
0
0.000104564
0
0
0
0
0
0
0
0
0
0
0
0
0
0
0
0
0
0
0
0
0
0
0
0
0
0
0
0
0
0
0
0
0
0.00031327
0.000172245
0.000210346
0.000268521
0.000436429
0.000201477
0.000182087
0.000183145
0.000211649
0.000170915
0.000153696
0.0003357
0.00010738
9.11044e-05
0.000201751
0.00212959
0.000670743
0.000354491
0.000179585
0.000288842
6.45841e-05
0.000122799
0.015135
0
0.00571767
0
0
0
0
0
0
0
0
0
0
0
0
0
0
0
0
0
0
0
0
0
0
0
0
0
0.00142923
0.0266618
0.0010355
0.000651833
0.000929639
0.000817967
0.000444346
0.000754525
0.000563943
0.000625495
0.000453753
0.000590126
0.000386275
0.00036226
0.000370091
0.000620824
0
0
0
0
0
0
0
0
0
0
0
0
0
0
0
0
0
0
0
0
0
0
0.48807
0
0
0
0
0
0
0
0
0.00380688
0.00395455
0.00649567
0.00386224
0.0480327
0.026181
0.385224
0.376474
0.00338022
0.00765476
0.0113613
0
0
0
0
0.00128732
0.00205835
0
0
0.0629688
0
0.0947656
0.153318
0
0
0
0
0
0
0
0
0
0
0
0
0.000265934
0.000283867
0.000176876
0.000277726
0.000266367
0.00020048
0.000245486
0.000208024
0.000203417
0.000247471
0.000216777
0.000217943
0.000341194
0.000206472
0.000310302
0.000328462
0.000279712
0.00025327
0.00028549
0.000290121
0.000298006
0.000235473
0.000261889
0.000315635
0.000336526
0.000251587
0.00029354
0.000358664
0.000239645
0.000432919
0.000352107
0.000359535
0.000372424
0.000343597
0.000327395
0.000630219
0.000638323
0.00126249
0.000812947
0.00198676
0.00112005
0.000527444
0.000368189
0.000426481
0.000346837
0.000462347
0.000587982
0.000623002
0.000532687
0.00052476
0.000461546
0.000482821
0.000458892
0.000571174
0.000470489
0.000529061
0.000483744
0.000517725
0.000482503
0.000473475
0.000442185
0.000538462
0.000452476
0.00069287
0.0010236
0.0092638
0.00575226
0.000764845
0.000677272
0.000882517
0.00367545
0.00398382
0.0158213
0.360379
0.000239095
0.000211682
0.000256446
0.00022508
0.000210044
0.000179885
0.000186819
0.00015036
0.000225255
0.000184148
0.000212209
0.000156702
0.000190812
0.00017108
0.000136995
0.000243564
0.000199054
0.000128677
0
0
0.0024433
0.00201652
0.0146037
0.00327667
0.00429357
0.031955
0.303226
4.52382
0.00555529
0.00817422
0
0
0
0
0
0
0.0245912
0
0
0.0150553
0.0344007
0.00375075
0.00882221
0.0500169
0.00808571
0.0108556
0.00454617
0.00118566
0.0051737
0.000738954
0.00267703
0.00342751
0.00137327
0.00122474
0.00139636
0.00251259
0.00153608
0.00214955
0.00181242
0.00207743
0.00210141
0.00154594
0.00147535
0.00178292
0.00184882
0.00178817
0.00185252
0.00166503
0.00145982
0.00142279
0.00133682
0.00168432
0.001184
0.00123892
0.000975669
0.00116483
0.000852311
0.00107632
0.000761833
0.000504294
0.0007049
0.000572089
0.000445779
0.000492051
0.000443336
0.000508491
0.000417872
0.000465493
0.000425042
0.000346756
0.000348864
0.000359636
0.000232478
0.000250457
0.000221584
0.000249068
0.000225542
0.000188212
0.000166982
0.000205119
0.000187787
0.000185194
0.000194714
0.033984
0.0709764
0.0478397
0
0
0
0
0.0492543
0
0
0
0
0
0
0.00660739
0
0
0
0
0.0147808
0
0
0
0
0
0
0
0
0.00281363
0.00323733
0.028959
0
0.000252071
0
0
0
0
0
0
0
0
0
0.0106109
0
0
0
0
0
0
0
0
0.209187
0
0
0
0
0
0
0
0
0
0
0
0
0.000278235
0
0
0
0
0.0071863
0
0
0
0
0
0
0
0
0
0
0
0
0
0
0
0
0
0
0
0.00241229
0
0
0
0
0.00271999
0.00011997
0.000155269
0.000250667
0.000177641
0.000220411
0.000138609
0.000304748
0.000190474
0.000255676
0.00023043
0.000140253
0.000175554
0.000103451
0.000344395
0.000193706
0.000355558
0.000275686
0.000257081
7.03592e-06
0.000299686
0.000304136
0.00274049
0.000398403
0.000284535
0.000161487
0
0
0
0
0
0
0
0
0
0
0
0
0
0
0
0.0679191
0
0
0
0
0
0
0
0
0
0
0
0.00371152
0.00155634
0.00129785
0.0002276
0.000204484
0.000129983
0.000245208
0.000637548
0.000720376
0.000541246
0.000684049
0.000541339
0.000457953
0.000328175
0.00036922
0.000363178
0
0.00103424
0
0
0
0
0
0
0
0
0
0
0
0
0
0
0
0
0
0
0
0
0
0
0
0
0
0
0
0
0
0
0
0
0
0
0
0.00335535
0.0031654
0.00137874
0.00627112
0.0110914
0.0365763
0.00994649
0
0
0
0
0.0132476
0.0150325
0
0
0
0
0
0
0
0
0
0
0
0
0
0
0
0
0
0
0
0
0
0
0
0
0.00035638
0.000278401
0.000312329
0.000248468
0.000256341
0.000336349
0.00036869
0.000377351
0.000303204
0.000316698
0.000323994
0.00033771
0.000327185
0.000341768
0.000340173
0.000432493
0.000419833
0.000456762
0.000389555
0.000394728
0.000337909
0.000372119
0.000697371
0.000832361
0.00102202
0.0011017
0.000679946
0.00130079
0.000434123
0.000526381
0.000581169
0.0005374
0.000586232
0.000685193
0.000563849
0.000549113
0.00054389
0.000580982
0.000540141
0.000530171
0.000507244
0.000577114
0.000577032
0.000634333
0.000566676
0.000548832
0.000592238
0.000586961
0.000529608
0.00051522
0.000501342
0.00055707
0.000474889
0.00881571
0.00670343
0.00221218
0.000901963
0.00288259
0.00065505
0.000826746
0.000693137
0.00498126
0.0122221
0.101603
0.000412521
0.000204044
0.000186082
0.00019011
0.000169721
0.000171711
0.000151503
0.00013349
0.000112801
0.000118588
0.000181749
0.000134899
0.000141555
0.000190396
0.000117644
0.000177692
0.00014995
0.000146206
8.09038e-05
0.000121587
8.92485e-05
0.000121571
8.25089e-05
0.000209093
0.000196664
0.000246765
0.0034053
0.00826815
0.00480853
0
0
0.0984924
0
0
0
0
0
0
0
0
0
0
0
0
0
0
0.00373131
0
0.0471295
0
0.0129855
0.0121736
0.074152
0.0148963
0.00725361
0.0135099
0.00272864
0.00398339
0.000556474
0.000648859
0.002387
0.00212701
0.00278171
0.00107237
0.00264199
0.000762324
0.00141745
0.00167071
0.000815616
0.0017734
0.00152637
0.00100707
0.00102379
0.0011788
0.00154376
0.00130098
0.000998756
0.000870471
0.00120999
0.000732338
0.000576733
0.00126885
0.000627424
0.000990726
0.000621534
0.000611751
0.000578423
0.000433594
0.000470539
0.000363289
0.000422955
0.00040204
0.000390331
0.000321958
0.000377668
0.000337888
0.000289461
0.000235117
0.000267041
0.000203147
0.00021818
0.000189992
0.000219116
0.000199784
0.000172774
0.000166856
0.000180331
0.000198116
0
0
0
0
0
0
0
0
0
0
0
0
0
0
0
0
0
0
0
0
0
0
0
0
0
0.000519389
0
0
0.00776227
0.00210523
0
0
0
0
0
0
0
0
0
0
0
0
0.281123
0
0
0
0
0
0
0
0
0.147551
0
0
0
0
0.00373652
0
0
0
0
0
0
0
0.00413573
0.00388919
0
0
0.00607348
0.00697697
0
0
0
0
0.00655683
0
0.00882561
0
0
0
0
0
0
0
0
0
0
0
0
0
0
0
0
0
0.00416785
0
0
0
0
0
0
0
0
0.000268382
0.000337947
0.000184751
0.00034501
0.0002233
0.000236589
6.91996e-05
0.000174109
0.000293711
0.000212422
0.000170402
6.99083e-05
0.000148976
8.54966e-05
0.000441171
0.000146337
0.00046615
0.000354197
0.000230513
0.000297312
0.00027453
0.000272221
0.000461082
0.00103814
0.00352987
0.00279051
0.00132062
0
0
0
0
0
0
0
0
0.00780984
0
0
0
0
0
0
0
0
0
0
8.58255e-05
0
0
0
0
0
0.000305698
0.000583121
0.000121573
0.00162172
0.000591642
6.15583e-05
0.000656757
0.000151891
0.000243561
0.000455056
0.000266921
0.000289321
9.63322e-05
0.000323249
0.000444483
0.000156288
0
0
0.000975455
0
0
0
0
0.000840038
0
0
0
0
0
0
0
0.0103768
0
0.00444043
0.00778777
0
0
0
0
0
0
0
0
0
0
0
0.0107578
0
0
0
0
0
0
0
0
0
0
0
0
0
0.00383445
0.0027179
0.00504097
0.00236608
0.0329273
0.0249568
0
0
0
0
0.00174703
0
0
0.00211675
0
0
0
0
0
0
0
0.00314569
0
0
0
0
0.148572
0
0
0.00282001
0
0.004462
0
0
0
0
0
0
0
0.00370602
0.000209737
0.000353664
0.000345363
0.000161263
0.000280604
0.000374278
0.000320728
0.000231045
0.00034006
0.000147559
0.000116298
0.000365008
0.000122129
0.000129586
0.000337555
0.000382169
0.000365967
0.000375557
0.00039262
0.000345849
0.000403376
0.000273603
0.000484933
0.000478365
0.000441371
0.000428607
0.000375815
0.000409211
0.000443723
0.000618614
0.00106982
0.000942678
0.000146935
0.00013148
0.000750436
0.00060931
0.000514825
0.000634123
0.000433585
0.000522392
0.000506741
0.000502031
0.000625371
0.000550521
0.000533577
0.000554152
0.000563188
0.000658699
0.000593846
0.000633415
0.00056714
0.000585522
0.000480585
0.00063859
0.000574852
0.000497619
0.000574324
0.000539063
0.0074073
0.00732283
0.00221795
0.000299299
0.000582628
0.0010807
0.000222618
0.000946658
0.00979535
0.0080248
0.00833571
0.0401478
0.000182802
0.00016292
0.000161267
0.000119065
0.000146431
0.000111826
0.000121593
0.000132367
4.58044e-05
0.000118002
0.000114205
8.96343e-05
0.000118251
0.000126947
0.000116482
0.000116821
0.000111769
0.000126426
0.000138681
0.000231295
0.000176913
5.71495e-05
0.000112039
0.00014204
0.000144707
0
0
0
0
0
0
0
0
0
0
0
0
0
0
0
0
0.00372569
0
0
0
0
0
0.25245
0
0.0192613
0.00497304
0.0375777
0.0898807
0.00531468
0.0014012
0.00302306
0.000727207
0.00295017
0.00158885
0.00055966
0.00196899
0.00164113
0.000936359
0.00233663
0.001086
0.00201222
0.00187725
0.00103253
0.0010791
0.00120748
0.001315
0.00112994
0.000996724
0.00135444
0.000918853
0.000593802
0.00121185
0.000846947
0.00132413
0.000871294
0.0007524
0.000520296
0.000563725
0.000516479
0.000543865
0.000413236
0.00041934
0.000375328
0.000375856
0.000332714
0.000324527
0.000273381
0.000307929
0.000246125
0.000224556
0.000202866
0.000194526
0.000198096
0.000184955
0.000139199
0.000195784
0.000191577
0.00015626
0.000175812
0
0
0.0091229
0.000191111
0
0
0
0
0.00529508
0
0
0.00518766
0
0.0149016
0.0239135
0.0358904
0.0363872
0
0.0241251
0.0048818
0
0
0
0.00482435
0
0.00407157
0.000362641
0
0
0
0
0
0
0
0
7.21698e-05
0
0
0
0
0
0
0.397756
0
0
0
0
0
0
0
0
0
0
0
0
0
0
0
0
0
0
0
0
0
0
0
0
0
0
0
0
0
0
0
0
0
0
0
0
0
0
0
0
0
0
0
0
0
0
0
0
0
0
0
0
0
0
0
0
0
0
0
0
0
0
0
0
0
0
0
0
0
0.000113032
0
0
0
0
0.00027673
0.000252885
0.000181434
0.000260207
0.000168996
0.00014362
0.000370861
0.000201174
0.000108515
0.000164898
0.000309936
0.000140821
0.000337411
2.3513e-05
0.000144547
8.84582e-05
0.000473106
0.000325682
0.000268904
0.000120793
0.000218402
0.000159181
0.00065298
0.00045185
0.00182351
0.00198915
0.00370942
0.00395333
0.00143134
0
0
0
0
0
0.00655955
0
0
0
0
0
0
0
0
0
0
0
0.0123631
0.00543905
0
0.00350599
0
0
0
0.000163436
0.00010498
0.000443824
0.000511282
0.000223635
0.00445804
0.00114654
0.000487079
0.000605289
0.000530243
0.00024626
0.000442944
0.000146955
0.00040632
5.90107e-06
0.000322061
0
0.00344648
0
0
0
0
0
0.000121696
0
0
0.000683902
0
0
0
0.000787007
0
0
0
0
0
0
0
0
0
0
0
0
0
0
0
0
0
0
0
0
0
0.00179411
0
0.010279
0
0
0
0
0
0
0
0
0
0
0
0
0
0
0
0
0
0
0.0038564
0.0364034
0.0221593
0
0
0
0
0
0
0
0
0
0
0
0
0
0
0
0
0
0
0
1.0506
0
0
0
0
0
0
0
0
0
0
0.00572292
0.00787658
0
0
0
0
0
0
0.000347574
0.00042425
0.000247111
0.000481171
0.000897762
0.000345122
0.000693495
0.00033764
0.000155366
0.000404637
0.000342924
0.00028634
0.000315567
0.000424191
0.000413663
0.000397335
0.000403985
0.000376864
0.000421128
0.000631085
0.000415656
0.000497529
0.000533522
0.000464383
0.000477031
0.000449658
0.000498401
0.000380247
0.000424947
0.000509256
0.000586242
0.000572983
0.000451708
0.000742044
0.000710261
0.000448467
0.000649554
0.000506904
0.000445555
0.000526709
0.000511283
0.000446825
0.000633859
0.000538947
0.000523411
0.000521292
0.00062906
0.000604996
0.000477334
0.000512699
0.000698259
0.000550599
0.000547146
0.000538426
0.000523337
0.000607472
0.000448549
0.00686076
0.00497083
0.00134718
0.000541654
0.00155777
0.00103426
0.000847049
0.000840888
0.0080521
0.00825518
0.00984012
0.019652
0
0
0.120734
0.000186959
0.000196435
0.000131738
0.000144719
0.000106679
1.31471e-05
6.0983e-05
9.20211e-05
3.02234e-05
7.34604e-05
0.00010763
7.01116e-05
7.931e-05
8.83476e-05
5.75987e-05
7.47907e-05
0.000115856
0.000116446
0.000127396
0.000177929
0.000207122
0.000180475
7.28337e-05
2.39378e-05
0.000225415
0.000222328
0
0
0
0
0
0.00177233
0.00867104
0
0
0
0
0.00386712
0.00560778
0
0
0
0
0
0
0
0
0
0
0.333854
0
0.0304535
0.00417578
0.0824772
0.00177452
0.00568525
0.00191055
0.00189517
0.00331724
0.00203736
0.001833
0.00211021
0.00201085
0.00145541
0.00131196
0.00162099
0.00136055
0.00151003
0.00130539
0.000985886
0.00115742
0.00153147
0.00143435
0.00110191
0.00109242
0.00121138
0.00103367
0.000927259
0.00110249
0.000818743
0.000726418
0.00057659
0.000524631
0.000701178
0.000483665
0.000507312
0.000371015
0.000416941
0.000327034
0.000367228
0.000295296
0.000259691
0.000252028
0.000205988
0.000190391
0.000193983
0.000185786
0.000173447
0.000142203
0.000162325
0.00016549
0.000120765
0.000205127
0.000141235
0
0
0
0
0
0
0
0
0
0.0416415
0
0
0
0.0487962
0.0133202
0.0310665
0.0268845
0.0489416
0.0689779
0
0
0
0
0
0
0
0
0
0
0
0
0
0
0
0
9.61618e-05
0
0
0
0.158374
0
0
0
0
0
0
0
0
0
0
0
0
0
0
0
0
0
0
0.0545417
0
0
0
0
0
0.00240788
0.0020948
0.00450177
0
0
0
0
0
0
0
0
0
0
0
0
0
0
0
0
0
0
0
0
0
0
0
0
0
0
0
0
0
0
0
0
0
0
0
0
0
0
0
0
0
0.00665813
0
0.00278743
0
0.0108843
0
0
0
0.000146331
0.000121344
9.77852e-05
0.000101623
9.87365e-05
0.00023317
5.07632e-05
0.000587752
0.000165174
0.000389583
0.000189018
0.00010283
0.000304101
0.000182645
0.000419627
0.000109494
7.51545e-05
0.000212847
0.000183333
0.000413068
0.000187183
0.00045301
0.000488237
0.000399586
0.000404761
0.00026984
0.000633035
0.000530921
0.00229578
0.00227177
0.00280234
0.00521638
0.00413573
0
0
0.0337983
0.0089316
0
0
0
0
0
0
0
0
0
0
0
0
0
0
0
0
0
0
0
0
0.000401445
0.000105453
0.000278559
0.000269952
0.00282348
0.00153722
0.00163672
0.000313858
0.000557908
0.000184257
0.000745498
7.21625e-05
0.000649321
0
0
0
0
0
0
0.0486203
0.134899
0
0
0
0
0
0
0
0
0
0.000724852
0
0
0
0
0
0
0
0.00342694
0
0
0.0300437
0
0
0
0
0
0
0
0
0
0
0
0
0
0
0
0
0
0
0
0
0
0
0.00236805
0
0
0
0
0
0
0
0
0
0
0
0.00628503
0
0
0
0
0
0
0
0
0
0
0
0
0
0
0
0
0
0
0
0
0
0
0
0
0
0
0
0
0
0
0
0
0
0.00403158
0
0
0
0
0
0
0
0
0.000804968
0.000356268
0.000559263
0.000208591
0.0011836
0.000382306
0.000162656
0.000157927
0.00012963
0.000195597
8.73449e-05
8.8263e-05
6.22032e-05
9.50182e-05
0.000461525
0.000472497
0.00043324
0.000424225
0.000413323
0.000358158
0.000352387
0.000453424
0.000541924
0.000567734
0.000422952
0.00041549
0.000521073
0.0005176
0.000534059
0.000730533
0.000541129
0.000434862
0.00107394
0.000807583
0.000557516
0.000672272
0.000601544
0.000470364
0.00041957
0.00068055
0.000402679
0.000521214
0.000489888
0.000248136
0.00050501
0.000412669
0.000519947
0.000549029
0.000598288
0.000529041
0.000374552
0.000614086
0.000556854
0.000583631
0.000551506
0.000483678
0.000441938
0.000489267
0.00499922
0.00513817
0.0020769
0.00112694
0.00147475
0.00126252
0.00184925
0.00100812
0.0089612
0.00630413
0.0172271
0.0305877
0.0756801
0.0164723
9.54566e-05
0.000177567
0.000118028
5.40589e-05
6.04875e-05
3.83809e-05
5.31076e-05
6.32482e-05
3.61909e-05
3.52623e-05
1.37871e-05
0.000105724
2.93876e-05
0.000105617
0.00011074
0.000129297
0.000163208
0.000172996
0.000121782
0.000146489
0.000140522
7.71062e-05
7.1103e-05
0.000175808
0.000105239
0
0
0
0
0
0
0
0
0
0.00423787
0
0
0
0
0
0.000129733
0.000112961
0
0
0
0
0
0.0585544
0.136878
0
0.0130696
0.0157783
0.00870912
0.00641488
0.00634833
0.00217764
0.0044081
0.00119562
0.00293799
0.00169724
0.000944904
0.00165915
0.00117395
0.00116037
0.00126367
0.00139149
0.00125536
0.00134015
0.0012719
0.000998813
0.00130397
0.00145314
0.00108742
0.000836018
0.000994799
0.000628514
0.00070393
0.00084544
0.000852922
0.000412281
0.000719227
0.000604819
0.000525415
0.000450163
0.00039603
0.000411452
0.000317761
0.000251318
0.000319396
0.000178169
0.000213372
0.000138911
0.000164676
0.000132548
0.000118902
0.000125118
0.000104799
9.73643e-05
0.000132566
0.000154028
9.88663e-05
0.000155127
0.000148849
0
0
0
0
0
0
0
0
0
0.000259074
0
0
0
0
0
0
0
0.139317
0
0
0.201216
0
0
0
0.00916249
0
0
0
0
0
0.00544594
0
0
0
0
0
0
0
0
0
0
0
0
0
0
0
0.00325147
0.00792011
0.00839175
0
0
0
0
0.00343164
0
0
0.00403851
0
0
0
0
0.00640586
0
0.00225787
0
0
0
0
0
0
0
0
0
0
0
0
0
0
0
0
0
0
0
0
0
0
0
0
0
0
0
0
0
0
0
0
0
0
0
0
0
0
0
0
0
0
0
0
0
0
0
0
0
0
0
0
0
0.00308382
0
0
0
0.0122416
0
0
0.000154794
0.000136634
0.000111761
0.000149442
0.000112897
0.00010963
3.36189e-05
0.000120422
7.55067e-05
0.000373216
0.000173758
6.01244e-05
0.0002532
0.000154574
0.000152765
0.000162352
0.000231474
0.000420875
0.000160025
0.000232027
0.000107523
0.000102382
0.000154052
3.28998e-05
0.00104341
0.000628738
0.000920804
0.000238985
0.000948955
0.000631861
0.000817563
0.000861301
0.000835408
0.0010091
0.0010217
0.0043673
0.00838716
0.0420758
0.203884
0.0104025
0.00195569
0
0
0
0
0
0
0
0
0
0
0.00161128
0
0
0
0
0.000289643
0
0.00646357
0
0
0.000388298
0.000158191
0.000599184
0.00053175
0.00166833
0.00104934
0.000312621
0.000987847
0.000600798
0.000217049
0.000399368
0.000240983
0
0
0.000233524
0
0
0.291546
0.295959
0
0
0
0
0
0
0
0
0.00290236
0.00381667
0
0
0.00324542
0
0.00225187
0
0
0
0
0.251566
0
0.00731173
0.135336
0
0
0
0
0
0
0
0
0
0
0
0
0
0
0
0
0
0
0.0170952
0
0
0
0
0
0
0
0
0
0
0
0
0
0
0
0
0
0
0
0
0
0
0
0
0
0
0
0
0
0
0
0
0
0
0
0
0.00170794
0
0
0
0
0
0
0.00117075
0
0
0
0
0
0
0
0
0
0
0.0943575
0
0
0
0
0
0
0
0
0
0
0
0
0
0.00070736
0.000593133
0.000410114
0.000248759
0.00028995
0.000124527
0.000154282
0.000123161
7.52178e-05
0.000111866
0.000107162
0.000102261
8.7294e-05
3.02117e-05
8.56896e-05
0.000489478
0.000402183
0.000439298
0.000432458
0.000423306
0.000406458
0.000427056
0.00038673
0.000351365
0.000498076
0.000481581
0.000381525
0.000430796
0.000430494
0.000690021
0.000498327
0.000686055
0.000461322
0.000719375
0.000919039
0.000636667
0.000765894
0.000372055
0.000216847
0.000282495
0.000628121
0.000392335
0.000225481
5.69401e-05
0.000160193
0.000458625
0.000356965
0.000442444
0.000157963
0.000236843
0.000583934
0.000336103
0.000277799
0.000162867
0.000429849
0.000418402
0.000257584
0.000347138
0.000466566
0.00807328
0.00247836
0.00193987
0.00122742
0.000190967
0.00141841
0.00325686
0.00816892
0.00982795
0.0149062
0.00577515
0.0062516
0.00809145
7.82024e-05
9.00091e-05
3.45474e-05
7.07917e-05
9.74328e-05
9.44747e-05
7.52406e-05
0.000123515
0.000100998
6.72171e-05
0.000125098
7.13893e-05
0.000149372
0.000148422
0.00015183
0.000176462
0.00015892
0.000161371
0.000103607
9.64489e-05
0.000122358
0.000107941
5.54656e-05
6.21074e-05
0.0164069
0.00782028
0.01996
0
0
0
0
0
0
0
0
0
0
0
0
0
0
0
0
0
0
0
0.0361534
0
0.0157098
0.00712246
0.00594057
0.00664929
0.00533115
0.000809455
0.00737626
0.00430392
0.00227537
0.00126312
0.00192495
0.00207883
0.00189595
0.0013223
0.00147025
0.00137287
0.0012645
0.00139152
0.00154441
0.00151376
0.000982779
0.000851344
0.00103844
0.000901597
0.000882997
0.00105739
0.000545003
0.000721298
0.000714977
0.000906231
0.000564096