/*--------------------------------*- C++ -*----------------------------------*\
  =========                 |
  \\      /  F ield         | OpenFOAM: The Open Source CFD Toolbox
   \\    /   O peration     | Website:  https://openfoam.org
    \\  /    A nd           | Version:  8
     \\/     M anipulation  |
\*---------------------------------------------------------------------------*/
FoamFile
{
    version     2.0;
    format      ascii;
    class       volScalarField;
    location    "11940";
    object      Hclip;
}
// * * * * * * * * * * * * * * * * * * * * * * * * * * * * * * * * * * * * * //

dimensions      [0 1 0 0 0 0 0];

internalField   nonuniform List<scalar> 
526318
(
0.689746
0.641993
0.710402
0.623175
0.699089
0.65867
0.665597
0.586427
0.642542
0.534095
0.500395
0.626124
0.570364
0.61281
0.570584
0.60027
0.569705
0.773386
0.670827
0.726082
0.716268
0.671653
0.430559
0.681472
0.557416
0.420956
0.69498
0.697673
0.691148
0.709392
0.742759
0.786661
0.767332
0.649544
0.643998
0.619364
0.625767
0.711116
0.641834
0.595587
0.643113
0.61918
0.288828
0.342358
0.240333
0.294777
0.271096
0.389433
0.573421
0.474218
0.552923
0.555344
0.515126
0.468422
0.001
0.211108
0.2095
0.00710538
0.725015
0.735773
0.763764
0.711337
0.656829
0.790027
0.775954
0.738029
0.728199
0.723112
0.631995
0.61699
0.731277
0.508815
0.566607
0.461426
0.416868
0.404786
0.507146
0.500928
0.411844
0.454763
0.533457
0.536613
0.492077
0.444089
0.472852
0.538596
0.539803
0.521066
0.466181
0.544835
0.441842
0.397501
0.39334
0.321919
0.316297
0.321644
0.318574
0.317929
0.316268
0.316201
0.001
0.001
0.001
0.001
0.001
0.001
0.228188
0.0373506
0.351696
0.317552
0.360891
0.47825
0.700564
0.584767
0.692972
0.717648
0.772799
0.749223
0.795042
0.314385
0.312695
0.315859
0.321168
0.275385
0.311348
0.226568
0.267491
0.177346
0.225923
0.175372
0.17555
0.166866
0.140051
0.132761
0.159003
0.103104
0.15664
0.107113
0.125928
0.0702235
0.0777909
0.0972494
0.123492
0.114584
0.0699071
0.06999
0.0839541
0.0730427
0.0704786
0.0753383
0.0905917
0.0775367
0.0807617
0.0791675
0.0813999
0.0470179
0.0781835
0.0813503
0.0478267
0.00404517
0.0805056
0.0316004
0.086049
0.583559
0.66596
0.622721
0.602332
0.408798
0.473609
0.40505
0.411071
0.405808
0.407955
0.427753
0.407264
0.342145
0.314636
0.282487
0.220096
0.276936
0.322159
0.322125
0.322522
0.210259
0.261076
0.146417
0.159592
0.167307
0.153068
0.157846
0.161363
0.152632
0.156947
0.150277
0.138826
0.11897
0.138005
0.130602
0.107714
0.0846915
0.11265
0.0958164
0.091435
0.107458
0.101596
0.0993776
0.0659136
0.081919
0.113408
0.109803
0.566566
0.585247
0.616733
0.573987
0.561687
0.568515
0.564601
0.434706
0.483498
0.228667
0.205871
0.204943
0.323531
0.459863
0.339771
0.376508
0.378228
0.323114
0.301984
0.001
0.001
0.001
0.150503
0.001
0.001
0.001
0.001
0.001
0.001
0.780065
0.757034
0.803947
0.795307
0.765979
0.763479
0.668327
0.756031
0.59746
0.542821
0.541931
0.542776
0.538994
0.54926
0.527176
0.529223
0.446411
0.509659
0.325875
0.385647
0.312099
0.327105
0.00100536
0.001
0.001
0.00100202
0.001
0.001
0.001
0.001
0.324183
0.137964
0.370192
0.377702
0.489054
0.587524
0.705247
0.714905
0.750817
0.719083
0.788565
0.824324
0.291943
0.293917
0.254513
0.222215
0.122319
0.159736
0.0851922
0.0954624
0.086362
0.0780142
0.0690843
0.0744622
0.001
0.0260271
0.0572793
0.0937825
0.147616
0.127151
0.0813367
0.074871
0.0126788
0.00382075
0.0516982
0.109106
0.0327673
0.0696538
0.0681015
0.0386132
0.0345478
0.001
0.001
0.001
0.001
0.001
0.001
0.0731101
0.11123
0.0745118
0.126688
0.473762
0.436917
0.333562
0.426597
0.339981
0.397677
0.408529
0.393853
0.406717
0.407871
0.321953
0.232246
0.160172
0.142477
0.221367
0.158909
0.147311
0.261571
0.145464
0.199747
0.140557
0.135412
0.145829
0.14205
0.15358
0.147758
0.148043
0.148747
0.146602
0.150482
0.156414
0.153417
0.165039
0.165836
0.169052
0.145635
0.158006
0.146929
0.112932
0.114827
0.14101
0.167772
0.165979
0.139822
0.12446
0.150058
0.185594
0.189587
0.194191
0.158719
0.19518
0.212581
0.245549
0.199119
0.201807
0.224745
0.265142
0.383744
0.454802
0.38137
0.420494
0.490519
0.55599
0.465474
0.331082
0.437151
0.339541
0.3584
0.099534
0.0422047
0.0730092
0.0560508
0.174958
0.295618
0.233445
0.296036
0.302485
0.315317
0.296205
0.001
0.001
0.001
0.001
0.001
0.001
0.001
0.00100998
0.001
0.00100962
0.001
0.00100889
0.001
0.001
0.001
0.001
0.802861
0.792887
0.829145
0.8138
0.796277
0.764558
0.697683
0.607124
0.542364
0.550029
0.531582
0.535351
0.512984
0.509433
0.490481
0.492444
0.440992
0.481117
0.404866
0.351062
0.295744
0.253697
0.001
0.00107473
0.0010747
0.001
0.001
0.001
0.001
0.00107467
0.00107488
0.00107479
0.00100999
0.00100984
0.001
0.00100942
0.001
0.001
0.001
0.001
0.001
0.001
0.001
0.001
0.001
0.001
0.0245061
0.001
0.242924
0.392899
0.415997
0.49934
0.722311
0.617532
0.729139
0.740534
0.739261
0.784559
0.810165
0.826643
0.212136
0.212997
0.163151
0.189323
0.13292
0.0952325
0.0854134
0.087361
0.0817796
0.0856129
0.0386869
0.0309012
0.001
0.001
0.0505171
0.0194512
0.00100512
0.0432603
0.0358513
0.0533495
0.001
0.001
0.001
0.001
0.001
0.001
0.001
0.001
0.001
0.001
0.001
0.232974
0.209192
0.209249
0.208611
0.232533
0.339823
0.292021
0.270097
0.157145
0.199133
0.189314
0.189775
0.0804392
0.0238002
0.198522
0.317759
0.206875
0.206989
0.189493
0.273313
0.248329
0.322363
0.356228
0.28187
0.261621
0.294082
0.176213
0.144367
0.146721
0.137519
0.0641291
0.112342
0.0382062
0.001
0.001
0.0911082
0.0861789
0.14082
0.139962
0.141685
0.144595
0.137861
0.146967
0.135096
0.150753
0.141262
0.163408
0.158996
0.164194
0.161846
0.181379
0.175706
0.193204
0.201472
0.150034
0.13373
0.197721
0.178634
0.16764
0.184321
0.164557
0.159201
0.205144
0.191891
0.292399
0.292876
0.253061
0.294443
0.302684
0.269901
0.365618
0.333724
0.396843
0.426251
0.44193
0.359987
0.358939
0.362401
0.323805
0.302346
0.269867
0.364454
0.213141
0.19291
0.243237
0.259053
0.001
0.001
0.0730556
0.191611
0.22615
0.260323
0.167776
0.128865
0.0927559
0.0352212
0.001
0.001
0.001
0.001
0.001
0.00100068
0.001
0.001
0.00100979
0.001
0.001
0.001
0.001
0.001
0.001
0.001
0.001
0.001
0.001
0.001
0.001
0.00101
0.001
0.001
0.001
0.001
0.00117297
0.001
0.00107886
0.001
0.00117273
0.00117275
0.001
0.001
0.001
0.001
0.001
0.001
0.001
0.001
0.00100959
0.001
0.00100965
0.001
0.001
0.001
0.795085
0.808292
0.830849
0.815086
0.794226
0.718052
0.548091
0.628821
0.511421
0.517701
0.491416
0.49438
0.482914
0.485459
0.478329
0.478727
0.419628
0.394515
0.299961
0.333295
0.195982
0.229035
0.001
0.001
0.001
0.001
0.001
0.001
0.001
0.001
0.00101978
0.001
0.001
0.001
0.001
0.001
0.001
0.001
0.001
0.00100737
0.001
0.001
0.001
0.001
0.001
0.001
0.001
0.001
0.00101
0.001
0.001
0.001
0.001
0.001
0.001
0.001
0.199493
0.0443496
0.413479
0.382978
0.445464
0.548749
0.652266
0.740153
0.756323
0.727257
0.771245
0.810235
0.790432
0.794301
0.00116715
0.001
0.001
0.001
0.001
0.001
0.001
0.001
0.001
0.001
0.001
0.001
0.001
0.001
0.001
0.00101
0.001
0.18929
0.193576
0.192836
0.156421
0.0793115
0.112213
0.037878
0.0289914
0.001
0.001
0.001
0.001
0.001
0.001
0.001
0.001
0.001
0.00936001
0.001
0.00102968
0.001
0.001
0.001
0.001
0.001
0.001
0.001
0.001
0.001
0.001
0.001
0.001
0.426223
0.40289
0.435068
0.452852
0.397779
0.350158
0.529518
0.545552
0.606466
0.618668
0.173886
0.210694
0.253994
0.340926
0.165644
0.0991532
0.149223
0.141906
0.001
0.0348125
0.0897766
0.001
0.184168
0.190192
0.184204
0.187646
0.209154
0.188284
0.199589
0.219378
0.0893759
0.0921561
0.001
0.0734109
0.0660719
0.0276322
0.001
0.001
0.001
0.001
0.001
0.0269667
0.0893162
0.0204737
0.0892405
0.134364
0.139243
0.141339
0.144781
0.144834
0.164213
0.157969
0.168767
0.172337
0.188623
0.178693
0.205398
0.202852
0.206922
0.207061
0.216364
0.207411
0.254805
0.220704
0.188385
0.188225
0.255801
0.224755
0.227548
0.274162
0.311557
0.310636
0.309981
0.311127
0.339409
0.396351
0.454298
0.478875
0.482484
0.462585
0.603316
0.546005
0.669991
0.712742
0.702816
0.740847
0.793829
0.662004
0.747902
0.768679
0.844256
0.892597
0.92002
0.937562
0.966485
0.913367
0.970651
0.92874
1.0029
1.00468
1.05501
1.02358
1.08372
1.11399
1.10458
1.05312
1.11954
1.14415
1.10967
1.1086
1.1707
1.15003
1.18296
1.12032
1.1234
1.1842
1.1551
1.10694
1.10927
1.14124
1.16974
0.164019
0.133095
0.296657
0.290473
0.262918
0.258411
0.254871
0.0216539
0.156098
0.001
0.001
0.001
0.001
0.001
0.001
0.001
0.100752
0.001
0.001
0.001
0.001
0.001
0.001
0.001
0.00101
0.001
0.001
0.001
0.001
0.00101
0.001
0.001
0.001
0.001
0.00163686
0.001
0.001
0.001
0.001
0.001
0.001
0.001
0.001
0.00129738
0.001
0.001
0.001
0.001
0.001
0.001
0.001
0.001
0.001
0.00100829
0.001
0.001
0.001
0.00100928
0.00100997
0.001
0.001
0.001
0.001
0.001
0.001
0.00101
0.001
0.001
0.00102606
0.00106302
0.001
0.00102687
0.001
0.00101
0.00101
0.001
0.001
0.001
0.001
0.001
0.001
0.001
0.001
0.0010078
0.001
0.001
0.001
0.001
0.001
0.001
0.001
0.001
0.00101
0.001
0.001
0.783875
0.775147
0.747705
0.745266
0.662568
0.731977
0.560788
0.489189
0.48469
0.485326
0.481669
0.487524
0.42092
0.429159
0.270855
0.235676
0.191803
0.364165
0.365173
0.315179
0.313887
0.315084
0.001
0.001
0.00103381
0.00103481
0.001
0.001
0.001
0.001
0.00103414
0.001
0.001
0.00100893
0.001
0.001
0.001
0.001
0.001
0.001
0.001
0.001
0.001
0.001
0.00136129
0.00136144
0.001
0.001
0.001
0.001
0.0451304
0.001
0.205824
0.372061
0.409209
0.43451
0.517452
0.63439
0.706129
0.670844
0.724026
0.654128
0.703921
0.744789
0.703584
0.695971
0.00115177
0.001
0.00100998
0.001
0.001
0.00119488
0.001
0.001
0.00119488
0.001
0.001
0.001
0.001
0.001
0.001
0.001
0.001
0.001
0.00101
0.001
0.001
0.001
0.001
0.001
0.00194302
0.0010084
0.163591
0.169113
0.0871756
0.102651
0.001
0.00321944
0.001
0.001
0.001
0.00137099
0.001
0.001
0.001
0.001
0.001
0.001
0.001
0.001
0.00125352
0.00125357
0.001
0.001
0.001
0.001
0.001
0.001
0.001
0.001
0.001
0.001
0.0012181
0.001
0.65146
0.655231
0.480079
0.396717
0.386671
0.358135
0.649935
0.569329
0.805514
0.884818
0.783337
0.70577
0.896929
0.878469
0.946936
0.990864
1.02436
1.02281
1.05434
1.02404
1.08126
1.10822
1.10266
1.10359
1.12382
1.10941
1.10797
1.15238
1.09763
1.09113
0.213624
0.146809
0.282486
0.351954
0.135135
0.0896688
0.146525
0.141436
0.001
0.0243965
0.001
0.0201821
0.001
0.183217
0.128383
0.190101
0.183456
0.182078
0.0770373
0.001
0.001
0.001
0.001
0.001
0.001
0.001
0.001
0.001
0.001
0.001
0.001
0.001
0.0336979
0.001
0.0853593
0.035532
0.0742568
0.132358
0.162563
0.144369
0.177553
0.179717
0.190707
0.177059
0.212624
0.226049
0.223119
0.23732
0.240956
0.25093
0.277418
0.292457
0.282033
0.271901
0.277488
0.267693
0.285259
0.30232
0.347374
0.34371
0.308515
0.345866
0.338307
0.36454
0.402191
0.47106
0.491473
0.494283
0.508733
0.568553
0.661724
0.72955
0.746372
0.871702
0.743364
0.795937
0.94375
0.969769
0.969516
1.00483
1.05768
1.10331
1.11784
1.11985
1.14847
1.17737
1.20108
1.20211
1.20154
1.20134
1.20094
1.18421
1.12047
1.18267
1.15152
1.1087
1.10615
1.13569
1.16699
1.17809
1.10651
1.16469
1.12512
0.001
0.00100684
0.0153746
0.0941154
0.00101935
0.0467573
0.184445
0.120431
0.14508
0.001
0.001
0.001
0.001
0.00324242
0.001
0.001
0.001
0.001
0.001
0.00127153
0.00127128
0.001
0.001
0.001
0.00100999
0.001
0.001
0.001
0.001
0.00142084
0.00142144
0.001
0.001
0.001
0.00163669
0.001
0.001
0.001
0.001
0.001
0.00101
0.001
0.00129722
0.001
0.00101
0.001
0.001
0.001
0.001
0.001
0.001
0.00105213
0.001
0.001
0.001
0.001
0.001
0.001
0.001
0.001
0.001
0.001
0.001
0.001
0.001
0.001
0.001
0.001
0.001
0.001
0.001
0.001
0.001
0.001
0.00101
0.001
0.00100962
0.001
0.001
0.001
0.001
0.001
0.001
0.001
0.001
0.698057
0.696549
0.676288
0.682706
0.608793
0.678197
0.482784
0.547018
0.444231
0.445117
0.387874
0.370021
0.311987
0.313325
0.226101
0.131732
0.0992408
0.274026
0.313019
0.315034
0.310359
0.315981
0.00103656
0.001
0.00103484
0.001
0.001
0.001
0.001
0.001
0.00100548
0.001
0.001
0.001
0.001
0.001
0.001
0.00100999
0.001
0.001
0.001
0.001
0.001
0.001
0.001
0.00101
0.001
0.001
0.001
0.001
0.112923
0.001
0.246503
0.382705
0.354325
0.466648
0.635007
0.531254
0.609064
0.61517
0.607551
0.631529
0.692633
0.680792
0.687635
0.664232
0.001
0.001
0.001
0.001
0.001
0.001
0.001
0.001
0.001
0.001
0.001
0.001
0.001
0.001
0.001
0.001
0.001
0.001
0.001
0.00100999
0.001
0.001
0.00175301
0.001
0.00101
0.001
0.001
0.001
0.001
0.001
0.001
0.0416449
0.0421803
0.00466389
0.001
0.001
0.001
0.001
0.001
0.0821782
0.0262822
0.00464001
0.001
0.001
0.001
0.00100989
0.0012726
0.0012726
0.001
0.001
0.001
0.001
0.001
0.001
0.001
0.001
0.001
0.001
0.001
0.00100971
0.001
0.001
0.001
0.001
0.001
0.001
1.22995
1.23456
1.26378
1.24545
1.28136
1.27153
1.29085
1.28588
1.33815
1.32859
1.28923
1.343
1.30888
1.35844
1.19445
1.14251
1.1638
1.21543
1.20012
1.16383
1.16588
1.22381
1.23218
1.20076
1.18259
1.23571
1.22219
1.22902
1.2553
1.11007
1.10807
1.10613
1.10711
1.1228
1.14163
0.698528
0.646842
0.542884
0.445087
0.350493
0.438931
0.637781
0.621493
0.854394
0.880814
0.768196
0.848088
0.885656
0.934578
0.983603
1.02312
1.02079
1.02282
1.01942
1.05146
1.06224
1.09017
1.07663
1.07981
1.08428
1.09377
1.07074
1.07029
0.262956
0.191777
0.131494
0.125887
0.188353
0.351865
0.338058
0.0661481
0.122008
0.001
0.001
1.20961
1.23207
1.24961
1.26062
1.26261
1.27314
1.28007
1.30375
1.28918
1.30545
1.30564
1.35102
1.37322
1.39659
1.39739
1.39636
1.41464
1.43893
0.001
0.001
0.00145418
0.107896
0.0044317
0.174709
0.0653756
0.00142546
0.00131048
0.001
0.00131053
0.00131047
0.001
0.001
0.001
0.001
0.001
0.001
0.001
0.001
0.001
0.001
0.00123534
0.001
0.0336591
0.001
0.124875
0.067968
0.147797
0.114619
0.156412
0.174332
0.208396
0.227328
0.244598
0.25118
0.256225
0.25111
0.305433
0.294049
0.286061
0.281666
0.336752
0.307425
0.38053
0.342194
0.32509
0.365404
0.410488
0.40311
0.423977
0.461337
0.461757
0.406142
0.508662
0.546122
0.521124
0.497149
0.593436
0.667431
0.746297
0.811979
0.7588
0.776465
0.903876
0.963064
1.00852
0.985953
1.05655
1.08278
1.12616
1.14442
1.13694
1.15721
1.21135
1.1927
1.20135
1.21169
1.20206
1.19859
1.1989
1.1987
1.19864
1.19729
1.1982
0.00100352
0.001
0.00228939
0.001
0.001
0.001
0.001
0.001
0.001
0.001
0.001
0.001
0.001
0.001
0.00145413
0.001
0.001
0.001
0.001
0.00127099
0.001
0.001
0.001
0.001
0.001
0.001
0.00100999
0.001
0.00111706
0.00111704
0.00141574
0.001
0.00101495
0.001
0.001
0.001
0.001
0.001
0.001
0.001
0.00100984
0.001
0.00111696
0.001
0.001
0.001
0.00101
0.001
0.001
0.001
0.001
0.00238887
0.001
0.001
0.001
0.001
0.001
0.001
0.00100993
0.001
0.001
0.001
0.001
0.001
0.00105212
0.001
0.001
0.001
0.001
0.00105121
0.001
0.001
0.001
0.001
0.001
0.001
0.001
0.001
0.00101
0.001
0.001
0.001
0.001
0.001
0.001
0.001
0.001
0.001
0.001
0.00204509
0.001
0.001
0.001
0.001
0.00204504
1.38545
1.35709
1.33354
1.43378
1.46547
1.46327
0.672116
0.681139
0.661679
0.65466
0.584218
0.649158
0.480999
0.402845
0.332045
0.345661
0.313721
0.31299
0.309653
0.316792
0.188137
0.111032
0.202193
0.279025
0.276142
0.001
0.001
0.001
0.001
0.001
0.001
0.001
0.001
0.001
0.001
0.00100943
0.001
0.001
0.001
0.001
0.001
0.00100998
0.001
0.001
0.001
0.001
0.001
0.001
0.001
0.001
0.001
0.001
0.0835753
0.227249
0.337467
0.335706
0.652878
0.573887
0.587281
0.373424
0.463618
0.550992
0.605031
0.605016
0.602591
0.624873
0.646712
0.646037
0.001
0.00115132
0.001
0.001
0.001
0.001
0.00100904
0.001
0.001
0.001
0.001
0.001
0.001
0.001
0.001
0.001
0.001
0.00100504
0.001
0.001
0.001
0.001
0.001
0.001
0.001
0.001
0.001
0.001
0.001
0.001
0.00101
0.001
0.001
0.001
0.001
0.001
0.001
0.039812
0.0767738
0.0635981
0.00388971
0.00389942
0.001
0.001
0.001
0.001
0.001
0.001
0.0106366
0.001
0.001
0.001
0.001
0.001
0.001
0.001
0.001
0.001
0.001
0.001
0.001
0.001
0.001
0.001
0.001
0.001
0.001
0.001
0.001
0.001
0.001
0.001
0.001
0.001
1.22891
1.24633
1.26221
1.28978
1.28881
1.29283
1.32127
1.30553
1.15345
1.15319
1.13668
1.15762
1.19166
1.15208
1.20513
1.17433
1.09346
1.08247
1.07904
1.10944
1.13589
1.11208
0.703798
0.626931
0.517875
0.618453
0.46096
0.36785
0.623224
0.630953
0.863624
0.863947
0.881123
0.777184
0.854252
0.967154
0.913743
0.857591
0.897382
1.00025
1.01253
1.00369
1.00864
1.01953
1.04039
1.06939
1.06081
1.06799
1.06747
1.06723
1.06682
1.06937
1.06538
0.110004
0.116934
0.25835
0.332453
0.112725
0.2037
0.356552
0.358964
0.103149
0.044854
0.001
0.020082
1.24498
1.20129
1.21978
1.27169
1.26595
1.26804
1.28241
1.29776
1.32379
1.32985
1.33085
1.33432
1.35905
1.40068
1.37626
1.3963
1.41579
1.46718
1.43894
1.27602
1.28279
1.30097
1.47052
1.46835
1.45901
0.00145399
0.00145394
0.00145402
0.001
0.001
0.00103251
0.001
0.001
0.001
0.001
0.001
0.001
0.001
0.00101
0.001
0.00100987
0.001
0.001
0.001
0.001
0.00185725
0.001
0.001
0.001
0.0574332
0.0845975
0.0135803
0.0573433
0.117833
0.0810712
0.209784
0.156651
0.229269
0.232847
0.240065
0.236613
0.282153
0.322536
0.362359
0.35998
0.366778
0.356304
0.374407
0.364029
0.409301
0.414272
0.435013
0.435532
0.412795
0.417071
0.537349
0.578305
0.484692
0.545552
0.598042
0.551652
0.660357
0.697247
0.800953
0.838882
0.814036
0.906046
0.959143
1.06238
1.04516
1.10558
1.08343
1.17731
1.1819
1.17569
1.20383
1.23022
1.22971
1.28359
1.24644
1.27543
1.23625
1.23673
1.27125
1.2037
1.23935
1.20253
0.001
0.001
0.001
0.001
0.001
0.001
0.001
0.001
0.00101
0.001
0.001
0.001
0.001
0.001
0.001
0.001
0.001
0.001
0.001
0.001
0.001
0.001
0.001
0.001
0.001
0.00103186
0.001
0.001
0.00111703
0.00111704
0.001
0.001
0.001
0.001
0.00101
0.001
0.0010004
0.001
0.001
0.001
0.001
0.001
0.00218122
0.001
0.001
0.001
0.001
0.001
0.00101141
0.001
0.001
0.00221401
0.001
0.001
0.001
0.00101137
0.00126928
0.001
0.00100983
0.001
0.001
0.001
0.00101
0.001
0.0010518
0.0010518
0.001
0.001
0.0010513
0.00105157
0.001
0.001
0.001
0.001
0.0015452
0.001
0.00154505
0.001
0.001
0.001
0.001
0.00100984
0.00101
0.00100994
0.001
0.001
0.001
0.001
0.001
0.001
0.001
0.001
0.001
0.001
0.00126921
0.001
0.00100958
0.00100997
0.001
0.001
0.001
0.001
0.00101
1.34052
1.36416
1.36712
1.36277
1.39468
1.51272
1.48683
1.48896
1.51576
1.44923
0.582084
0.571687
0.510842
0.508029
0.466077
0.495519
0.412122
0.361267
0.352174
0.312137
0.290318
0.290744
0.203497
0.207882
0.0783768
0.121937
0.1213
0.001
0.001
0.001
0.00101
0.001
0.001
0.001
0.00103667
0.0501182
0.001
0.001
0.001
0.001
0.001
0.001
0.001
0.00101
0.001
0.001
0.00102177
0.001
0.001
0.001
0.001
0.001
0.448424
0.451023
0.495259
0.194298
0.335787
0.329976
0.370791
0.491599
0.559105
0.525102
0.432922
0.518306
0.538618
0.543046
0.470697
0.494977
0.001
0.001
0.00115136
0.00101
0.001
0.001
0.00101
0.0011873
0.001
0.001
0.001
0.001
0.001
0.001
0.001
0.00102167
0.001
0.00102184
0.00102175
0.00101
0.001
0.001
0.001
0.001
0.001
0.00100577
0.001
0.001
0.001
0.001
0.001067
0.001
0.00100563
0.001
0.001
0.001
0.001
0.001
0.001
0.001
0.001
0.001
0.001
0.001
0.00102178
0.0586989
0.0688537
0.0811931
0.001
0.001
0.001
0.001
0.001
0.001
0.00147187
0.001
0.001
0.00147206
0.001
0.001
0.001
0.001
0.001
0.001
0.001
0.0010368
0.001
0.001
0.001
0.001
0.001
0.001
0.001
0.00118083
0.001
0.00103675
0.001
0.001
0.001
0.001
0.00101
0.001
0.001
0.00118081
1.23423
1.18451
1.26613
1.22817
1.2328
1.2899
1.27734
1.32066
1.30644
1.34896
1.30976
1.27203
1.34801
1.30072
1.12018
1.12059
1.10964
1.1241
1.13567
1.15168
1.14906
1.16271
1.06748
1.06899
1.0912
1.07731
1.10732
1.11225
0.71133
0.623728
0.54546
0.623299
0.420364
0.511713
0.624787
0.629728
0.854874
0.853458
0.860108
0.779358
0.944093
0.989493
0.899808
0.855594
0.994666
0.996241
1.00963
0.99733
1.0332
1.05548
1.06779
1.06274
1.06601
1.06525
1.06614
1.06788
1.06885
1.06283
0.105787
0.0996993
0.270661
0.349605
0.245732
0.171153
0.393624
0.351745
0.0839036
0.101835
0.0729491
0.001
1.24295
1.27763
1.26328
1.28951
1.30695
1.29448
1.32976
1.34052
1.31705
1.33188
1.31976
1.32896
1.33631
1.35699
1.37917
1.39648
1.4009
1.44923
1.42745
1.47769
1.48394
1.35401
1.36468
1.48592
1.49275
0.001
0.001
0.001
0.001
0.001
0.001
0.001
0.001
0.00101
0.001
0.001
0.001
0.001
0.001
0.001
0.001
0.0018572
0.001
0.001
0.001
0.001
0.001
0.001
0.001
0.0714178
0.0724768
0.0364735
0.001
0.103719
0.161497
0.212573
0.199256
0.218737
0.211649
0.327874
0.275026
0.377007
0.372176
0.396818
0.403023
0.377974
0.434074
0.476958
0.44915
0.436981
0.465333
0.516388
0.500786
0.480206
0.524504
0.609896
0.607238
0.602748
0.624335
0.745933
0.66887
0.840009
0.861157
0.863747
0.928081
1.00702
1.0814
1.09383
1.10386
1.15232
1.19904
1.23262
1.23372
1.26959
1.24407
1.29538
1.3078
1.31027
1.30862
1.31104
1.31027
1.27981
1.31057
1.27795
0.001
0.001
0.00716369
0.00102513
0.001
0.001
0.001
0.001
0.001
0.001
0.00101
0.0013201
0.00131875
0.00132018
0.00131948
0.00131913
0.00131838
0.001
0.00131685
0.00682669
0.00100556
0.001
0.001
0.00103017
0.001
0.00103096
0.00103242
0.001
0.001
0.00100217
0.001
0.001
0.001
0.001
0.00101
0.0010369
0.001
0.001
0.00100986
0.001
0.001
0.001
0.00186447
0.001
0.001
0.001
0.001
0.001
0.001
0.001
0.001
0.001
0.00100941
0.001
0.001
0.001
0.00100992
0.001
0.001
0.001
0.00101
0.001
0.001
0.001
0.001
0.001
0.001
0.0010008
0.001
0.001
0.001
0.00100949
0.001
0.001
0.001
0.001
0.001
0.001
0.001
0.001
0.001
0.001
0.00101
0.001
0.001
0.001
0.001
0.001
0.001
0.001
0.001
0.001
0.001
0.001
0.001
0.001
0.001
0.001
0.001
0.001
0.001
0.001
0.001
0.001
0.001
0.001
0.001
0.001
0.001
0.001
0.001
0.001
0.00106425
0.001
0.001
0.001
0.001
1.53539
1.53186
1.54304
1.51864
1.54572
1.53713
1.38494
1.36527
1.45038
1.41238
1.53072
1.55164
1.50112
1.40516
1.33176
0.453478
0.446425
0.449395
0.438906
0.445244
0.376754
0.427497
0.209005
0.268501
0.133738
0.13087
0.0791282
0.079939
0.0790184
0.001
0.001
0.001
0.001
0.001
0.0749216
0.001
0.001
0.001
0.001
0.001
0.001
0.001
0.001
0.001
0.001
0.001
0.00101408
0.00101451
0.001
0.00101439
0.001
0.001
0.001
0.451227
0.448372
0.450087
0.4491
0.452327
0.159834
0.280137
0.221741
0.340291
0.401962
0.426226
0.356698
0.439033
0.392229
0.390223
0.376868
0.001
0.00110999
0.001
0.001
0.001
0.001
0.001
0.00101466
0.001
0.001
0.00101355
0.001
0.001
0.001
0.00102053
0.001
0.001
0.001
0.001
0.001
0.001
0.001
0.001
0.001
0.001
0.00100955
0.001
0.001
0.001
0.001
0.001
0.001
0.001
0.001
0.001
0.001
0.00106715
0.001
0.00106693
0.001
0.001
0.001
0.001
0.001
0.00100037
0.001
0.001
0.001
0.001
0.001
0.00101
0.001
0.001
0.001
0.001
0.001
0.001
0.0550826
0.001
0.001
0.001
0.001
0.001
0.001
0.001
0.001
0.001
0.00100956
0.001
0.001
0.001
0.001
0.001
0.001
0.001
0.001
0.001
0.001
0.001
0.001
0.001
0.001
0.001
0.001
0.001
0.001
0.001
0.001
0.001
0.001
0.00182651
0.00182473
0.001
0.001
0.001
0.001
0.00100972
0.001
1.21184
1.18269
1.20239
1.201
1.21056
1.21886
1.22497
1.27861
1.26347
1.29036
1.35057
1.30823
1.26441
1.11313
1.11385
1.1371
1.12549
1.15139
1.14861
1.17989
1.16032
1.06641
1.07571
1.09772
1.0846
1.09925
1.10698
0.749584
0.664918
0.59261
0.618629
0.568841
0.482517
0.660021
0.630092
0.856411
0.858381
0.81547
0.865964
0.950507
0.997791
0.858456
0.906512
0.998609
0.997551
1.01881
1.00131
1.04443
1.06104
1.05845
1.06487
1.06139
1.06134
1.06533
1.06574
1.06058
1.06259
0.0977494
0.161311
0.345506
0.328333
0.243601
0.328766
0.347143
0.421706
0.0973557
0.092398
0.0854199
0.00294974
0.001
0.001
0.001
1.31138
1.31561
1.34284
1.3355
1.35716
1.3685
1.36933
1.36845
1.40503
1.38401
1.39667
1.36368
1.39794
1.40401
1.43012
1.44634
1.4631
1.4596
1.51386
1.51305
1.53666
1.51211
1.4236
1.43155
1.54447
1.54347
0.001
0.001
0.00101
0.001
0.001
0.00124103
0.00124204
0.001
0.001
0.001
0.001
0.00203843
0.00107728
0.001
0.001
0.001
0.00100232
0.001
0.001
0.001
0.001
0.001
0.001
0.001
0.001
0.020387
0.0901716
0.001
0.196859
0.133029
0.2032
0.208092
0.296589
0.232149
0.354885
0.391558
0.389009
0.390478
0.51889
0.485153
0.451005
0.507645
0.53088
0.525033
0.516429
0.509851
0.523885
0.524653
0.603568
0.649229
0.681179
0.639603
0.68564
0.71003
0.849907
0.78426
0.878236
0.865016
0.945379
1.02073
1.10921
1.1038
1.14005
1.17705
1.25075
1.23946
1.26013
1.26561
1.29241
1.30022
1.32068
1.31127
1.32744
1.32201
1.31392
1.32612
1.31172
1.31334
0.001
0.001
0.00101
0.001
0.001
0.001
0.001
0.001
0.001
0.00131751
0.001
0.001
0.001
0.00131657
0.00132006
0.00131669
0.00131981
0.00131799
0.00131788
0.001
0.001
0.00100968
0.001
0.001
0.001
0.00100179
0.001
0.001
0.001
0.001
0.001
0.00101
0.001
0.001
0.00100863
0.00103689
0.001
0.001
0.001
0.00361182
0.001
0.001
0.001
0.00100967
0.001
0.001
0.001
0.00100983
0.001
0.001
0.00100647
0.001
0.00100976
0.001
0.001
0.001
0.001
0.001
0.00363389
0.001
0.001
0.001
0.001
0.001
0.00122499
0.00122489
0.00122491
0.001
0.001
0.001
0.001
0.001
0.001
0.001
0.001
0.001
0.001
0.001
0.001
0.001
0.001
0.001
0.001
0.001
0.001
0.001
0.001
0.001
0.001
0.001
0.001
0.001
0.001
0.001
0.001
0.001
0.001
0.001
0.001
0.001
0.001
0.001
0.001
0.001
0.001
0.001
0.00101
0.001
0.00134187
0.001
0.00114214
0.001
0.001
0.00114548
0.001
0.001
1.55291
1.58219
1.59898
1.55202
1.54736
1.53012
1.55443
1.43143
1.46284
1.47278
1.45104
1.50847
1.53872
1.54006
1.39475
1.40233
1.33653
1.38496
1.36469
0.445486
0.444401
0.345465
0.310317
0.407368
0.33749
0.346822
0.214277
0.241568
0.106335
0.0785724
0.0819347
0.0797533
0.0568834
0.001
0.001
0.001
0.105999
0.001
0.001
0.001
0.00104534
0.001
0.001
0.001
0.001
0.001
0.001
0.001
0.001
0.001
0.00101
0.001
0.001
0.00101338
0.001
0.001
0.001
0.407425
0.450942
0.425824
0.401368
0.166153
0.165171
0.188384
0.259292
0.375675
0.378538
0.329758
0.376862
0.375817
0.00100999
0.001
0.001
0.001
0.001
0.001
0.00133174
0.00133393
0.001
0.001
0.00101
0.00100946
0.001
0.001
0.00100846
0.001
0.0010099
0.0037316
0.001
0.001
0.001
0.001
0.001
0.001
0.001
0.00106712
0.001
0.001
0.00111185
0.001
0.001
0.001
0.001
0.001
0.001
0.001
0.001
0.001
0.001
0.001
0.001
0.001
0.001
0.001
0.001
0.001
0.001
0.001
0.001
0.001
0.001
0.0020024
0.001
0.001
0.001
0.001
0.001
0.001
0.001
0.001
0.001
0.001
0.001
0.001
0.001
0.001
0.001
0.00104956
0.001
0.001
0.001
0.00107267
0.001
0.001
0.001
0.001
0.001
0.001
0.001
0.001
0.001
0.001
0.001
0.001
0.001
0.001
0.001
0.001
0.001
0.001
0.001
0.001
0.001
0.001
0.001
0.001
0.001
0.00126836
0.00101
0.001
0.001
0.001
0.001
0.00100999
0.001
0.001
1.19011
1.18509
1.24136
1.21062
1.23418
1.23483
1.25897
1.23356
1.25117
1.30505
1.26085
1.33626
1.3031
1.36917
1.09748
1.11638
1.11325
1.13269
1.1135
1.14157
1.1833
1.13283
1.06508
1.07581
1.08285
1.08604
1.08645
1.09095
0.80049
0.722443
0.606373
0.618997
0.518679
0.619931
0.636364
0.686217
0.866908
0.860115
0.87
0.843235
0.9531
1.00309
0.923606
0.871327
1.0025
1.0051
1.00912
1.02804
1.04993
1.05073
1.05494
1.06809
1.06106
1.06492
1.05979
1.05693
1.0648
1.06833
0.186489
0.0932843
0.355858
0.354751
0.261366
0.364717
0.356357
0.45501
0.0853696
0.0806105
0.0682466
0.0503489
0.001
0.086421
1.32499
1.34277
1.36313
1.39838
1.39223
1.41345
1.42668
1.43597
1.44295
1.43081
1.44149
1.45833
1.4813
1.49625
1.49107
1.50408
1.52219
1.54727
1.55489
1.56312
1.5643
1.44191
1.43264
1.58493
1.60785
0.001
0.001
0.001
0.001
0.001
0.001
0.001
0.001
0.001
0.00203834
0.001
0.001
0.001
0.001
0.001
0.00105409
0.00105408
0.001
0.001
0.001
0.001
0.001
0.001
0.001
0.001
0.0193843
0.0247577
0.111807
0.168747
0.150034
0.218625
0.166625
0.357048
0.277525
0.388521
0.391803
0.407658
0.466356
0.595842
0.599258
0.541067
0.572691
0.60207
0.548846
0.660808
0.583712
0.558819
0.598632
0.728351
0.742722
0.804092
0.859654
0.740201
0.833016
0.977076
0.930348
0.999262
0.965364
1.16156
1.12551
1.1934
1.20822
1.27665
1.28938
1.34687
1.31497
1.36003
1.34192
1.36012
1.39622
1.36816
1.39976
1.40999
1.3685
1.3567
1.40144
1.39742
1.36653
0.001
0.001
0.00101
0.001
0.001
0.001
0.001
0.001
0.001
0.00107567
0.001
0.001
0.001
0.001
0.001
0.001
0.00100968
0.0013188
0.001
0.001
0.00131861
0.00100993
0.001
0.001
0.00123581
0.001
0.001
0.001
0.001
0.001
0.00152631
0.00100984
0.001
0.001
0.001
0.001
0.001
0.00100967
0.001
0.001
0.001
0.001
0.001
0.001
0.001
0.001
0.00101259
0.00101311
0.00101239
0.001
0.001
0.001
0.001
0.00117733
0.001
0.001
0.00117725
0.001
0.001
0.001
0.00100996
0.0013418
0.001
0.00114549
0.001
0.001
0.001
0.001
0.00101
0.001
0.001
0.001
0.001
0.001
0.001
0.001
0.001
0.001
0.001
0.001
0.001
0.001
0.001
0.001
0.001
0.001
0.001
0.001
0.001
0.001
0.001
0.001
0.001
0.001
0.001
0.001
0.001
0.001
0.001
0.001
0.001
0.001
0.001
0.001
0.001
0.001
0.001
0.001
0.001
0.001
0.001
0.001
0.001
0.001
0.001
0.001
0.001
0.00114214
0.001
0.001
0.001
0.0011454
0.001
0.001
1.6204
1.59408
1.61338
1.57482
1.58206
1.59533
1.58851
1.56386
1.58595
1.44821
1.45712
1.45328
1.48519
1.54337
1.58413
1.59665
1.49202
1.37295
1.41626
1.38117
1.37085
1.37103
1.41804
1.3015
0.212024
0.306048
0.206425
0.248992
0.247513
0.154876
0.155497
0.158187
0.158092
0.158065
0.131921
0.0527031
0.0270924
0.001
0.001
0.0560698
0.166024
0.001
0.001
0.00105244
0.001
0.001
0.00100999
0.001
0.00101277
0.00100155
0.001
0.001
0.00111007
0.001
0.001
0.001
0.00110176
0.001
0.00100853
0.001
0.00100507
0.313423
0.243312
0.217946
0.301159
0.17091
0.188504
0.325894
0.256009
0.301267
0.376403
0.372522
0.00110567
0.001
0.001
0.00115226
0.001
0.001
0.00133183
0.00133248
0.001
0.001
0.00100995
0.001
0.001
0.001
0.001
0.001
0.00383197
0.00399416
0.001
0.001
0.00395877
0.001
0.00200243
0.001
0.001
0.001
0.001
0.00343915
0.001
0.00111192
0.00344996
0.001
0.001
0.001
0.001
0.001
0.001
0.001
0.001
0.001
0.001
0.001
0.001
0.00101
0.001
0.001
0.001
0.001
0.001
0.00117661
0.001
0.001
0.001
0.00101
0.001
0.001
0.001
0.001
0.001
0.001
0.001
0.001
0.001
0.001
0.001
0.001
0.001
0.001
0.001
0.001
0.001
0.001
0.001
0.001
0.001
0.001
0.00104956
0.00104956
0.001
0.001
0.001
0.001
0.001
0.001
0.001
0.001
0.00159814
0.001
0.001
0.001
0.001
0.001
0.001
0.00159814
0.001
0.001
0.001
0.001
0.001
0.001
0.001
0.001
0.001
0.001
0.00100203
0.001
0.001
0.00101
0.00101
0.001
0.00101
0.001
0.001
0.001
0.001
0.001
0.001
0.001
1.15625
1.1611
1.15027
1.20175
1.18809
1.20464
1.18781
1.21755
1.23452
1.26792
1.26928
1.26721
1.31033
1.27248
1.36565
1.0904
1.09467
1.0943
1.10003
1.09847
1.09607
1.10608
1.12399
1.11262
1.06689
1.07291
1.08637
1.08741
1.09037
0.771035
0.84335
0.647025
0.640732
0.556283
0.661238
0.719824
0.660175
0.877401
0.892908
0.898247
0.881498
1.00564
0.964287
0.936054
0.972996
1.01783
1.00839
1.04366
1.06057
1.06176
1.07742
1.07126
1.06312
1.06293
1.0712
1.07293
1.0834
1.066
0.184182
0.083581
0.36051
0.362116