/*--------------------------------*- C++ -*----------------------------------*\
  =========                 |
  \\      /  F ield         | OpenFOAM: The Open Source CFD Toolbox
   \\    /   O peration     | Website:  https://openfoam.org
    \\  /    A nd           | Version:  8
     \\/     M anipulation  |
\*---------------------------------------------------------------------------*/
FoamFile
{
    version     2.0;
    format      ascii;
    class       volScalarField;
    location    "11940";
    object      nut;
}
// * * * * * * * * * * * * * * * * * * * * * * * * * * * * * * * * * * * * * //

dimensions      [0 2 -1 0 0 0 0];

internalField   nonuniform List<scalar> 
526318
(
9.81897e-05
8.30023e-05
0.000168422
5.26618e-05
3.75981e-05
0.000150352
0.00033353
0.000253824
3.82785e-05
9.85668e-05
6.29656e-05
6.25633e-05
0.000170855
7.88821e-05
5.12678e-05
3.5356e-05
0.000157717
3.95872e-05
5.26089e-05
2.97215e-05
5.72204e-05
0.00018735
0.000235638
0.000281742
9.39969e-05
0.000136879
4.68416e-05
0.000329405
0.000100511
7.34527e-05
0.000115281
8.62137e-05
0.000147502
0.000170686
0.000174985
0.000140413
0.000219385
1.88507e-05
0.000104269
0.000119542
7.0159e-05
0.000157976
5.95685e-05
0.000141137
0.000205384
0.000270872
8.82337e-05
4.61672e-05
0.000143352
0.000189023
0.000187671
5.95918e-05
6.03583e-05
4.16066e-05
0
0.000242766
3.46751e-05
2.14728e-06
5.92188e-05
0.00013524
0.000130011
0.000126591
0.000171821
0.000132133
0.000140741
0.000136423
0.00018919
0.000147036
0.000214193
0.000166132
0.000104026
0.000135035
6.60075e-05
0.000186256
7.60129e-06
0.000113821
0.0001658
0.000256232
0.000176762
0.000184467
0.000150484
0.00017298
0.000123327
0.000229112
0.000155002
8.65876e-05
8.87383e-05
0.000129031
2.26225e-05
0.000170402
6.68933e-05
0.000152476
0.000110995
6.55099e-05
3.7154e-05
0.000115501
1.96496e-05
1.04645e-05
7.57211e-06
2.91008e-05
0
0
0
0
0
0
0.000140655
4.2237e-05
0.000226606
0.000140355
5.58041e-05
0.000223111
0.000303233
3.45526e-05
0.00010641
0.00024763
5.56037e-05
5.01846e-05
0.00018295
3.71933e-05
1.09535e-05
9.91641e-06
3.95387e-05
3.28361e-05
1.93174e-05
1.11986e-05
4.75553e-05
1.87171e-05
2.79989e-05
6.14444e-05
2.55632e-05
9.92117e-06
1.04237e-05
3.16931e-05
2.83603e-05
3.47469e-05
6.43441e-05
1.23633e-05
3.80968e-06
1.36145e-05
2.09441e-05
2.10059e-05
1.63952e-05
3.82254e-05
5.92612e-06
2.57177e-05
1.31204e-05
1.33622e-05
5.68691e-06
1.13117e-05
2.70833e-05
2.89508e-05
1.28667e-05
2.78006e-05
3.14274e-05
1.94203e-05
2.38537e-05
1.71297e-05
2.09774e-05
5.90534e-07
1.00843e-05
1.30593e-05
4.92176e-05
0.000230818
0.000121371
0.000201063
9.93415e-05
0.000178841
7.30552e-05
1.99444e-05
0.000116669
0.000141519
0.000158855
8.54724e-05
0.000234716
0.00010767
0.000137631
0.000129519
4.8275e-05
3.234e-05
0.000104265
7.17619e-06
5.85773e-05
2.88461e-05
2.76412e-05
3.08744e-05
3.45198e-05
6.23254e-05
3.63643e-05
4.07303e-05
5.43889e-05
4.5747e-05
5.54256e-05
5.76053e-05
3.07797e-05
1.75454e-05
7.86273e-05
4.32832e-05
3.9649e-05
9.50836e-06
7.20081e-06
7.54085e-05
1.03164e-05
4.23312e-05
2.68494e-05
6.34603e-05
1.93153e-05
7.61651e-05
7.55338e-05
5.9566e-05
9.64429e-05
0.000260562
0.000106525
9.71891e-05
0.000132514
0.000163551
6.33986e-05
9.37587e-05
4.30237e-05
4.79747e-05
0.000159453
8.80932e-05
8.94442e-05
0.000101341
8.17956e-05
1.3196e-05
8.20408e-05
3.39263e-05
4.96375e-05
0
0
0
0.000104153
0
0
0
0
0
0
0.000160204
0.000207298
0.000199114
0.000171931
0.000138329
0.0002016
0.000269859
0.000153776
0.000192528
0.000270512
8.87205e-05
0.000139387
0.000127964
5.19952e-05
4.27233e-05
0.000118154
6.10197e-05
9.2626e-05
4.10818e-06
4.94239e-05
3.14924e-05
3.31745e-05
0
0
0
0
0
0
0
0
0.00023827
0.000124421
0.000205627
0.000179818
7.80746e-05
0.000257267
0.000121592
0.00023691
0.000204596
0.000230751
0.000161235
7.32462e-05
1.80849e-05
9.22729e-06
3.90191e-05
2.57886e-05
2.42778e-05
5.12424e-05
3.45688e-07
1.88272e-05
1.46907e-05
1.75845e-05
6.42653e-06
4.41013e-06
0
4.68914e-06
3.77554e-05
5.84812e-05
9.2003e-05
0.000128604
6.45375e-05
2.74982e-05
1.94069e-06
1.035e-06
3.14709e-05
6.14955e-05
1.34097e-05
5.95222e-06
2.96658e-05
2.81197e-05
1.51359e-05
0
0
0
0
0
0
3.18658e-05
6.94612e-05
1.38142e-05
8.32673e-05
6.79703e-05
0.000143426
0.000189112
0.00020779
5.37489e-05
0.000223768
0.000192464
0.000149178
8.85196e-05
0.000226978
0.000235239
8.92332e-05
8.73158e-05
4.72427e-05
0.000114897
7.18007e-06
4.82639e-06
4.25616e-05
3.10032e-05
1.40224e-05
4.50323e-05
2.09063e-05
1.30061e-05
4.95472e-05
4.41869e-05
2.62425e-05
1.01164e-05
1.52608e-05
1.16665e-05
2.93582e-05
3.0636e-05
2.57866e-05
3.22077e-05
3.32444e-05
7.08017e-05
1.07431e-05
5.3223e-05
2.05056e-05
4.79451e-06
4.01446e-05
5.74712e-05
5.51673e-05
0.000129046
0.000121297
9.88866e-05
1.20474e-05
8.30942e-05
6.63802e-05
7.80101e-05
6.89113e-05
3.87696e-05
8.3998e-05
2.50956e-05
4.43467e-05
2.56294e-05
4.76404e-05
5.77302e-05
9.8494e-05
6.55037e-05
8.80939e-05
5.62973e-05
0.00013074
9.40554e-05
0.0001162
0.000143041
7.03577e-05
4.09547e-05
8.05873e-05
4.25064e-05
1.83112e-05
5.11929e-05
6.70187e-05
0.000110088
7.7363e-05
3.51513e-05
8.02363e-05
5.49504e-05
1.69122e-05
8.55641e-05
0
0
0
0
0
0
0
0
0
0
0
0
0
0
0
0
0.00011607
0.0001656
0.000107016
0.000115569
0.000162401
0.000152647
0.00015112
0.000256222
0.000166984
2.24257e-05
0.000122233
6.18282e-05
2.47853e-05
9.90078e-05
4.50783e-05
6.14186e-05
2.86888e-05
4.8071e-05
4.07814e-05
4.2206e-05
3.11936e-05
7.45922e-06
0
7.10795e-10
2.53527e-10
0
0
0
0
2.64881e-10
7.52469e-10
7.27229e-10
0
0
0
0
0
0
0
0
0
0
0
0
0
0
3.49676e-05
0
0.000289727
0.000234607
0.000190961
0.000175791
0.000251376
0.000165555
0.000210918
0.000172291
0.000285141
9.55297e-05
0.000120707
7.5211e-05
3.77298e-05
2.66684e-05
2.84028e-05
3.63906e-05
4.45063e-05
1.98775e-05
1.60523e-05
7.17582e-06
1.75853e-05
3.11629e-05
1.06693e-05
3.34928e-06
0
0
1.18356e-05
1.48762e-05
0
6.36116e-06
1.41348e-05
3.03364e-06
0
0
0
0
0
0
0
0
0
0
0
2.96259e-05
9.16147e-05
5.79371e-05
1.3909e-05
2.73974e-05
3.19242e-05
7.03045e-05
3.13904e-05
3.84463e-05
8.75224e-05
8.40214e-05
3.07755e-05
4.85522e-05
1.33729e-05
3.13848e-05
0.000114372
0.000121813
5.29234e-05
0.000156838
0.000206917
4.67838e-05
0.000278126
0.000212791
0.000220158
0.000167251
0.000339165
7.19056e-05
0.000100458
3.38569e-05
8.49677e-05
2.09055e-05
1.84067e-05
1.2091e-05
0
0
1.67253e-05
4.93562e-06
4.31179e-05
4.99626e-05
1.93831e-05
2.75732e-05
2.54118e-05
2.97109e-05
2.77817e-05
1.86208e-05
3.11754e-05
4.62851e-05
4.02191e-05
4.41209e-05
5.65469e-05
3.16746e-06
4.79852e-05
9.35494e-06
6.81525e-05
8.64281e-05
3.63687e-05
7.72003e-05
2.96967e-05
6.15068e-05
7.01232e-05
8.85262e-05
4.31458e-05
6.27947e-05
7.50604e-05
7.76027e-05
0.000119518
9.80873e-05
0.000128128
0.000141696
8.15219e-05
0.000109147
0.00012279
3.57688e-05
0.000209019
7.03614e-05
1.4217e-05
3.06033e-05
2.26262e-05
4.4953e-05
8.61837e-05
7.25318e-05
4.13613e-05
7.12376e-05
9.87619e-05
8.64385e-05
0.000116751
0
0
8.59366e-05
4.35788e-05
0.000171136
4.60278e-05
6.83993e-05
6.0592e-05
5.57513e-05
1.75783e-05
0
0
0
0
0
0
0
0
0
0
0
0
0
0
0
0
0
0
0
0
0
0
0
0
0
0
2.24399e-09
0
3.73261e-10
0
9.42817e-10
2.43072e-09
0
0
0
0
0
0
0
0
0
0
0
0
0
0
9.70538e-05
5.82426e-05
6.67495e-05
7.42722e-05
0.000106665
0.000109982
0.000134625
7.46736e-05
4.37683e-05
3.23023e-05
5.11031e-05
4.24424e-05
1.6862e-05
4.10589e-05
1.9872e-05
1.79544e-05
3.29254e-05
1.54401e-05
1.13609e-05
5.02369e-05
3.88529e-05
1.83019e-05
0
0
0
0
0
0
0
0
4.99854e-09
0
0
0
0
0
0
0
0
0
0
0
0
0
0
0
0
0
0
0
0
0
0
0
0
0
0.000162426
3.79664e-05
3.34183e-05
0.000248373
0.000150232
8.52405e-05
0.000221027
0.00013867
8.05964e-06
0.000276075
0.000288864
8.94179e-05
0.000137615
0.000124644
8.39161e-10
0
0
0
0
0
0
0
0
0
0
0
0
0
0
0
0
2.31386e-05
3.07929e-05
2.71265e-05
2.31857e-05
6.93754e-07
2.1409e-05
1.07184e-05
1.02126e-05
0
0
0
0
0
0
0
0
0
1.0119e-05
0
5.51349e-07
0
0
0
0
0
0
0
0
0
0
0
0
9.44433e-05
0.000149315
0.000121305
0.000186547
6.42254e-05
0.000156767
0.000215355
0.000155589
0.000168031
0.000174837
5.51861e-05
5.01252e-05
6.26035e-05
8.41762e-05
9.4155e-05
5.87767e-05
7.94347e-05
5.35508e-05
0
2.32065e-05
0.000180571
0
6.43176e-05
0.000248925
4.28514e-05
0.00020976
0.000200282
0.000108162
0.000223791
0.000244433
0.000290232
0.000161097
0
8.15163e-05
2.53005e-05
7.75574e-06
0
0
0
0
0
2.09226e-05
1.27038e-05
6.28102e-06
1.2263e-05
2.98653e-05
1.44003e-05
6.41355e-06
4.33574e-05
4.81169e-05
6.10822e-05
6.66536e-05
5.5289e-05
1.12041e-05
4.7351e-05
2.67441e-05
1.08526e-05
1.5692e-05
2.27283e-05
2.65381e-05
7.65204e-05
4.31502e-05
5.35513e-05
0.000108155
4.18192e-05
8.28395e-05
4.3159e-05
0.000115122
0.000112566
0.000102754
0.000102964
0.000113597
9.37126e-05
7.83489e-05
5.54204e-05
0.000113068
9.56875e-05
0.00018673
0.000129424
0.000130609
0.000143618
0.00013715
0.000220963
0.000198928
0.000178929
0.000211203
0.000247703
0.000228141
0.00020908
0.000169753
0.000203057
0.000208738
0.000235608
0.00022665
0.000232932
0.000269504
0.000242225
0.000238587
0.000245564
0.0002441
0.000277487
0.000310591
0.000248507
0.000338287
0.000248106
0.000360404
0.000274318
0.00032974
0.000278195
0.000330738
0.00030929
0.000344644
0.00033021
0.00037703
0.000352378
0.000344384
0.000350843
0.000396264
0.000421082
0.000384684
0.000363404
3.00176e-05
7.12513e-05
5.99473e-05
6.93766e-05
3.40821e-05
1.99964e-05
9.65628e-05
1.02875e-05
1.34875e-05
0
0
0
0
0
0
0
7.3151e-05
0
0
0
0
0
0
0
0
0
0
0
0
0
0
0
0
0
3.93876e-09
0
0
0
0
0
0
0
0
2.96832e-09
0
0
0
0
0
0
0
0
0
0
0
0
0
0
0
0
0
0
0
0
0
0
0
0
1.19699e-09
4.0165e-09
0
1.27298e-09
0
0
0
0
0
0
0
0
0
0
0
0
0
0
0
0
0
0
0
0
0
0
0
3.61315e-05
6.24249e-05
7.74228e-05
9.82599e-05
7.47336e-05
8.72236e-05
8.13247e-05
7.21817e-05
5.59011e-05
4.953e-05
2.14706e-05
3.02199e-05
2.24409e-05
4.70739e-05
2.75663e-05
1.1319e-05
2.61312e-05
2.80229e-05
3.40688e-05
3.42249e-05
4.21246e-05
2.37535e-05
0
0
5.72952e-09
8.17316e-10
0
0
0
0
5.92787e-10
0
0
0
0
0
0
0
0
0
0
0
0
0
3.74805e-09
3.10582e-09
0
0
0
0
1.97e-05
0
4.29421e-05
0.000215484
0.000116721
0.000144272
0.000222279
8.65458e-05
5.15138e-05
0.000318858
0.000167472
0.000278299
0.000212849
0.000189693
0.000108261
0.000143683
4.73444e-09
0
0
0
0
3.50123e-11
0
0
1.32325e-11
0
0
0
0
0
0
0
0
0
0
0
0
0
0
0
4.31141e-07
9.98219e-07
8.64818e-06
4.08518e-05
1.70284e-05
5.59675e-06
0
7.85771e-07
0
0
0
1.82617e-09
0
0
0
0
0
0
0
0
2.19858e-08
2.52725e-08
0
0
0
0
0
0
0
0
0
0
3.98104e-10
0
0.000202112
0.000218955
0.000139325
3.48747e-05
8.33031e-05
0.000145884
0.000136412
0.000155816
0.00031695
0.000202916
0.000176294
0.000261957
0.000269461
0.000263045
0.000272509
0.00026954
0.000270995
0.000366395
0.000338916
0.000369081
0.000405622
0.000379703
0.000415462
0.00042243
0.000366041
0.000421
0.000422139
0.000393865
0.000433973
0.000452848
7.48821e-05
6.18758e-05
5.81173e-05
9.77016e-05
9.95278e-06
2.95419e-05
5.1582e-05
1.28971e-05
0
1.86222e-05
0
1.59507e-05
0
0.000165413
0.000151665
0.000224388
0.00025372
0.000237874
0.000187997
6.89499e-07
0
0
0
0
0
0
0
0
0
0
0
0
1.76856e-06
0
1.47157e-05
1.36782e-05
3.26824e-05
5.57122e-05
4.23814e-05
5.97375e-05
4.32936e-05
3.52076e-05
3.70071e-05
5.71293e-05
4.27508e-05
0.000114765
6.03964e-05
4.44432e-05
8.7145e-05
8.91887e-05
0.000139378
0.000110242
0.000106043
0.000135777
8.35838e-05
0.000137062
9.40845e-05
7.68243e-05
0.000112133
4.892e-05
1.70046e-05
0.000118959
9.83812e-05
5.45023e-05
5.36361e-05
0.000210337
0.000137165
0.000164642
0.000161618
0.000111382
0.000216695
0.000189521
0.000209989
0.000195763
0.000178053
0.00023928
0.000255246
0.000249508
0.00028303
0.000268505
0.00027911
0.000300037
0.000271391
0.000303374
0.000296581
0.000309263
0.000319193
0.000346565
0.00033207
0.000317644
0.000360732
0.000368163
0.000422277
0.000398448
0.000369118
0.000367597
0.000428954
0.000414078
0.000467931
0.000485332
0.000404703
0.000433072
0.000424115
0
1.18257e-06
5.26123e-06
6.4806e-05
0
2.95189e-05
6.88586e-05
2.62556e-05
8.66151e-05
0
0
0
0
8.9433e-07
0
0
0
0
0
5.07063e-09
3.82351e-09
0
0
0
0
0
0
0
0
1.44008e-08
2.34044e-08
0
0
0
4.74488e-09
0
0
0
0
0
0
0
3.24024e-09
0
0
0
0
0
0
0
0
2.60891e-11
0
0
0
0
0
0
0
0
0
0
0
0
0
0
0
0
0
0
0
0
0
0
0
0
0
0
0
0
0
0
0
0
0
8.93294e-05
2.94355e-05
7.17849e-05
0.000111897
7.47474e-05
6.9101e-05
3.82833e-05
9.61574e-06
3.85698e-05
7.82238e-05
4.55981e-05
1.59724e-05
1.72416e-05
9.36766e-06
2.6738e-05
2.33075e-05
7.83294e-07
2.20388e-05
2.77604e-05
3.34556e-05
4.1528e-05
1.9251e-05
7.42336e-09
0
4.23029e-09
0
0
0
0
0
0
0
0
0
0
0
0
0
0
0
0
0
0
0
0
0
0
0
0
0
5.49347e-05
0
8.6752e-05
0.000113454
6.99388e-05
0.000118543
0.000104369
0.000166572
0.00031024
9.27432e-05
0.000145168
0.000171708
6.26523e-05
5.97763e-05
0.000155457
0.000164732
0
0
0
0
0
0
0
0
0
0
0
0
0
0
0
0
0
0
0
0
0
0
3.11327e-07
0
0
0
0
0
0
0
0
1.62392e-05
1.36567e-05
1.85415e-06
0
0
0
0
0
1.65531e-05
6.94107e-06
2.37192e-06
0
0
0
0
4.28842e-10
6.87279e-10
0
0
0
0
0
0
0
0
0
0
0
0
0
0
0
0
0
0
0.000199847
0.000223959
0.000183571
0.000190018
0.000300696
0.000231774
0.000294649
0.000324974
0.000277736
0.00029442
0.000346678
0.00036064
0.000323296
0.000331745
0.00036398
0.000443644
0.000423649
0.000433249
0.000285826
0.000406158
0.000384335
0.000348308
0.000260342
0.000345637
0.000358487
0.000301557
0.00034301
0.000229006
0.000227589
0.000369824
0.000422909
0.000394797
0.000364632
0.000425672
0.000401587
0.000168971
0.000208583
0.000154825
8.10307e-05
0.000137252
0.000104494
5.38357e-05
5.05644e-05
0.000297489
0.00026385
0.000238331
0.000186366
0.000270696
0.000312581
0.000338009
0.000322105
0.000412421
0.000357551
0.000434594
0.000417738
0.000431077
0.000416775
0.000450054
0.000415435
0.000420024
0.000454891
0.000476184
0.000429962
8.46257e-05
2.99675e-05
8.30575e-05
3.41516e-05
4.58995e-05
0.000125139
8.82857e-05
1.29134e-05
4.64543e-05
0
0
0.000383003
0.000419373
0.000324785
0.000246783
0.000322234
0.000248831
0.000234786
0.000259601
0.000172469
0.000239271
0.000299925
0.000288284
0.00040627
0.00034772
0.00037212
0.000356812
0.00027159
0.00033252
0
0
1.16936e-09
9.66129e-05
4.97151e-06
0.000413278
0.000148312
1.14616e-06
8.11935e-10
0
2.17251e-09
3.27959e-09
0
0
0
0
0
0
0
0
0
0
2.20209e-09
0
1.42187e-05
0
4.09105e-05
2.63209e-05
5.99416e-05
4.24414e-05
1.94916e-05
5.60367e-05
6.37631e-05
0.000110451
1.88619e-05
4.72283e-05
3.39766e-05
9.12942e-05
0.000117997
0.000157734
0.000122669
0.000101466
0.000128297
0.000131232
7.4707e-05
0.000127844
0.000142616
0.000139191
0.000109145
9.43178e-05
6.19769e-05
0.000150476
0.000128401
9.61956e-05
0.000150559
0.000196451
0.000250499
8.54243e-05
0.000207581
0.000187491
0.000281053
0.000225845
0.00022427
0.000302118
0.000304049
0.000248008
0.000314519
0.000260254
0.000307545
0.000293225
0.000308664
0.000308136
0.000297941
0.000320907
0.000315673
0.000277726
0.000331268
0.000276489
0.000321676
0.00033555
0.000357024
0.000348672
0.000381375
0.000405909
0.00043388
0
0
1.72634e-06
0
0
0
0
0
0
0
0
0
0
0
3.37185e-09
0
0
0
0
7.87438e-09
0
0
0
0
0
0
0
0
8.19458e-10
9.2731e-10
1.58239e-08
0
2.7449e-10
0
0
0
0
0
0
0
0
0
3.03557e-09
0
0
0
0
0
0
0
0
2.5403e-07
0
0
0
0
0
0
0
0
0
0
0
0
3.20662e-10
0
0
0
0
1.60291e-09
0
0
0
0
0
0
0
0
0
0
0
0
0
0
0
0
0
0
0
2.38919e-09
0
0
0
0
2.723e-09
0.000368955
0.00052179
0.000396692
0.000199014
0.000315211
0.000353265
3.68033e-05
0.000107097
6.7503e-05
6.98243e-05
2.28373e-05
4.84249e-05
7.47372e-05
1.89281e-05
2.3166e-05
3.79945e-05
1.82937e-05
1.31228e-05
2.57211e-05
2.48495e-05
1.74548e-05
2.21858e-05
1.28415e-05
3.96012e-05
1.71868e-05
0
0
0
0
0
0
0
0
0
0
0
0
0
0
0
0
0
0
0
0
0
0
0
0
0
0
0
9.25376e-05
4.23625e-05
3.75211e-05
2.49333e-05
3.95957e-05
3.5829e-05
9.95432e-05
6.48589e-05
7.29645e-05
9.17561e-05
4.30836e-05
0.000132507
0.000175216
8.90255e-05
7.89418e-05
7.32809e-05
0
2.82437e-10
0
0
0
0
0
0
0
0
0
0
0
0
0
0
0
0
0
0
0
0
0
0
0
0
0
0
0
0
0
0
0
0
0
0
0
1.47984e-05
1.20764e-05
3.01364e-06
1.34798e-06
1.2233e-06
0
0
0
0
0
0
4.0903e-06
0
0
0
0
0
0
0
0
0
0
0
0
0
0
0
0
0
0
0
0
0
0
0
0
0
0.000218151
0.000166606
0.000174922
0.000188866
0.000411375
0.000191135
0.00024521
0.00036694
0.000435013
0.000458101
0.000459988
0.000452675
0.000413615
0.000411889
0.000286304
0.000276605
0.000422214
0.000408456
0.000396475
0.000360596
0.000395955
0.000434054
0.000206159
0.000262752
0.000156025
0.000148223
9.76479e-05
8.31334e-05
0.000117384
5.79793e-05
0.000321871
0.000291953
0.000297189
0.000295726
0.000282308
0.000364288
0.000364497
0.000285999
0.000393306
0.000415418
0.000393987
0.000445726
0.000449224
0.000454915
0.000426147
0.000414093
0.000427142
0.000453285
0.000392578
0.000467672
0.000428376
0.000457936
0.00041639
2.48351e-05
3.32753e-05
6.34895e-05
0.00012462
4.55438e-05
5.61159e-05
4.41539e-05
0.00019916
1.8278e-05
2.86756e-05
0
1.50727e-05
0.000253351
0.000300093
0.000326585
0.000197948
0.000276004
0.000216857
0.000213238
0.000214844
0.00023302
0.000323211
0.000236709
0.000307489
0.000385035
0.000346328
0.000275782
0.00027462
0.000328866
0.000205688
0.000263776
0.000194259
0.00016704
0.000281218
0.000135422
0.00035481
0.000109529
1.77112e-09
4.30124e-09
2.40826e-09
0
0
1.65151e-06
0
0
0
0
0
0
0
0
0
0
0
0
0
0
2.96648e-09
0
0
0
3.21265e-05
6.36731e-05
3.16197e-05
7.62365e-05
2.56855e-05
2.41958e-05
0.000116302
3.28914e-05
6.04368e-05
4.63594e-05
2.19054e-05
7.64806e-05
0.00010042
4.85468e-05
0.000182606
0.000109876
0.000161148
0.000167617
0.000184657
0.000149636
0.000188765
0.000110239
0.000161988
0.000178115
0.000152627
0.00012251
0.000191443
0.000179162
0.000209418
0.00018493
0.000281041
0.000159808
0.000283722
0.000210129
0.000279658
0.000357856
0.000252989
0.000366636
0.000234676
0.00035156
0.000255675
0.000305694
0.000340943
0.000341626
0.000333511
0.000323137
0.0003165
0.000264578
0.000316025
0.000198604
0.000274794
0.000238982
0.000284582
0.000335801
0.000287451
0.00032869
0.000292867
0.000340097
0
0
0
0
0
0
0
0
0
0
0
0
0
0
0
0
0
0
0
0
0
0
0
0
0
8.47601e-10
0
0
2.13607e-09
5.60421e-10
0
0
0
0
0
0
0
0
0
0
0
0
2.97187e-07
0
0
0
0
0
1.9175e-09
0
0
1.08879e-06
0
0
0
1.35002e-09
1.30877e-09
0
0
0
0
0
0
0
1.30895e-10
3.81012e-10
0
0
1.13885e-09
8.17328e-10
0
0
0
0
3.21739e-09
0
4.39805e-09
0
0
0
0
0
0
0
0
0
0
0
0
0
0
0
0
0
1.47283e-09
0
0
0
0
0
0
0
0
0.000290552
0.000345976
0.000198808
0.000255272
0.000332954
0.000133221
7.03249e-05
0.000279487
0.000126371
0.000350969
0.000108844
3.89087e-05
7.23117e-05
8.47015e-05
2.86558e-05
4.57422e-05
1.12367e-05
8.12663e-06
3.45141e-05
2.18528e-05
1.30615e-05
6.41123e-05
3.11507e-05
2.56046e-05
6.49922e-06
1.19854e-05
2.02633e-05
0
0
0
0
0
0
0
4.25971e-10
2.45816e-05
0
0
0
0
0
0
0
0
0
0
2.08525e-11
0
0
0
0
0
9.31375e-05
5.12273e-05
3.66273e-05
2.44337e-05
1.9314e-05
9.23148e-05
3.87523e-05
6.46272e-05
8.6245e-05
4.55249e-05
8.16641e-05
0.000125873
5.24509e-05
3.49677e-05
3.07909e-05
6.94964e-05
0
0
2.66096e-10
0
0
0
0
4.64153e-11
0
0
0
0
0
0
0
2.35353e-09
0
9.91013e-10
1.72624e-09
0
0
0
0
0
0
0
0
0
0
0
2.73661e-09
0
0
0
0
0
0
0
0
0
0
0
0
0
8.91099e-10
2.60481e-05
1.20607e-05
1.16721e-05
0
0
0
0
0
0
2.51069e-10
0
0
9.38144e-10
0
0
0
0
0
0
0
6.99282e-10
0
0
0
0
0
0
0
8.27412e-10
0
9.95138e-10
0
0
0
0
0
0
0
1.09703e-09
0.00015754
0.000249676
0.000152271
0.000383062
0.00036855
0.00043647
0.00057669
0.000376887
0.000599198
0.000222097
0.000312978
0.000266715
0.000138317
0.000261652
0.0004215
0.000457867
0.000426191
0.000473618
0.000414602
0.000439047
0.000370605
0.000353981
0.000412594
0.000429115
0.000366662
0.000396563
0.000372074
0.000346099
0.000185323
0.000300499
0.000105189
0.000133855
3.93507e-05
0.000119337
0.000112191
8.83795e-05
0.000248177
0.000341883
0.000225537
0.000384953
0.000371779
0.000425987
0.000420058
0.000308067
0.000433733
0.000429055
0.000466216
0.00043135
0.000375906
0.000468593
0.000421022
0.000351837
0.000295107
0.00045929
0.000425297
0.000411339
0.000451404
0.000361959
5.31114e-06
3.06587e-05
9.4752e-05
3.78205e-05
6.73483e-05
2.39149e-05
0.000177647
9.13955e-05
3.63834e-05
6.90544e-05
1.67981e-05
0
0.000198141
0.000234998
0.000173858
0.000149771
0.000214652
0.000172512
0.000181092
0.000149686
0.00025864
0.000315781
0.000226748
0.0002729
0.000351236
0.000305515
0.000403241
0.000326993
0.000288961
0.000180461
0.000235636
0.000260429
0.000245347
0.000327007
0.000226182
0.000253583
0.000284678
0
0
0
0
0
0
0
0
0
0
0
0
0
0
0
0
2.98124e-09
0
0
0
0
0
0
0
1.19602e-05
6.48889e-05
2.38451e-05
0
5.23378e-05
8.45769e-05
8.41167e-05
3.25384e-05
2.46009e-05
3.57568e-05
8.16359e-05
8.6401e-05
0.000147799
0.000120626
0.000207051
0.000142774
0.000182002
0.00018079
0.000213457
0.000160158
0.000191201
0.000235804
0.000264342
0.000208045
0.000266905
0.00017718
0.000248345
0.000248156
0.00026032
0.000305773
0.00022553
0.000295695
0.000342499
0.000306094
0.000386721
0.000279276
0.000382354
0.000313262
0.000383758
0.000337813
0.000367124
0.000377248
0.000327111
0.000370792
0.000294311
0.000236398
0.000130487
0.000233364
0.000132014
0.000177563
0.000151198
0.00020464
0.000253692
0.000175198
0.000157212
0
0
7.01399e-07
4.18577e-11
0
0
0
0
0
0
0
1.5643e-09
1.64957e-09
4.19556e-09
7.13718e-09
5.00542e-09
9.74812e-10
0
3.26412e-09
3.82282e-06
0
0
0
9.96271e-10
0
3.77985e-09
3.47334e-09
0
0
0
0
0
0
0
0
5.46058e-12
0
0
0
0
0
0
2.23702e-07
0
0
0
0
0
0
0
0
0
0
0
0
0
0
0
0
0
0
0
0
0
0
0
0
0
0
0
0
0
0
0
0
0
0
0
0
0
0
0
0
0
0
0
0
0
0
0
0
0
0
0
0
0
0
0
0
0
0
0
0
0
0
0
0
0
0
0
0
0
3.18027e-11
0
0
0
0
0.000120669
0.000153518
0.000151785
6.6902e-05
0.000112706
0.000225051
0.00019724
0.000233237
0.000223277
0.000116091
0.000313121
0.000233929
0.00026934
0.000316737
0.000120396
6.3029e-05
0.000103326
2.99135e-05
4.32961e-05
4.67095e-05
4.55691e-05
4.1819e-05
2.79868e-05
5.97317e-05
1.3945e-05
2.98901e-05
1.63473e-05
5.94542e-06
1.03423e-05
0
0
0
0
0
7.4454e-05
0
0
0
0
0
0
0
0
0
0
0
1.04183e-09
2.26074e-09
0
6.89824e-10
0
0
0
4.17597e-05
2.53539e-05
9.60886e-05
3.58963e-05
9.45101e-05
6.82146e-05
8.44397e-05
4.63242e-05
7.84236e-05
7.68518e-05
5.21602e-05
4.73249e-05
7.80533e-05
2.92783e-05
9.04102e-05
9.21069e-06
0
8.70132e-10
0
0
0
0
0
3.15509e-11
0
0
3.54513e-11
0
0
0
2.5431e-10
0
0
0
0
0
0
0
0
0
0
0
0
0
0
0
0
0
0
0
0
0
1.24648e-09
0
2.87946e-09
0
0
0
0
0
0
0
0
0
0
0
0
0
0
0
0
0
0
1.04198e-05
0
0
0
0
0
0
0
0
0
0
0
0
0
0
0
0
0
0
0
0
0
0
0
0
0
0
0
0
0
0
0
0
8.49334e-09
1.20626e-08
0
0
0
0
0
0
0.000232912
0.000157318
0.000348805
0.00058285
0.000804868
0.000537439
0.000337396
0.000544848
0.000262121
0.000660167
0.000426387
0.000111322
0.000204902
0.000396733
0.000379867
0.000458911
0.000406343
0.000450731
0.00041779
0.000298788
0.000402055
0.000389262
0.000375784
0.000347708
0.000391308
0.000319706
0.000396011
5.35128e-05
0.00023489
9.2964e-05
0.000169092
0.000138108
0.000133972
0.000152372
4.62029e-05
0.000395105
0.000337784
0.000389609
0.000180417
0.000370376
0.000421691
0.000382739
0.000360491
0.000350372
0.00040644
0.00037596
0.000349911
0.000314608
0.000322064
0.000234864
0.00044344
0.000347299
0.000293347
0.000358636
0.000339318
0.000339335
0.000174719
5.64387e-05
9.42538e-05
3.14476e-05
9.0505e-05
8.63971e-05
3.47961e-05
3.9997e-05
0.000132061
5.9437e-05
1.01508e-05
1.18865e-05
3.04057e-07
0
0
0
0.000193241
9.6099e-05
8.92835e-05
8.11517e-05
0.000114184
0.000233458
0.00017225
0.000182628
0.000298629
0.000227668
0.000247248
0.000375405
0.000393306
0.000304065
0.00032324
0.000290147
0.00028095
0.000256981
0.00024869
0.000190327
0.000233324
0.000103823
0.000266144
0.000330878
0.000292319
0.000183162
0
0
0
0
0
2.18061e-09
2.4819e-09
0
0
0
0
3.77988e-09
1.32952e-09
0
0
0
0
0
0
0
0
0
0
0
0
3.33503e-06
2.9081e-05
0
7.58921e-05
0.000100014
1.75437e-05
0.000102799
0.000120086
4.31945e-05
0.000146457
0.000119108
0.000184051
0.000189175
0.000210821
0.000281904
0.000234166
0.000294524
0.000203388
0.000199915
0.000222177
0.000313202
0.000317838
0.000243668
0.00031412
0.000313606
0.000304324
0.000314439
0.000380934
0.000356486
0.000393974
0.000312517
0.000386223
0.000394766
0.000391274
0.000425291
0.000427445
0.00046729
0.000430068
0.000474991
0.000416736
0.000383061
0.000303904
0.000244054
4.28663e-05
0.000173987
4.84992e-05
0.00016517
0.000103494
0.000138734
0.000103023
0.000133322
0.000149625
9.41932e-05
0
0
0
0
0
0
0
0
0
4.52693e-09
0
0
0
9.48739e-09
5.60505e-09
4.03813e-09
2.07683e-09
1.73305e-09
4.30622e-09
0
0
0
0
0
0
0
0
0
0
0
0
0
0
0
0
3.85476e-11
0
0
0
3.94883e-08
0
0
0
0
0
0
0
0
0
0
0
0
0
0
0
0
0
0
5.66033e-08
0
0
0
0
0
7.94557e-10
5.98595e-10
1.42438e-09
0
0
0
0
0
0
0
0
0
0
0
0
0
0
0
0
0
0
0
0
0
0
0
0
0
0
0
0
0
0
0
0
0
0
0
0
0
0
0
0
0
2.66468e-09
0
7.31499e-10
0
0
5.91657e-10
0
0
6.96399e-05
0.000134169
0.000178313
6.70546e-05
0.00016088
0.000133259
0.000290042
0.000262137
0.000422486
8.28301e-05
0.000450429
0.000555444
0.000454184
0.00022162
0.000234827
0.000303258
7.49699e-05
8.58517e-05
6.0438e-05
8.29075e-05
8.92743e-05
3.22432e-05
3.97137e-05
3.74456e-05
2.17245e-05
1.81887e-05
4.85327e-05
6.6408e-05
2.97133e-05
1.60363e-05
7.27338e-06
9.46431e-06
1.47344e-05
0
0
0
7.0295e-05
0
0
0
5.17189e-09
0
0
0
0
0
0
0
0
0
0
0
0
3.70955e-09
0
0
0
3.4083e-05
6.05442e-05
2.71275e-05
7.47731e-05
3.17581e-05
5.65474e-05
6.96872e-05
8.72518e-05
1.57898e-05
7.61563e-05
4.4033e-05
9.25817e-05
6.69699e-05
0
0
0
0
0
0
2.23314e-09
3.34351e-09
0
0
0
0
0
0
0
0
0
1.08601e-06
0
0
0
0
0
0
0
4.98975e-10
0
0
4.31371e-09
0
0
0
0
0
0
0
0
0
0
0
0
0
0
0
0
0
0
0
0
0
0
2.20748e-09
0
0
0
0
0
0
0
0
0
0
0
0
0
0
0
5.01324e-11
0
0
0
1.67188e-09
0
0
0
0
0
0
0
0
0
0
0
0
0
0
0
0
0
0
0
0
0
0
0
0
0
1.36305e-09
0
0
0
0
0
0
0
0
0.000587819
0.000636164
0.000845042
0.000297127
0.00117469
0.000455377
0.000289208
0.000151257
0.000266199
6.78278e-05
0.000244371
0.000135661
5.39174e-05
5.72001e-05
0.000355946
0.000345741
0.0003915
0.000403457
0.000434042
0.000406643
0.000520777
0.000301321
0.000322463
0.000336034
0.000310602
0.000210914
0.000274174
0.000375016
0.000145079
0.000164526
3.48817e-05
0.000209524
6.25651e-05
0.000171125
0.000129432
0.000253169
0.000255776
0.000391635
0.000194071
0.000297124
0.000325271
0.00030726
0.000199618
0.000288361
0.000229342
0.000223168
0.000158585
0.000337202
4.83934e-05
0.000244099
0.000421425
0.000450277
0.000348565
0.00046174
0.000244114
0.000248272
0.000186762
0.000232181
2.81798e-05
6.76975e-05
0.00010119
6.26939e-05
4.10821e-05
0.000114169
0.000104216
9.81599e-05
3.38454e-05
4.72775e-05
3.68641e-05
1.01528e-05
0
7.2847e-05
0.000125534
0.000102174
2.83814e-05
0.000228759
0.000246505
0.000291323
0.000265701
0.000305645
0.000323797
0.000287055
0.00034445
0.000302973
0.00032763
0.00023556
0.000293251
0.000256734
0.000225654
0.000261778
0.000310861
0.000213607
6.69273e-05
0.00030722
0.000294344
0.000127694
0.000127429
0
0
0
0
0
0
0
0
0
4.16352e-09
0
0
0
0
0
3.57681e-11
3.21584e-11
0
0
0
0
0
0
0
0
1.09665e-05
7.97619e-06
4.74868e-05
0.000120001
9.52201e-05
8.96257e-05
5.73471e-05
0.000181718
0.0002171
0.000217463
0.00016462
0.000255574
0.000216404
0.000362844
0.000279624
0.000355779
0.000385607
0.000238659
0.00026624
0.000311492
0.000331532
0.000387099
0.000304913
0.000376413
0.000425479
0.000353022
0.000457903
0.000383555
0.000476275
0.000392921
0.000564496
0.000548472
0.000458518
0.000620341
0.000495013
0.000587896
0.000513601
0.00046867
0.000506092
0.000306738
0.000330599
5.59753e-05
0.000146952
0.000144399
9.43907e-05
0.000196282
8.83838e-05
0.000175383
0.000152842
8.66266e-05
0.000229529
0.000186911
8.71187e-05
0
0
0
0
0
0
0
0
0
1.17572e-10
0
0
0
0
0
0
0
4.51751e-09
0
0
3.69205e-09
0
0
0
3.69932e-10
0
0
0
0
0
6.60755e-10
0
0
0
0
0
0
0
0
0
0
0
0
0
0
0
1.05029e-09
1.85045e-09
2.58724e-09
0
0
0
0
1.01628e-09
0
0
1.2065e-09
0
0
0
0
2.57227e-09
0
8.49625e-10
0
0
0
0
0
0
0
0
0
0
0
0
0
0
0
0
0
0
0
0
0
0
0
0
0
0
0
0
0
0
0
0
0
0
0
0
0
0
0
0
0
0
0
0
0
0
0
0
0
0
0
0
0
8.13546e-10
0
0
0
3.44223e-09
0
0
9.85743e-05
6.85402e-05
0.000172404
4.63409e-05
0.000219632
0.000230754
0.00015625
0.000220059
0.000169922
9.11853e-05
7.97905e-05
0.000434781
0.000490614
0.000344854
0.000215304
0.000241289
0.000231272
0.000107498
4.51428e-05
0.000269608
6.78211e-05
9.23583e-05
5.74251e-05
0.000123661
5.50123e-05
2.31966e-05
3.11964e-05
1.37813e-05
2.07002e-05
3.12514e-05
6.04584e-05
5.90859e-05
2.88057e-05
5.02097e-05
9.99004e-06
1.06539e-05
1.03792e-05
0
0
1.43543e-05
2.97704e-05
0
0
7.61596e-10
0
0
0
0
1.66277e-07
0
0
0
1.86308e-07
0
0
0
1.3951e-08
0
0
0
0
3.83999e-05
2.13507e-05
2.97318e-05
7.3094e-05
5.39999e-05
6.52507e-05
0.000102786
9.25387e-05
6.19775e-05
0.00010186
2.87288e-05
3.46946e-10
0
0
1.55688e-10
0
0
2.91394e-09
1.45569e-09
0
0
0
0
0
0
0
0
3.17171e-07
6.23878e-07
0
0
2.49753e-07
0
2.07991e-09
0
0
0
0
3.28485e-08
0
1.90838e-09
2.30835e-08
0
0
0
0
0
0
0
0
0
0
0
0
0
0
0
0
0
0
5.44866e-09
0
0
0
0
0
0
0
0
0
0
0
0
0
0
0
0
0
0
0
0
0
0
0
0
0
0
4.40763e-10
1.03837e-09
0
0
0
0
0
0
0
0
9.77359e-10
0
0
0
0
0
0
6.64426e-10
0
0
0
0
0
0
0
0
0
0
0
0
0
0
0
0
0
0
0
0
0
0
0
0
0.000321755
0.000410355
0.00035176
6.73004e-05
0.000238134
0.000122813
8.70277e-05
3.33885e-05
6.71625e-05
0.000127795
0.000115788
6.11635e-05
0.000165112
5.0478e-05
0.00014718
0.000291015
0.000341149
0.000324559
0.000335497
0.000380694
0.000399514
0.000380802
0.000350179
0.000428597
0.000250214
0.000288494
0.000165314
0.00031007
0.000243199
0.000246142
0.000297186
0.00014629
0.000198292
9.01399e-05
0.000181518
0.000278055
0.000281343
0.000258213
0.000168648
0.000272733
0.000330555
0.000144589
0.000162667
0.000154554
1.88149e-05
8.78189e-05
6.59243e-05
0.000186246
0.000283682
0.000165356
0.000556918
0.000341725
0.000172404
0.000129796
0.000264806
0.000112732
7.8565e-05
0.000123039
0.000112381
6.37321e-05
8.37064e-05
0.000148879
0.000109783
8.76565e-05
0.000152553
0.000217746
2.40773e-05
6.30328e-05
8.92748e-05
0.000163654
0.000242
6.64945e-05
0.000176104
0.000110448
0.000276055
0.000223814
0.000310376
0.000319364
0.000351359
0.000302577
0.000314506
0.000311857
0.000279551
0.000290073
0.000275461
0.000211651
9.84531e-05
0.000220475
0.000247698
0.000226312
0.000152628
0.000142547
0.000312036
0.000319403
0.000115551
0.000102812
1.56169e-09
2.31623e-09
3.22433e-09
0
0
0
0
0
0
0
0
0
0
0
0
0
0
0
0
0
0
0
0
0
2.94988e-06
3.58878e-05
4.80179e-05
8.26347e-05
0.000178241
8.86442e-05
6.92584e-05
0.000114652
0.00017624
0.000181837
0.000228835
0.000306057
0.000414117
0.000356639
0.000524503
0.000489611
0.000454066
0.00047806