/*--------------------------------*- C++ -*----------------------------------*\
  =========                 |
  \\      /  F ield         | OpenFOAM: The Open Source CFD Toolbox
   \\    /   O peration     | Website:  https://openfoam.org
    \\  /    A nd           | Version:  8
     \\/     M anipulation  |
\*---------------------------------------------------------------------------*/
FoamFile
{
    version     2.0;
    format      ascii;
    class       surfaceScalarField;
    location    "11940";
    object      phi;
}
// * * * * * * * * * * * * * * * * * * * * * * * * * * * * * * * * * * * * * //

dimensions      [0 3 -1 0 0 0 0];

internalField   nonuniform List<scalar> 
788991
(
-0.0212505
-0.000925199
-0.0341673
-0.0237441
0.0241154
-0.0437764
-0.00658823
-0.00198838
-0.0762542
0.0378039
-0.0126291
0.0429896
0.00061691
-0.0213255
-0.0646027
0.000287041
0.0343637
0.00614693
-0.0352315
-0.000271222
0.0106809
0.000138592
-0.00075314
0.0223264
0.00725961
0.0330757
-0.0149261
0.00149645
-0.0109694
0.031209
0.023404
0.013183
0.0328778
-0.0108874
0.0680096
-0.00608615
-0.00750121
-0.02361
-0.00690425
-0.00446307
-0.0405031
0.02898
0.0238234
-0.0325072
0.0360119
0.0192619
0.0160725
0.0347498
-0.012091
-0.00122653
-0.0554753
0.000112357
-0.0240905
-0.0166675
0.029338
0.0309187
-0.00243175
0.00628409
0.00940239
0.0077784
-0.0214284
0.028739
0.00934577
-0.0207382
-0.0189517
-0.0486588
-0.00352082
0.0297782
0.0266907
-0.0232876
-0.00385149
-0.000220947
0.0999198
-0.0132199
0.0594269
-0.00129619
0.000173988
-0.0309323
-0.00534569
0.0255372
0.0187527
0.00928864
0.0291687
-0.032208
-0.0167951
-0.030397
0.0470407
-0.0297525
-0.0412443
-0.0130939
0.0473838
0.0166364
-0.0166736
-0.0493842
0.0198246
-0.0128194
-0.000418601
0.0110752
-0.0404279
-0.0510562
-0.0636561
-0.039278
-0.0156428
-0.0429805
-0.0812989
-0.0377672
-0.087729
0.016437
-0.0316289
0.0523625
-0.00787616
-0.0448783
-0.01143
-0.00495131
-0.020373
0.0122466
-0.00976743
-0.0252974
-0.0273561
0.030354
0.0124729
-0.0323377
0.0443825
0.00364955
-0.031725
-0.0291111
-0.000869927
-0.00925037
-0.011079
0.0118986
0
0
0
0
0
0
0.0350033
0
0.0639757
-0.0199898
0.0209409
-0.0218955
0.0231387
0.0135379
0.00254338
-0.0372793
0.0566006
-0.00148784
0.0415614
0.0117926
0.00244387
-0.0274862
-0.0101829
-0.0259033
0.0106406
-0.00503926
-0.0346975
-0.00249628
-0.00924935
0.0144701
-0.00384487
0.0176618
-0.0076095
-0.0124883
0.0159559
-0.0056298
0.0160328
-0.017181
-0.0129283
0.0395736
-0.0138993
0.0163026
-0.0166245
-0.0352216
-0.00895185
0.00178574
-0.0295789
-0.0247823
-0.048339
-0.0401
-0.0281412
0.0308259
0.00337306
-0.0120997
0.0206517
-0.0163155
0.0301537
0.000325233
-0.0242543
-0.00991711
0.00122456
-0.0357914
0.000762887
-0.0323151
0.0211398
-0.0292081
0.0187173
-0.0179631
-0.0251802
0.0544029
-0.00945293
-0.0378538
0.0164961
-0.00688904
-0.0114567
-0.0325184
0.0314617
0.0348
-0.068985
0.000247864
-0.0264645
-0.0227742
0.0335922
0.0890014
0.00727692
0.0368622
0.000669744
0.028142
0.000337513
0.0219934
-0.0109297
-0.0195042
0.0409828
0.00356937
-0.0915548
0.00155807
0.0158051
-0.0465406
-0.0799306
-0.0155629
0.00931194
-0.042772
-0.0316049
0.0215999
-0.00799296
0.0516333
-0.0203871
-0.00935064
-0.0259834
-0.0162575
-0.00297638
-0.0113246
-0.000126096
-0.0184404
-0.00255473
-0.0115448
-0.0152074
-0.0280188
-0.00186522
-0.0414659
0.0375361
-0.00914782
-0.0693816
0.0224162
-0.0369883
-0.061407
0.0243204
-0.0452894
-0.0360757
-0.0261841
-0.0198393
0.00895966
0.0241755
0.00343447
0.02972
-0.0282538
0.0206233
-0.0375439
-0.00900697
-0.0323063
0.00419723
-0.0130626
-0.0348043
-0.00983256
0.091296
-0.0491536
-0.00910668
0.0164185
0.0857261
0.122234
-0.0259381
0.0309079
0.0510412
-0.0321078
0.0121925
-0.00869079
-0.0274918
0.0249483
0.0174107
-0.0216531
-0.0195051
-0.0039563
0.0465491
0.0181429
0.0322352
0.0369465
0.0104148
-0.0479371
0.0231706
0.0645944
-0.0069335
0.000932413
0.00893531
0.0183753
-0.0253574
-0.0220348
-0.0122851
-0.0268379
0.0235892
-0.0135176
0
0
0.0422321
0
0.0540876
0
0
0
0
0
0
0
0
-0.0450838
-0.0434635
-0.0139913
-0.0529555
-0.0387124
-0.0257331
-0.0279215
-0.0554847
-0.0223022
0.0224887
-0.051731
0.0426164
0.030748
-0.0521834
-0.0752254
0.0473885
-0.0329981
-0.0397812
-0.00819531
-0.0211492
-0.0284221
-0.0121594
-0.0286446
-0.00487759
-0.00872999
-0.0145979
0.0212554
0.00838928
-0.0280226
0.00242567
0.00304788
-0.00887798
0.012216
0
0
0
0
0
0
0
0
-0.0206944
0
0
0.0223249
0.0833713
0.0286343
0.0457483
0.0434153
0.0402932
0.0384295
0.00155905
-0.0396556
0.0248726
0.00655486
-0.0226806
0.01026
0.0102831
-0.00797047
-0.0156142
-0.0048696
0.0267983
0.00722283
-0.00839453
0.00250426
0.0190177
-0.0110662
0.000936243
-0.00707043
-0.0246025
0.0053695
-0.00400057
-0.018847
0.0148739
0.00303853
0.0024335
-0.0262693
-0.000693181
-0.0171283
0.00614805
0.0163688
-0.0299275
0.00892383
0.0782735
-0.0154948
-0.0642041
0.180206
0.0147188
-0.0214318
0.0368795
-0.0377875
0.0127623
-0.0168315
0.0185022
0.0111829
-0.0276875
0.0131466
-0.0137749
-0.00440385
-0.0275829
0.0264168
-0.0618532
0.0560753
-0.0177051
-0.0527973
0
0.00717005
0
0
0
0
0
0.0387102
-0.0696492
0.00305501
-0.00266982
-0.0441729
0.0335241
0.022634
0.0180553
-0.0210027
0.037566
0.0215693
0.0385735
0.059068
0.0337582
0.00263623
0.0389556
-0.0340153
-0.0857415
0.022508
-0.0408734
-0.040105
-0.068157
0.0155743
0.0342928
-0.00302569
0.0315704
0.0088017
-0.0411411
0.0502801
-0.00439151
-0.0218211
-0.0140047
-0.00683607
0.00337673
0.00808338
-0.0118456
-0.0344495
0.00129001
-0.0243499
-0.043178
0.0286044
-0.0171845
-0.0223864
0.044498
-0.00445293
-0.0295319
-0.00901411
0.0222696
-0.027477
0.00685871
0.0500953
-0.00697361
0.00195412
0.00440968
-0.0325119
-0.00966736
-0.0117946
-0.0531723
-0.0262506
-0.0175381
-0.0138695
-0.0483297
-0.00659617
0.0202118
-0.0147385
0.0215595
0.0255373
0.0435565
-0.0859984
-0.113003
0.0593731
-0.0967912
-0.0241573
-0.0542185
0.0444763
-0.0312886
-0.0517352
-0.0375447
-0.0235209
-0.0828628
0.00994911
-0.0375189
-0.00660573
-0.0288711
0.0163555
-0.00588783
-0.0182088
-0.0012426
0.00916772
-0.0133432
-0.0128574
-0.0225074
0.00441129
0.00951067
0.0126924
-0.0235528
-0.00255955
-0.0089602
-0.0345379
0.0242746
0.0821679
0.0129561
-0.0168686
0.0170336
-0.0127621
-0.0548916
0.0391063
-0.0361109
-0.0546248
-0.000339705
-0.00398842
0.000377206
0.0178575
-0.0249172
0.0179166
-0.00574607
0.00647614
0.0273211
0.00172955
-0.0463148
-0.000554363
0
0
0
-0.0280244
0
0
-0.0272458
0
0
0
0
0
0
0
0
0
0
0
0
0
0
0
0
-0.0448129
-0.0364141
-0.00922854
-0.0228723
-0.0354932
-0.00586448
-0.00778648
-0.0482706
-0.0312178
0.0212254
-0.0380847
-0.0425031
0.0467807
-0.024148
0.0332061
-0.00579721
-0.0204948
-0.0149105
-0.011224
-0.0243808
0.00801435
-0.0223852
-0.00553576
-0.00154369
-0.0130597
-0.0180134
0.000965626
-0.0158642
-0.0129938
-0.0105312
-0.0039522
-0.00728378
0.0164047
5.40561e-06
0
1.95839e-05
0
0
-8.41521e-06
6.86708e-06
-2.70586e-05
1.90474e-05
7.09999e-07
5.56369e-07
0
0
0
0
0
0
0
0
0
0
0
0
0
0
0
0
0
0
0
0.0533406
0
-0.071576
0.0706973
0.200395
-0.0620056
0.0394445
0.022899
-0.0329507
0.0308148
0.0185556
0.0231692
-0.00270276
0.0178734
-0.00347405
0.00510341
0.0279441
0.0190083
-0.0176164
0.00794963
0.0259249
-0.00952195
-0.0170241
0.00257297
-0.0177486
0.00716912
0.0355925
0.0298758
0.0180377
-0.00582712
0.0117639
0.000708777
0.0171951
0.0148731
-0.0086102
0.0211254
0.0122764
0.0257398
0.0146565
-0.00956722
0
0
-0.00938139
-0.0188782
0.0123564
0
-0.0442143
0.00664714
0.0126575
-0.011586
-0.00188073
0
0
0
0
-0.0221861
-0.00196549
0
0
0
0
0
0
0
0
0
0
-0.0131586
0.020006
-0.029394
0.0181248
0.0131411
0.02795
-0.00561128
-0.0274806
-0.00310962
0.0370913
0.0296188
0.00192963
-0.0687443
0.0107861
-0.00838814
0.00292603
-0.0339162
-0.0291286
-0.0560995
0.0387209
0.0103356
-6.63903e-05
0.0282457
0.0529685
0.0251248
0.0243338
0.0306656
0.0454155
-0.00146595
0.0697992
0.050675
-0.012042
0.0656647
-0.0745671
-0.119102
0.0356138
-0.0778488
-0.0318192
-0.0706106
0.0128948
-0.0260739
-0.0392625
-0.0229676
-0.0130928
-0.0485291
0.00851856
-0.0161477
-0.0292443
0
-0.0225806
-0.0322228
0.00195712
-0.0261316
-0.00872142
-0.00540458
-0.0272108
-0.044306
0.000892321
-0.019943
-0.0349912
0.0134492
-0.014786
-0.0177186
0.00247092
-0.00150942
0.00371024
0.00653665
-0.0091151
-0.0204012
0.0250369
-0.00700754
-0.0381086
-0.0228991
0.0195284
-0.0391057
0.0210147
0.0381633
0.0188245
0.0141819
-0.0234339
0.00871784
-0.0787686
-0.000786523
0.0477859
-0.0467676
0.031266
0.0857343
-0.00213842
0.0240696
0.0807304
0.0151575
0.0200525
0.00904776
0.061488
-0.0207211
0.00556844
-0.0363635
-0.0362388
-0.0320012
-0.0573405
-0.0248784
-0.0388849
0.00652211
-0.0399366
-0.0661477
-0.010902
-0.0633556
0.00546568
-0.0269084
-0.0207749
0.0148667
0.0152899
0.00877279
0.00766654
-0.0140933
0.00322606
0.0144163
-0.0418879
-0.00772084
0.030948
0.0361861
-0.0273656
-0.0567534
0.00842139
0.0306184
-0.00841946
-0.0927941
0
0
0.0144296
0.0637332
0.0742548
0.0381921
0.0352754
-0.0236124
-0.0636401
0.0174861
-0.0746872
0.0108846
-0.0212403
0.0189434
0
0
0
0
0
0
0
0
0
0
0
0
0
0
0
0
0
0
0
0
0
0
0
0
0
0
0
0
0
0
0
0
0
-2.65914e-05
0
-1.20931e-05
0
-2.4536e-05
-4.82394e-07
-1.3106e-05
1.3119e-05
1.20778e-05
-4.98787e-05
0
0
1.39186e-05
0
0
0
0
0
0
0
0
0
0
0
0
0
0
0
0
0
-0.027002
-0.0201356
0.00704181
-0.0127265
-0.021228
0.00778487
-0.0299621
-0.0235826
-0.01899
0.011771
-0.0105726
0.0156478
-0.0142499
-0.0115535
0.00395905
-0.0111211
0.00501266
0.0155417
-0.0085186
0.0107535
-0.0129503
-0.00979791
-0.0055669
-0.0024158
-0.00909807
-0.0046891
0.000158626
-0.00316418
-0.004105
-0.0071111
-0.00234292
-0.00486227
-0.00250757
0
1.37421e-05
0
0
0
0
0
0
0
9.42e-06
0
0
0
5.34777e-05
-0.00013946
0
0
0
0
0
0
0
0
0
0
0
0
0
0
0
0
0
0
0
0
0
0
0
0
0
0
0
0
0
0
0
0
0
0
0
0.0843709
0.0614096
-0.0744613
0.0442237
0.0952087
0.00261747
0.02499
0.0405598
-0.00774675
0.0149207
0.0284788
0.00164086
-0.00291945
0.0335597
-0.0186754
-0.0123884
0.0406806
0.0403779
-0.027953
0.0124394
-0.0380449
2.18155e-05
0
0
-5.8397e-05
-2.22426e-06
0
0
2.57637e-05
0
0
0
0
0
0
0
0
0
0
0
0
0
0
0.00690583
0.0269153
-0.00181519
0.0200463
-0.000814635
-0.00464865
0.00477025
-0.00373718
0.0105313
0.0325089
-0.00622353
0.00268855
-0.0128436
-0.0162703
0
0
0
0
0
0
0
-0.012624
0
0
-0.047498
0
0.0450206
-0.0339421
-0.0191273
0.0117991
0
0
0
0
0
0
0
0
0
0
0
0
0
0
0
0
0
0
0.0170214
-0.0818272
-0.0457399
0.0426456
-0.0283311
-0.00874981
0.0472037
-0.0434407
-0.0368405
0.0583924
-0.0643197
0.0574444
-0.0267986
0.00338787
0.00702001
-0.00926423
-0.0237011
0.015529
0.0158887
0.0835453
0.0529777
-0.0481116
0.084581
0.0257868
0.0172878
0
-0.0359703
0.0539236
0.0406216
-0.0343788
-0.146141
0.0326714
0.0654235
0.0505367
0.00444569
0.0313627
0.0683436
-0.0394367
0.0649722
-0.0797804
-0.0208754
0.0581941
0.0825006
-0.0996639
0.0600539
0.156674
-0.0767808
-0.133245
0.0716897
-0.0226752
-0.0198908
-0.02641
0
-0.0214476
0
0
0
0
0
-0.0148107
0.0550513
-0.00312374
0.0587216
-0.00633989
0.00740918
-0.023077
0.00963286
0.00939669
0.0166084
0.0101767
-0.048855
-0.0195375
-0.0181673
-0.0518165
-0.0275139
0.0285406
-0.0180243
-0.0121664
-0.0269883
0.034032
-0.00113703
0.0117376
0.0273291
-0.000930471
-0.00158907
0.0248858
-0.0215024
-0.016026
-0.0259962
0.0226559
-0.0530791
-0.0685124
0.0021196
0.0436002
0.00827504
0.0417593
-0.0630724
-0.0290999
-0.00490795
-0.042199
-0.0285516
-0.0634707
-0.0504865
-0.0617939
-0.0819392
-0.0051246
-0.0591973
-0.0429995
-0.0296445
-0.0564396
-0.0400445
0.00709588
-0.047109
-0.0342776
0.00414134
-0.0562138
-0.0593703
0.0189702
-0.0626151
-0.0370722
-0.0420085
-0.0687886
0.00524402
-0.00711694
0.0542346
-0.0723651
0.075181
-0.054444
-0.00433752
-0.00375255
-0.0474459
0.0180471
-0.0550357
0.000219883
0.0608795
-0.0358607
0.0658416
-0.0322353
0.0120589
0.059514
-0.035767
0.0604862
0.0244101
0.0130301
0.0632627
-0.0448104
0.0686457
0.0217925
0.0175569
-0.065854
0.0275778
0.06954
0.0492195
0.0218357
0.0684719
0.00293682
0.0660345
0.0790289
0.0428284
0.0688421
0.0190433
0.0755774
-0.0994072
0.075095
0.0731852
0.0832484
0.0167564
-0.105354
0.0934324
-0.0772207
-0.0130115
0.0285486
-0.0255461
0.0141969
0.00956065
0.0104741
-0.025269
-0.0614693
0.0144642
0.0459764
-0.041817
0.0124803
-0.0119993
0
-0.0246647
0
-0.0503928
-0.0501752
0
-0.033823
0
0
-0.000363681
0
0.0428236
-0.0335326
-0.024199
0
-0.0332047
0
0
0
0
0
0
0
0
0
0
0
0
0
0
0
0
0
0
0
0
0
2.68641e-05
7.7861e-05
0
0
0
0
0
0
0
0
0
0
0
0
0
-2.4233e-05
-8.97406e-05
0
0
0
0
0
0
0
0
0
0
0
0
-7.02904e-05
0
0
0
0
0
0
0
0
0
0
0
0
0
0
0
0
0
0
-1.67371e-05
-5.18792e-05
0
-0.000143643
-7.44271e-05
0
-4.40875e-05
-7.76266e-05
0
0
0
0
0
0
0
0
0
0
0
0
0
0
0
0
0
0
0
0
0
0
0
0
0
0
0
0
0
0
-0.00631248
-0.0122492
0.00944126
-0.001544
-0.0125516
-0.0234531
-0.0186351
0.00670857
-0.00848889
0.00211117
0.00988997
0.0228529
0.00210396
0.0203538
0.0103749
-0.00632701
0.016207
-0.0145852
0.00282144
0.0167314
-0.0154538
0.00388844
-0.0209536
0.00975444
1.83283e-05
-0.00369782
-0.0034787
-0.00219907
-0.00789234
-0.00533179
0.00115303
0.000363184
0.0155295
0
0
0
2.53873e-06
-0.000117547
7.59282e-05
0
0
0
0.000191288
0
0
-2.78951e-06
0
9.59116e-06
0
0
0
0
0
0
0
0
0
0
0
0
0
0
0
0
0
0
4.93787e-05
4.76855e-05
1.93691e-05
0
-4.67188e-05
0
0
0
0
0.0278148
0
-0.0283648
0.0407819
-0.00100202
0.0405821
-0.000672299
0.0473415
0.0251694
0.000927225
0.0507471
0.0282355
0.0104803
0.0476025
-0.0419383
-0.009176
0.041329
-0.0556718
-0.0256374
0.0339189
0.0604733
-0.0246882
0.0400443
0.0188556
0.000158387
0
0
0.000157664
0
-8.9744e-06
0
-8.94132e-07
0
5.28833e-07
0
-1.14e-06
-1.03471e-08
0
0
0
0
0
0
2.53447e-06
0
0
0
0
0
0
0
0
0
0
0
0
0
0
0
0.0040271
0
0.00999143
0.00605304
0.00870105
-0.0207444
0.0278071
-0.00600294
0.0120531
-0.0236039
-0.0160079
0.00554143
0
0
0
0
-5.6222e-05
3.46329e-05
0
0
0
0
0
0
0
0
0
-0.0101078
0
0
-0.000782903
0.000403923
0.00129957
0
0
0
0
0
0
0
0
0
0
0
0
0
0
0
-1.15269e-05
0
-1.19224e-05
0.0670936
0.0648576
-0.0220973
0.0162032
0.0646512
-0.0102344
0.0500238
0.0294798
-0.0340036
0.0522889
0.0502751
0.00947974
0.0824799
0.0345597
0.0350561
0.0789501
0.0390025
-0.0216149
0.0320538
0.0655857
-0.0418319
0.0369194
0.0714949
0.0302892
0.0225184
0.0747657
-0.0525936
-0.0050483
0.0751865
-0.0850593
-0.0197968
0.0834815
0.106346
-0.0199421
0.0864058
0.107744
0.0856342
0.0994226
-0.0781496
-0.00414736
0.0934239
0.0933051
-0.00558067
-0.0980666
0.0123692
0.00652821
0.0467746
-0.0023789
0.0422649
0.0181144
-0.0329346
0.0256158
-0.0293523
-0.0214977
-0.00230651
0.000112127
-0.000262591
-0.056225
0.0481964
0.0623981
0
0
-0.054991
0.0228725
0.0784083
-0.019516
-0.0313191
0.0363744
-0.0192096
-0.0159735
0.0120495
-0.265333
-0.0567062
0.00612505
0
0
0
-0.0193487
0
0
0
0
0
0
0
0
0
0
0
0
0.000572815
0
-0.0034309
0
0.00404891
-0.0115811
-0.0333441
-0.00974245
-0.00945043
0.0510435
0.00459962
0.00886129
-0.0744703
-0.0179757
0.040701
-0.0328912
-0.015636
0.00210344
-0.000415557
0.0345453
0.0303442
0.0305966
-0.0442157
0.0151194
-0.0262235
0.0322241
-0.00890493
-0.024041
-0.0757353
-0.0642358
-0.0231171
-0.0661626
-0.057936
0.019791
0.0888207
-0.0825753
-0.0339619
0.0469797
-0.0456232
0.0037519
-0.0561408
-0.00953108
-0.0455426
-0.0424022
-0.0176267
-0.0411692
-0.0168783
-0.0151514
0.00358001
0.0377442
-0.0594812
-0.0395476
-0.00692064
-0.0525177
-0.0733968
-0.000872401
-0.0457666
-0.0499664
0.0309029
-0.0701947
-0.0145963
0.0465864
-0.055329
-0.0196567
-0.0569422
-0.0687353
-0.0220028
-0.0533041
-0.0553357
-0.0091536
0.0601019
-0.0460938
-0.00724211
0.0647561
-0.042406
0.00752899
0.0639634
-0.053957
0.0203698
0.0649039
-0.0315455
0.0142442
0.0688032
0.00186251
0.0390511
0.0719469
0.0189773
0.0743651
-0.067292
0.021098
0.092353
0.0707713
0.0158802
0.0899653
0.10093
0.0716224
0.0310714
0.0799811
0.100228
0.101883
-0.0760641
-0.0346928
0.0793014
0.10164
0.0729989
0.11126
-0.0305518
0
0
0.0465645
-0.00179988
0.0156302
-0.0655675
-0.0358537
0.0657797
0.0810922
0.00472642
-0.0438308
0.0282286
0
-0.0145559
0
0
0
0
0
0.00512091
-0.00750508
0
0
0
0
0
0
-6.89487e-05
0.000135092
0.000118706
0
6.11843e-05
0
0
0
0
0
0
0
0
0
0
-0.000214533
0.000690275
-0.000633592
0
0
0
-1.45005e-05
0
8.86552e-05
0
-3.05327e-05
0
0
0
0
0
0
0
0
4.83042e-06
-4.30876e-05
0
0
0
0
-0.000104019
0
0
0
0
0
0
0
0
-1.73639e-07
-9.5696e-07
0
0
0
0
0
0
0
0
0
0
0
0
0
0
0
-6.66365e-05
0
0
0
0
0
0
0
0
0
0
0
0
0
0
0
0
0
0
0
0
0
0
0
0
0
0
0
7.83888e-07
0
0
0
0
0.00670049
0.0100605
0.0166845
0.014458
-0.00763275
-0.0242838
0.0119857
0.0118951
-0.0240123
-0.00917626
0.0149581
-0.00910493
0.000689593
0.0247414
-0.0225318
0.00154792
0.0233473
0.0125252
-0.00373998
0.00488811
-0.00254413
0.0156508
-0.00588245
-0.00633406
0.0135543
-0.00607192
-0.000801395
-0.0137144
-0.0131149
-0.00761484
0.00615381
-0.011193
0.0114103
-0.000508256
0
-0.000163955
1.41803e-05
-0.000273997
-0.000126816
0
0
0
0
0
0
0
0
0
0
0
0
0
0
0
0
0
0
0
0
0
0
0
0
-6.77252e-05
0
0
0
0
0
0
0
0
0
0
0
-0.0221417
0
-0.0419658
0.0115967
-0.022628
0.00441074
0.00598231
0.0270057
0.0178767
-0.00944335
0.0316938
-0.0291837
0.0231946
0.0435575
0.0582708
-0.0086074
0.0315089
0.054299
-0.00430894
-0.0129358
0.0201596
-0.0292541
0.0387412
-0.0438947
0
0
0
0
0
0
0
0
0
0
3.83342e-07
0
0
0
0
0
0
0
0
-0.00601642
0
0
0
0
0
0
0
0
0
0
-0.00698513
0
0.00215746
0
0
0
0
0
0
0
0
0
0
-0.00484423
0
-0.0309011
-0.0046675
-0.0158213
-0.00547403
-0.0213235
-0.0139142
0
0
0
-2.1614e-05
0
0
0.0100003
-0.0298903
-0.00809568
-0.00458703
0
0
0
0
0
0
-1.46873e-05
-2.25491e-05
3.04436e-06
0
-8.02949e-06
0
-0.000374923
0
0
0
0
0
0
3.72003e-07
0
-1.28428e-05
0
0
0
0
0
0
0
0
0
0
0
0
0
0
0.0308589
-0.00168603
0.0400905
-0.0188406
0.0304397
-0.0348813
0.0373222
0.0535375
0.0213558
0.0233692
-0.0662159
0.0638745
-0.0217747
-0.0516734
0.0188921
0.062016
-0.0191936
0.0730483
0.0971256
-0.0584117
0.0875534
-0.0199954
0.0681213
-0.0473059
0.0641188
0.0893278
-0.0174779
0.064531
-0.043663
0.05875
-0.0851843
0.0585864
-0.0356082
-0.0164294
0.0544369
0.0647706
-0.0156248
0.0821871
0.0939281
-0.0213759
0.0820085
-0.087884
-0.0160105
0.0796811
0.0830824
0.0600261
0.0327686
-0.0501156
0.0329034
0.0391212
-0.0392904
0.0503811
0.0113912
0.0378422
0.0141002
0.0345475
-0.0137332
0.0708079
0.0304062
0.0495137
0.0603537
0.0161828
0.0490955
0.0352112
0.0801076
0.0399807
0.0116128
0.0779445
0.0628606
-0.0099708
0.0852642
0.0971981
-0.0224702
0.0906334
0.118256
-0.0164021
0.0956763
0.107166
-0.00559595
0.0937771
0.0963003
0.0910926
-0.00996582
0.100618
0.0926678
-0.00934041
0.108929
-0.0188675
-0.00919794
-0.023432
-0.0781176
-0.0142092
0.0340346
0.00231038
-0.0224488
0.0218909
-0.0253761
0.00780995
-0.0301138
-0.0473819
0
-0.00733008
0
0.0302581
0.0379377
0.0922703
0.0524519
0.0153792
0.0681228
-0.0392528
0.0196036
0.048549
0.0307368
0.0157211
0.055731
0.0284582
0.0215563
0.046107
0.0274546
0.0377535
0.0526621
0.0178517
0.0495588
0.0625615
0.0136945
0.0741737
0.034293
0.0556692
0.00857914
0
1.62641e-05
2.55001e-05
0
0.0192497
0.0400112
-0.0997897
0.0241738
0.0531016
-0.186587
0.0146123
-0.0204168
1.38948e-05
-0.0277846
-1.05487e-05
2.18311e-05
-1.38133e-05
-7.07633e-06
0
-4.34633e-05
0
0
0
0
0
0
0
0
0
0
0
0
0
-0.0239209
4.99567e-05
7.42751e-05
0.00135483
0
-0.0205727
-0.0135228
0.00418426
0.000993959
0.00406251
0.0442991
-0.0643682
0.0380202
0.0207337
-0.016671
0.0057504
-0.000954174
-0.0698486
0.0109842
-0.0394776
0.0197933
0.0170782
-0.0125294
0.0414813
0.0411189
-0.000311887
0.0839925
-0.00996483
0.0463697
-0.0736972
-0.00130533
0.0789822
-0.0648977
-0.0305931
0.0337276
0.0608243
-0.0284572
0.0618773
-0.0829109
0.0143074
-0.0169776
-0.0503999
-0.0369551
-0.0227751
-0.022232
-0.039865
-0.0140033
0.0431962
-0.0530128
-0.0663509
0.00844056
-0.048041
-0.0853185
0.00668004
-0.0722014
-0.0366975
0.0330369
-0.0548681
-0.0271651
-0.0786434
-0.0823361
-0.0269642
-0.0559991
-0.0688114
-0.032845
0.0570012
-0.0690438
-0.0236879
0.0599021
-0.0558462
-0.0110379
0.0641402
-0.0537216
0.00844194
-0.0652853
-0.0593522
0.0124964
0.0675468
-0.0264179
0.0104246
-0.0653147
0.0107003
0.0457817
-0.0632971
0.0326878
0.0819942
0.0609316
0.0362456
0.0962566
-0.0593234
0.0329217
0.103274
-0.0616915
-0.060136
0.0960578
0
-0.0144582
0.0373949
0
-0.00959586
0
0
-0.0342142
0
0
-0.0394385
0
0
0
0
0
0
0
0
1.60914e-05
0
8.36906e-05
0
0.0104107
0
0
0.000218054
0
-0.000106402
0
-0.00018433
0
-6.83316e-05
0
0
0
0
0
0
0
0
3.80734e-05
5.38539e-05
-1.81834e-05
0.000355676
0
0.000302793
7.51514e-06
-0.00044214
1.1591e-05
0
0
0
0
0
0
0
0
0
0
0
0
-4.302e-05
0
-0.000114349
0
0
0
0
0
0
0
0
0
0
0.00313567
0.00182156
0
0
0
0
0
0
0
0
0
0
0
0
0
0
0
0
0
0
0
-5.5968e-06
6.48895e-06
0
0
0
0
-6.05911e-05
1.33813e-05
0
0
0
0
0
0
0
0
0
0
0
0
0
0
0
0
0
0
0
0
0
0
0
0
0
0
0
9.56008e-06
0
-4.12514e-05
0
0
0
-9.62474e-06
0
1.67864e-05
0.0306914
0.0181374
-0.0832618
-0.0702782
0.0544984
-0.0094085
0.0490969
0.0262209
0.0123444
0.00321598
-0.0182613
0.0199968
-0.0213039
0.0137877
-0.00686098
0.0138654
-0.00639188
0.00250404
0.0165679
0.0170978
0.00022009
0.015086
-0.0179459
-0.000771433
0.00546895
-0.00399529
-0.000694008
-0.00574252
-0.00281507
-0.00719563
-0.00812355
-0.00928962
0.00315697
-0.00678743
-0.0171292
-0.00297422
-0.00813168
-2.50509e-05
0
0
0
0
0
0
0
0
0
0
0
0
0
0
0
0
0
0
0
0
0
0
0
0
0
0
0
0
0
0
0
0
0
0
0
0
0
0
0
0
0.00761949
0.0860336
-0.0247663
0.0219303
-0.00814095
0.00888682
0.00383928
0.0058481
-0.0180624
-0.00053184
0.00249163
0.000488018
0.0305807
0.00133689
0.00666231
0.0223815
0.0107542
0.0394479
-0.0304283
0.00191391
0.0306455
0.011451
-0.00747627
0.0180866
0
0
9.39135e-06
7.17867e-07
0
0
0
0
0
0
0
0
0
0
0
0
0
0
0
0
0
0
0
0
0
0
0
0
0
0
0
0
0
0
0
0
0
0
0
0
0
0
0
0
0
0
0
0
0
0
0
0
0
0
0.0181011
-0.00352364
0.00530446
0.0251276
0.0390087
0.0420225
0.00012359
0
0.0093442
0
0
0
0
0
0
0
-0.0289827
0.00683148
-0.011842
0
0
0
0
0
0
0
0
0
0
0
0
0
0
0
0
0
0
0
0
0
0
0
0
0
0
0
0
0
0
0
0
0
0
0
0
0.0024276
0.0274728
0.0310977
-0.0352507
0.0298199
0.0342902
-0.0346776
0.0244619
-0.0522645
-0.0202846
0.0597294
-0.0605211
-0.0298607
0.0754907
-0.103832
-0.0361059
0.0709822
0.119311
-0.0265601
0.0693013
-0.0999071
-0.0122555
0.0554591
-0.048374
-0.00463521
0.0912158
-0.090956
0.000798449
0.0881293
0.068648
-0.0263562
0.0783685
-0.096769
0.0479126
0.00022748
-0.0879371
0.0372259
0.000789753
0.05187
0.0398109
-0.0212359
-0.0327415
-0.0131467
0.0273793
0.0298354
0.070459
0.0400986
0.0366421
0.0981903
0.0496216
-0.0235325
0.101227
0.0798858
0.0078363
-0.0770054
0.0620251
-0.00440882
0.0869086
-0.018142
0.0859571
0.110952
-0.0307131
0.0905944
0.133545
-0.0225145
0.0952505
0.122643
-0.00716493
0.0854454
-0.0993208
-0.012041
0.0882462
-0.0939798
0.0905612
-0.00530744
-0.099679
0.10037
-0.00278173
0.092008
0.00422576
-0.0122741
-0.0321047
0.0188411
-0.0102518
0.0338543
0.0365071
0.0470267
-0.00520306
-0.0335259
-0.018789
0.061565
0.0243348
0.0227431
0.0412547
0
-0.000591585
0.0261617
0.031425
0.0336854
0.0717573
-0.0356381
0.0248123
0.0594472
-0.0262233
0.0233412
0.0203638
0.0461618
0.0313755
0.0456141
0.0157925
0.0401696
0.0503719
-0.0149609
0.0498141
0.0628416
0.014233
0.0406463
0.059874
-0.0136985
0.0450175
0.0521908
0.00635672
0.042367
0.0516777
-0.000241751
0.0310441
0.0390457
0.0385516
0.00758937
0.0255011
0.0595628
0.0264491
0.00201379
-2.64187e-05
3.31505e-05
6.68298e-05
-6.61941e-05
-0.0290041
3.58044e-05
0
-0.254023
0.0410779
0
-0.0326406
0
-0.000110493
0
0
0
0
0
0
0
0
0
0
0
0
0
0
0
3.79101e-05
3.1586e-05
0
-2.45714e-05
0
0
0
0
-0.00846887
0.0174769
-0.0312957
0.151948
0.00130481
0.0413555
0.00343549
0.0050487
-0.00225619
0.00165764
-0.0323738
0.0595569
0.0253338
-0.0579362
-0.0380042
0.0376204
-0.00347815
0.021557
0.0552878
0.0190086
-0.0307854
0.056094
-0.00135259
-0.0800157
-0.0122996
0.067252
0.0920234
-0.0312597
0.0895937
0.08486
-0.00708796
0.0398998
-0.0781778
-0.00695508
0.0851153
0.0756579
0.00903604
-0.0316491
-0.070985
-0.0614074
-0.0439651
-0.0312311
-0.0667025
-0.0227239
-0.0637407
-0.0725757
-0.0857646
-0.0192853
-0.0676435
-0.0674852
0.020307
-0.0493462
-0.0288804
-0.0819374
-0.0728736
0.0230747
-0.0817105
-0.0546217
0.0483184
-0.0765608
-0.0405461
0.0506814
-0.0746523
-0.0267193
-0.0586671
-0.0614971
-0.014077
0.0628441
-0.0582458
0.00440389
-0.0625806
-0.0491818
0.00709134
0.0603356
-0.00854602
0.0202865
0.0478022
0.0234534
0.0482931
0.0454978
0.0405591
0.0727363
-0.0450609
0.0423525
0.0854719
-0.0421441
-0.0416358
0.0867973
0
0
0
0
0
0
0
0
0
0
0
0
0
0
0
0
0
0
0
0
0
0
-0.000141208
0
0
0
0
0
0
-4.07023e-06
0
0
0
0
0
0
0
0
-8.40158e-06
2.62284e-05
0
0
3.00813e-05
-2.06591e-05
-2.20772e-05
0
2.89291e-06
0
0
0
0
0
0
0
0
0
0
0
0
0
0
0
0
0
0.00350802
-0.00302827
-7.06499e-05
0
0
0
0
0
4.26921e-05
0
8.42266e-05
-0.00196139
0
0.0191382
0
0.0122149
0
0
-1.05961e-06
-6.19344e-05
5.83379e-06
0
-3.08306e-05
0
0
0
0
0
0
0
0
0
-1.60805e-05
4.89975e-06
-1.30535e-05
0
-4.83558e-06
0
-2.01206e-05
8.11016e-06
-4.61984e-05
0
4.50094e-05
0
0
0
0
9.97928e-06
0
-6.41289e-05
0
-1.527e-05
-2.33883e-05
0
0
0
0
0
0
0
0
0
0
0
0
0
0
0
0
0
0
0
0
0
-5.65956e-06
0
7.44345e-06
0
0
0
-4.37331e-05
0
0
0
0
0
0
0
0
0.0107117
0.0206664
0.0314641
-0.00722592
0.0248763
0.055043
0.0272734
0.0203789
0.0251476
0.00897153
0.0107566
-0.00703073
0.0603323
-0.00287782
0.0110613
0.00273022
0.0180078
-0.00143977
0.0195483
-0.0125706
0.0077808
0.0137896
-0.0154112
0.0020894
0.0067924
0.00408691
0.00185241
0.00392862
0.0214219
-0.00120949
-0.010019
-0.0101807
-0.000883596
-0.00854659
-0.0038239
0.00199869
0.00593493
-0.00106775
0.00813484
-0.0177177
0
0
0
0
0
0
0
0
0
0
0
6.30157e-06
0.11947
-0.0148918
1.57531e-05
0
0
0
0
0
0
0
-9.43482e-06
0
0
0
0
-4.20728e-07
0
8.2377e-07
0
4.02106e-07
0
0
0
0
0
0
-0.00414837
0.0143544
0.0106613
-0.0198252
-0.000744867
0.0286189
0.00582488
-0.0179704
0.000443768
0.0301693
0.0047703
0.0113431
0.0118186
-0.00176897
-0.00901812
-0.00639809
0.00680014
0.00198248
0.0188342
-0.0120648
-0.0108626
-0.0031954
-2.48414e-05
0.00225746
1.79864e-08
0
0
7.52688e-07
0
-7.90514e-06
0
0
0
0
3.54447e-10
0
-1.33045e-06
0
1.33357e-06
0
0
0
0
0
0
0
8.51058e-05
0
1.33564e-05
-5.88274e-05
2.99259e-05
4.11686e-05
0
0
0
0
0
0
0
0
0
0
0
0
0
0
0
0
-1.07802e-05
8.02933e-05
0
0
0
0
0
0
0
0
0
0
0
0
0
0
0
0
0
-2.42274e-05
0
2.73879e-05
-0.0321483
-0.0032077
-0.00625076
-0.00200268
-0.0104802
-0.035679
0
0
0
0
0
0
0
4.75362e-06
0
8.24764e-06
0
-3.07853e-05
2.22394e-05
0
0
0
0
0
0
0
0
0
0
2.71165e-05
-1.36375e-05
0
0
0
0
0
0
0
0
0
0
1.8269e-05
1.09735e-05
4.30205e-06
0
3.91214e-05
0
0
0
0
0
0
0
0
0
-8.10169e-06
0
2.80533e-05
-0.004408
0.0495718
-0.0315524
-0.0039916
0.0178257
-0.0570979
-0.0567793
-0.00528268
0.0480724
-0.0652679
-0.0593587
0.034902
-0.0207866
0.0415928
0.00500003
0.0266201
0.0221223
-0.00524893
0.044147
0.0510326
-0.0478405
0.0715794
0.118247
-0.0428076
0.0748995
0.1175
-0.00596176
0.0730846
0.0808869
0.0148275
0.0687556
0.059785
0.01186
0.0913745
-0.0770635
-0.00827015
0.0811427
-0.0839867
-0.0315839
0.0763642
0.0953278
0.0388682
-0.0376433
-0.0947928
0.0315473
-0.0175239
0.046484
0.0263205
-0.0343975
0.0261952
-0.0322612
0.0171311
0.0295621
0.0454008
-0.0249994
0.0937768
0.0355055
-0.0353603
-0.092784
0.0767208
-0.0322562
0.117172
0.0558568
-0.0455308
-0.116104
-0.0445549
0.078956
-0.133347
-0.0393859
0.0787836
-0.131123
-0.0145892
0.0814907
0.0983762
-0.000785732
0.0884309
0.0913808
-0.00155278
0.0694222
-0.0919202
0.0878023
0.01272
0.0753182
0.0439357
-0.00709719
-0.0853958
0.0137362
-0.0154615
-0.0207186
-0.0264399
-0.0221853
0.00586706
0.0116543
-0.0172266
0.0264135
-0.0310077
0.00240854
-0.0757599
-0.0209851
-0.0955917
-0.0129139
0
0.0612662
0.0129549
0.0249923
0.0308856
0.0447538
0.0201007
0.0271443
0.0418346
-0.0129453
-0.00784921
0.0355584
0.0392479
0.0304968
0.0263784
-0.00480325
0.0472946
0.0471342
-0.00012257
0.0519452
0.0534306
0.00403617
0.0468872
0.0561641
0.00530938
0.0451793
0.058656
-0.00350861
0.0326532
0.0422923
0.00359693
0.0319158
0.0270737
0.00754884
0.0400462
0.0497302
0.00519164
0.0335404
0.0406651
-0.027779
-5.3006e-05
0
0
0
0
0
0
0
0
0
0
0
0
0
0
0
0
0
0
0
0
0
0
0
-9.41581e-06
0
-4.62363e-05
0
-2.48526e-05
0
0
0
0
-0.00290306
0
0
0.0166667
0.000281426
-0.00797284
0
0.00453648
-0.0452463
-0.00918992
0.0425313
-0.0259287
0.0252317
-0.0591833
0.0510197
0.040355
-0.0382773
0.0190877
0.0550677
0.022389
0.0138051
0.0583973
0.0329681
-0.0620613
0.0427626
-0.0123254
0.0794535
0.110528
0.000243052
0.0718824
-0.0886365
-0.0761159
0.0690343
-0.0370517
0.0346468
0.100763
-0.0632616
0.0329219
-0.100448
-0.00763447
-0.0752777
-0.0870901
-0.0673632
-0.0573241
-0.051799
-0.0746589
-0.0314177
-0.0711095
-0.075751
-0.0903487
0.0169832
-0.0924005
-0.0769112
0.00743199
-0.0979222
-0.0774534
0.0359317
-0.0903376
-0.0572682
0.0478182
-0.0877223
-0.0483227
0.0514623
-0.0821076
-0.0334716
0.0587201
-0.0636276
-0.018906
0.0587902
-0.0452976
-0.00206188
-0.0503009
-0.0242601
0.0136502
0.0375922
-0.000819111
0.0206655
0.0262062
0.020077
0.0263371
0.0235185
0.0327647
0.0390151
-0.0197997
-0.0180213
0.0547419
0
0.00324534
0.00231024
0
0
-7.21252e-07
7.55663e-07
0
0
0
0
0
0
0
0
0
-3.06116e-05
-1.83222e-05
-8.25145e-05
-0.000111974
-0.000101753
-9.64525e-05
3.57546e-05
-0.000263037
-0.000113659
0
-6.25849e-05
-2.42542e-05
0
-0.0153349
-0.025537
0
0
0
3.3651e-05
0
-3.34439e-06
5.62195e-05
-9.03415e-05
-0.000252453
0
-2.90455e-05
0
0
0
0
0
0
0
0
0
0
0
-1.5806e-07
5.09296e-08
0
0
0
0
0
0
0.00486807
0
-0.00357864
0
-0.00526232
0
0
0
0
0
0
0
0
-2.13934e-05
0
0
0
0
0
0
0
0
0
0
0
-3.48503e-05
0
0
0
0
0
0
0
0
0
0
0
0
-1.24323e-05
0
0
0
0
0
0
0
0
0
0
0
0
0
-7.72866e-05
0
0
0
0
0
0
0
0
0
0
0
0
0
0
0
0
0
0
0
0
0
0
0
0
0
0
0
0
0
0
0
0
0
0
0
0
0
0
0
0
0
0
0
0
0
0
0
0
0
-1.15044e-06
3.26171e-11
0
0
0
0
0
0
0.0297209
0.0026991
0.0156014
-0.00655802
-0.0100033
-0.00799566
-0.0148991
0.0103497
0.0422224
-0.00336872
0.018534
0.0289719
0.0206979
0.0279716
-0.00487774
0.00789552
-0.0118996
0.0789095
0.0164226
0.0223843
-0.0340766
0.0214178
0.0103647
0.0138488
-0.0324352
0.00448627
0.0104807
0.00829667
0.00837166
-0.0067181
0.00447719
0.00194422
-0.00185706
-0.0125311
-0.0100139
-0.00823773
0.000617099
0.00968735
-0.0118481
-0.0129331
-0.0125364
-0.0045704
-0.00191364
0.0146629
0
0
0
0
0
0
0
-0.0827114
-0.0696627
0
0
0
0
0
0
0
0
0
0
0
0
0
0
0
0
6.20106e-05
3.68479e-05
-5.30454e-05
0
1.27713e-06
-2.21113e-05
0
0
0
0
0