/*--------------------------------*- C++ -*----------------------------------*\
  =========                 |
  \\      /  F ield         | OpenFOAM: The Open Source CFD Toolbox
   \\    /   O peration     | Website:  https://openfoam.org
    \\  /    A nd           | Version:  8
     \\/     M anipulation  |
\*---------------------------------------------------------------------------*/
FoamFile
{
    version     2.0;
    format      ascii;
    class       volScalarField;
    location    "1080";
    object      alpha;
}
// * * * * * * * * * * * * * * * * * * * * * * * * * * * * * * * * * * * * * //

dimensions      [0 0 -1 0 0 0 0];

internalField   nonuniform List<scalar> 
526318
(
0.000228984
9.17151e-05
0.00018574
0.000313821
0.000309219
0.000361696
0.000102469
0.000501594
0.000328301
0.00041146
0.00059555
0.000580474
0.000526717
0.000726421
0.000601102
0.000565667
0.000474536
0.000286578
0.000441741
0.000319742
0.00053625
0.000497924
0.00059404
0.00048222
0.000215893
0.000437957
0.000161697
0.000407275
0.000225846
0.000245628
0.000307652
0.000286433
0.000308149
0.000644672
0.000234394
0.000775081
0.000748516
0.000533731
0.000740812
0.000803696
0.000667996
0.000374004
0.000422844
0.000403763
0.00103926
0.000807178
0.000295076
0.000994724
0.000445506
0.00100209
0.000792432
0.00100351
0.000798664
0.000796645
0.00711118
0.000411406
0.000210407
0.00689234
0.000484317
0.000636578
0.000538929
0.000857491
0.000873356
0.000463249
0.000434245
0.000768978
0.000646704
0.000878687
0.000925147
0.000846266
0.000948646
0.00169573
0.00161073
0.00163301
0.00237101
0.00177235
0.00190039
0.001609
0.00202299
0.00232091
0.00159388
0.00180301
0.00237029
0.00216709
0.00230708
0.00188038
0.00169397
0.00252197
0.00272366
0.00199594
0.00294817
0.00395626
0.00346017
0.0039562
0.00530003
0.00472898
0.00494409
0.00542261
0.00488505
0.00508358
1.15003
0
0.120377
0.0261172
0.0194893
0
0.00206636
0.00289979
0.00119677
0.000691067
0.000419276
0.000768058
0.00037432
0.000208663
0.00038607
0.000312755
0.000424414
0.000396721
0.000393144
0.00499003
0.00533733
0.00572713
0.00483105
0.00634826
0.00536967
0.00867999
0.00697663
0.00980521
0.00780129
0.0100194
0.0107076
0.0108036
0.0106386
0.0115695
0.0103879
0.0135324
0.0112897
0.0123437
0.0122193
0.0157609
0.0150869
0.0131204
0.0126164
0.0127061
0.0152681
0.015425
0.0137087
0.0145433
0.0149201
0.0138992
0.0135824
0.0135093
0.0137336
0.0136169
0.0134277
0.0161539
0.0132937
0.0135949
0.0153137
0.017559
0.0114465
0.0155248
0.0123217
0.00129953
0.000674995
0.000978568
0.000486129
0.00229712
0.0013717
0.00184529
0.00240999
0.0021037
0.00251913
0.00282799
0.00242144
0.0034059
0.00511909
0.00579912
0.00621205
0.00513454
0.00531076
0.00437003
0.00585913
0.010163
0.0072426
0.0131628
0.0115596
0.010871
0.0120435
0.0112663
0.0115629
0.0112368
0.0118845
0.0115798
0.0111633
0.0110803
0.0111571
0.0105295
0.0109061
0.0117147
0.0110822
0.0132699
0.0117362
0.00985625
0.0108464
0.0101025
0.0119025
0.0115537
0.0103755
0.00880575
0.000879842
3.95613e-05
0.000213179
0.000578958
0.000770759
0.000687346
0.000619734
0.000425179
0.00102061
0.00177217
0.00134242
0.00111823
0.000216904
0.000508023
0.00249962
0.00216985
0.00159641
0.00176723
0.00120603
0.0510838
0
0.0122949
0.00335596
0
0
0
0
0
0
0.00055499
0.000563485
0.000488722
0.000478984
0.000726093
0.000549174
0.000857977
0.000925559
0.00145129
0.00132735
0.0016474
0.00139595
0.00164474
0.00151805
0.00178887
0.00181173
0.00285583
0.00235909
0.00434933
0.0036205
0.00482367
0.00460348
0
0
0
0
0.00419335
0
0.0616009
0.00461421
0.00115662
0.00201038
0.000914373
0.000821792
0.000371874
0.000538024
0.000352721
0.000383531
0.00040803
0.000528958
0.000538231
0.000412614
0.00515051
0.00525043
0.00598991
0.0069241
0.0112952
0.00924711
0.0138724
0.012762
0.0135949
0.0147705
0.0157659
0.0150188
0.015911
0.015192
0.00850429
0.00757894
0.00588347
0.00601014
0.00714576
0.00786643
0.0142531
0.0160618
0.010908
0.00762584
0.0112649
0.0146354
0.0153729
0.0168561
0.0170582
0.0196821
0.0188448
0.0241811
0.0243049
0.0240463
0.0254164
0.00943663
0.00534228
0.00728862
0.00534514
0.00110631
0.000863388
0.00222931
0.00208634
0.00188985
0.00223322
0.00209924
0.00176272
0.0023236
0.0018755
0.00287641
0.00554077
0.0076388
0.00672667
0.00700064
0.00697692
0.0128479
0.00672913
0.00913197
0.0103634
0.0143299
0.013354
0.0123791
0.0137596
0.0122533
0.0130088
0.0130173
0.0120136
0.0114259
0.0123832
0.0103847
0.0114256
0.00932999
0.0102202
0.00961712
0.00940608
0.00889881
0.00815414
0.0102618
0.00871956
0.00768148
0.00749247
0.00611198
0.00746696
0.00845494
0.00646763
0.00531101
0.00508258
0.00360184
0.00373805
0.00399014
0.00420643
0.00346599
0.00329317
0.00281584
0.00288618
0.00257252
0.000750237
0.00073131
0.00113892
0.000856655
0.000504124
0.000471924
0.000760106
0.00205058
0.00133033
0.000308318
0.00157058
0.0048133
0.00449094
0.0032395
0.00648329
0.00132374
0.0016691
0.0045222
0.00268419
0.00246102
0.00232148
0.001037
0
0
0.0139392
0
0.00962593
0.0136717
0
0.0110477
0
0
0
0
0
0
0
0
0.000536828
0.00045169
0.000474781
0.000424311
0.0006617
0.000514765
0.0010216
0.000947898
0.001272
0.00147329
0.00159234
0.0014501
0.00171653
0.00180791
0.00220771
0.00202412
0.00269126
0.00234205
0.00319899
0.00381831
0.00483109
0.00550728
0
0.233418
0.212773
0
0
0
0
0
0.0231454
0.150247
0
0
0
0
0.0072971
0
0
0
0.0198164
0
0
0
0.0232008
0.0181929
0.000850402
0.0024955
0.00126813
0.000685449
0.000813131
0.00062925
0.000410898
0.000483385
0.000550315
0.000457001
0.000615589
0.000475467
0.000511292
0.00042029
0.00637481
0.00631984
0.00824884
0.00711748
0.0102979
0.0129516
0.0139275
0.0134325
0.0147045
0.0132891
0.017439
0.0185486
0.0181484
0.0178123
0.011454
0.0117853
0.0167506
0.00788132
0.0127984
0.00843924
0.0199037
0.0300935
0.0202608
0.0217406
0.0227271
0.0292062
0.026806
0.0264686
0.0259119
0.028654
0.028159
0.00276402
0.0029852
0.00303777
0.0028131
0.00258735
0.00173163
0.00178451
0.00205671
0.00405922
0.00287885
0.0033619
0.00271755
0.00507576
0.00831854
0.00222888
0.00152986
0.00372947
0.00243022
0.00358661
0.00288953
0.00222383
0.00225557
0.00202728
0.00217423
0.00372802
0.0023582
0.00457734
0.00670072
0.0057719
0.00717591
0.0147261
0.00828171
0.0206686
0.0238268
0.0301749
0.0160415
0.0172193
0.0130326
0.0136703
0.0145619
0.0131838
0.0140386
0.0124808
0.0135459
0.0112678
0.0127771
0.00988788
0.0111462
0.0100092
0.00910768
0.00734723
0.00858887
0.0064453
0.00699746
0.00777477
0.00705017
0.00677876
0.00637417
0.00576718
0.00514346
0.00548614
0.00641034
0.00411316
0.00487295
0.00268602
0.00262067
0.00327585
0.00278795
0.0023511
0.00258104
0.00167322
0.00186506
0.00140206
0.00144482
0.00121543
0.00096207
0.00134051
0.000448487
0.00138822
0.000998217
0.00136541
0.000773639
0.00218861
0.00336454
0.000248937
0.00223976
0.0047899
0.00624137
0.00730812
0.00105531
0.00448546
0.00377247
0.00505241
0.00407082
0.00426654
0.000552412
0
0
0.146667
0
0.0121507
0.013506
0
0
0
0
0
0
0
0
0
0
0
0
0
0
0
0.0216227
0
0
0
0
0.0109341
0
0
0.00640699
0.0074371
0.0098107
0
0
0
0
0
0
0
0
0
0
0
0
0
0
0.000414453
0.000539196
0.000476396
0.000403448
0.000682625
0.000565857
0.0010939
0.00114692
0.00136945
0.00152963
0.00174918
0.0016074
0.00185686
0.00201367
0.00205087
0.00217956
0.00264842
0.00271263
0.00397311
0.00346663
0.00639857
0.00549882
0
0
0
0
0
0
0
0
0
0
0
0
0
0
0
0
0
0
0
0
0
0
0
0
0.0313214
0
0
0
0
0
0.00608397
0
0.00695012
0.00381715
0.000708132
0.0015027
0.000700729
0.000905397
0.00087274
0.000554865
0.00063146
0.000418971
0.000484028
0.000651993
0.000571438
0.000436096
0.000430079
0.000504356
0.00693096
0
0
0
0
0
0
0
0
0
0
0
0
0
0
0.0463948
0
0.00655753
0.00659218
0.00691279
0.00866004
0.0144796
0.011178
0.0170195
0.0169946
0.0211886
0.0201305
0.0288109
0.0285398
0.0192872
0.0196944
0.0259353
0.0160107
0.0131322
0.0112843
0.0101765
0.010708
0.029203
0.0340683
0.0334908
0.0248625
0.030209
0.0275143
0.0302285
0.0334725
0.0379965
0.0406915
0.0545196
0.0674745
0.00126913
0.00134799
0.00113191
0.0012147
0.00127602
0.00148179
0.000889772
0.000822342
0.000661238
0.00083417
0.00324812
0.00253867
0.00195725
0.00132046
0.00267473
0.00470995
0.00294969
0.00376816
0.00995071
0.00478292
0.00521668
0.00660449
0.00242636
0.00307883
0.00243798
0.00307709
0.00272325
0.00266806
0.00287154
0.00343955
0.00512082
0.00718266
0.00886604
0.00669617
0.0103258
0.00889516
0.0238529
0.016962
0.0364231
0.0331165
0.0361972
0.0223421
0.0174749
0.0247847
0.018174
0.0134012
0.0136544
0.0143876
0.0137173
0.012394
0.0103068
0.0117397
0.0101184
0.00922993
0.00765663
0.00879358
0.00728607
0.00671171
0.00679661
0.00620714
0.0056885
0.00508122
0.00482726
0.00585656
0.00518011
0.00468589
0.00447701
0.0045539
0.00380967
0.0030526
0.00237384
0.00242261
0.00255619
0.00257841
0.00194293
0.00170481
0.00122668
0.00132892
0.00111415
0.00131489
0.000944564
0.000873044
0.000645438
0.000603114
0.000748491
0.000571368
0.00056374
0.000726862
0.000611397
0.000644568
0.000500995
0.000451092
0.000489076
0.000431895
0.000424865
0.000455585
0.000446137
0.000431894
0.00038584
0.000408206
0.000371693
0.000357262
0.000321949
0.00032299
0.000337688
0.000304443
0.000305799
0.000279572
0.000269764
0.000252812
0.000251432
0.000225935
0.000237527
0.000221075
0.000236738
0.000213935
0.00022533
0.000222305
0.000239391
0.00022535
0.000201523
0.00246192
0.00018928
0.000645644
0.000753672
0.0016236
0.00140123
0.00119386
0.00452905
0.00192256
0.0212909
0.013796
0.00711653
0.000711739
0.0197986
0.0135778
0.0335636
0.00878254
0.013744
0.00846208
0.0128574
0.0122609
0.009048
0.00828807
0
0.017589
0
0
0
0
0.0135802
0
0
0
0
0.00033853
0
0
0
0
0
0
0
0
0.016001
0
0
0
0
0
0
0
0
0
0
0
0
0
0
0
0
0
0
0.149233
0
0
0.0325934
0
0.00450128
0
0
0.00376376
0.00105464
0
0.00914327
0.00279949
0
0
0
0
0
0
0
0
0
0
0
0
0
0
0
0
0
0.0234556
0
0
0.000583917
0.000409939
0.000415807
0.000555243
0.000644545
0.000765267
0.00129564
0.00124999
0.00162745
0.00145506
0.00166959
0.00177831
0.00209409
0.00227502
0.00400724
0.00520978
0.00621976
0.00251094
0.00273017
0.00297722
0.00324525
0.00338088
0
0
0.00405382
0.00630847
0
0
0
0
0
0.0043601
0
0
0
0
0
0
0
0
0
0
0
0
0.0132047
0.000181145
0
0
0.243366
0.0165271
0.00125044
0.00493171
0.00112701
0.000524405
0.000958972
0.000609057
0.000840411
0.000417643
0.000470054
0.000707356
0.000475043
0.000717944
0.000584748
0.000466023
0.00058702
0.000470339
0.0028641
0
0.0152739
0
0
0.000816692
0
0
0.0014731
0
0
0
0
0
0
0
0
0
0.0244449
0
0
0
0
0
0.0145364
0
0.00699751
0.0067196
0.0112094
0.00908855
0.0223623
0.0177743
0.0274253
0.0270136
0.0271695
0.0243116
0.0315483
0.0266978
0.0366252
0.0321873
0.0401615
0.0234545
0.0110586
0.0149587
0.0114069
0.00966134
0.0825515
0.0553414
0.032265
0.036128
0.0517772
0.0416822
0.0790671
0.0861071
0.0756675
0.0747135
0.0816762
0.0689023
0.000646086
0.000716492
0.000852047
0.00114963
0.00117925
0.00123938
0.000561376
0.000751686
0.000536101
0.000456193
0.000531072
0.000653206
0.000479442
0.000440848
0.000403837
0.000397081
0.000329488
0.00033478
0.000271474
0.000301819
0.000263439
0.000234074
0.00024967
0.000226027
0.000240458
0.000246723
0.000231153
0.000209992
0.000228293
0.00025204
0.00227588
0.0031441
0.00144272
0.00108183
0.00213779
0.00481445
0.00320569
0.0036709
0.0108742
0.00406146
0.0147675
0.00469234
0.0105231
0.00214288
0.00315376
0.00239866
0.00317598
0.00224594
0.0042685
0.00889173
0.0161607
0.0115666
0.00505739
0.0114087
0.0533214
0.052919
0.176347
0.049415
0.0319895
0.0242635
0.0377983
0.0296196
0.0214332
0.0265141
0.0179901
0.0228895
0.0193367
0.0138638
0.0106745
0.0131281
0.0103434
0.00958888
0.00822158
0.00955186
0.00752879
0.00661759
0.00611766
0.00647916
0.00585376
0.00510313
0.00442521
0.00414774
0.0043827
0.00462658
0.00327222
0.00376669
0.00400787
0.00343746
0.00249272
0.00249013
0.002282
0.00206713
0.0022074
0.00216846
0.00145127
0.00149068
0.00132983
0.00115333
0.00106938
0.00109261
0.000643389
0.000789509
0.000636452
0.000547283
0.000693411
0.00051618
0.000447666
0.000491658
0.000459426
0.000442603
0.000392538
0.000362282
0.000340268
0.000329276
0.000297284
0.000274313
0.000237736
0.000237494
0.000217247
0.000207885
0.000196913
0.000223999
0.000234794
0.000212151
0.000242677
0.000262861
0.000252361
0.000259891
0.000228376
0.000228448
0.000274741
0.000253719
0.000247074
0.00207747
0.00668953
0.00190147
0.0014694
0.00481637
0.00304161
0.000745035
0.00180568
0.00139785
0.00544685
0.0151519
0.00627967
0.0148362
0.0076992
0.0145556
0
3.69714
0.0187828
0.234116
0.0221274
0.0254522
0.0139972
0.0160828
0.00643703
0.0107166
0
0
0
0
0.0198229
0.0426299
0
0
0.0524524
0
0
0
0
0
0
0
0
0.0191942
0
0
0
0
0
0
0
0
0
0
0
0
0.00584304
0
0.0520725
0
0
0
0
0
0
0.0506326
0
0
0.0702842
0
0
0
0
1.67279e-05
0
0.00542517
0
0.018195
0
0
0
0
0
0
0
0
0.000703805
0.000453312
0.00044146
0.000669812
0.000731606
0.000866033
0.00130378
0.00130766
0.00160309
0.00178855
0.00222817
0.00213174
0.00289887
0.00257653
0.00438842
0.0069886
0.00796699
0.00360156
0.00283831
0.002715
0.00296647
0.00301336
0.004405
0
0.00385121
0
0
0
0
0
0.0194007
0
0
0
0.00628755
0.0131361
0
0
0
0
0
0
0
0
0
0.0311941
0
0
0.0142548
0.00683758
0.000576437
0.0048611
0.00108605
0.00043266
0.00112941
0.000463813
0.000419679
0.000852352
0.000794856
0.000535541
0.000753315
0.000546088
0.00062632
0.000448661
0.000485675
0.00062145
0
0
0
0
0
0
0
0
0
0
0
0
0
0
0
0
0
0
0
0.00349602
0
0.00325454
0
0
0
0
0
0
0
0
0
0.010981
0.0106798
0.014305
0.0171377
0.0256548
0.0195181
0.0217831
0.0255557
0.00699592
0.0106498
0.0118437
0.0429122
0.0348516
0.0688939
0.0790661
0.0406939
0.0336464
0.0385266
0.0228122
0.0127084
0.0218081
0.0105517
0.0164203
0.0428343
0.067596
0.0501706
0.0492147
0.169262
0.18439
0.0971911
0.0801414
0.0793518
0.0527028
0.243227
0.160728
0.000220204
0.000229826
0.00019663
0.000188491
0.000193858
0.000196055
0.000182475
0.000187772
0.000170481
0.000172205
0.000180563
0.000167179
0.000168584
0.000157044
0.000243502
0.000263251
0.000234879
0.000216844
0.000232417
0.000254597
0.000224197
0.000211119
0.000219715
0.000197106
0.000244692
0.000192708
0.00023686
0.000190188
0.000179447
0.000259606
0.000244569
0.000253665
0.000271066
0.000267991
0.000242107
0.00057601
0.000708237
0.000688797
0.000907548
0.00104996
0.000902067
0.000598731
0.000677345
0.000506189
0.000505366
0.000646903
0.000495743
0.000428144
0.000488651
0.000348419
0.000365249
0.000322909
0.000327776
0.000325011
0.000289095
0.000296729
0.000257575
0.000280625
0.000251769
0.0002645
0.000241096
0.00028033
0.000253955
0.00168281
0.00211994
0.00390764
0.00238299
0.00214663
0.000951367
0.0009702
0.00532615
0.0024946
0.0058153
0.0122102
0.0002413
0.000207965
0.000226663
0.000219244
0.000200512
0.000192676
0.000207379
0.000176035
0.000203408
0.00017523
0.000190628
0.000159441
0.000160728
0.000138716
0.000150045
0.00014612
0.000133835
0.00014459
0.0111331
0.0183503
0.015415
0.00273021
0.00550089
0.00227974
0.00542199
0.00691836
0.00997581
0.0102297
0.010807
0.0127347
0
0.0282964
0
0
0.477156
0
0.0255545
0.0257305
0.21837
0.0219625
0.0291866
0.0283663
0.0208614
0.0268262
0.0135193
0.0164628
0.0107868
0.0131972
0.0111649
0.00909333
0.00809693
0.00686025
0.0061263
0.00639554
0.00546225
0.0061294
0.00393173
0.00451197
0.00413137
0.00389806
0.00356502
0.00400994
0.00237154
0.00278782
0.00326693
0.00259907
0.00209004
0.00214436
0.00152486
0.00149301
0.00160217
0.00192329
0.00145509
0.00103574
0.00118115
0.00129104
0.000729467
0.000907792
0.000547422
0.00059239
0.000672658
0.000585546
0.000499833
0.000510241
0.000460775
0.000487437
0.000431188
0.000398875
0.000360288
0.000363454
0.000343372
0.000317401
0.000267321
0.000280525
0.000244468
0.000235768
0.000208979
0.000225842
0.000232704
0.000198118
0.000239855
0.000212467
0.000219459
0.00658228
0.0155491
0.00911447
0.01128
0.011353
0.00801047
0.0143353
0.00352332
0.00627655
0.0186464
0.023512
0.00518948
0
0.0184559
0.0157195
0
0
0
5.48442
0.0212041
0.149083
0.175992
0.328385
0
0
0
0
0
0.0816133
0.0477519
0.0186138
0
0.000601448
0
0
0
0
0
0
0
0
0.058542
0.0489417
0
0
0
0
0
0
0
0
0.240275
0
0.00472323
0
0
0
0
0
0
0
0
0
0
0.00166828
0
0
0
0
0.0104147
0
0
0
0
0
0
0
0
0.0239708
0
0
0
0.0350019
0
0
0
0
0
0
0.023109
0
0
0
0
0.0200116
0.000160118
0.000154499
0.000167208
0.000142055
0.000138894
0.000128034
0.000468003
0.000786286
0.000738845
0.000431739
0.000777252
0.000939899
0.00154927
0.00157173
0.00202764
0.00224034
0.00231581
0.00255056
0.00272122
0.0024783
0.00391593
0.0060169
0.0040897
0.00283534
0.00310474
0
0
0
0
0
0
0
0
0
0
0
0.00724481
0
0.0125857
0.0055051
0.00736684
0.00763031
0
0
0
0
0
0
0
0
0
0
0.00221363
0.00064733
0.000545041
0.00106156
0.000420478
0.00071138
0.000451486
0.0011332
0.000470393
0.00081129
0.00044948
0.000529956
0.000741621
0.000652718
0.000462281
0.000580507
0
0.021911
0
0
0
0
0
0
0
0
0
0
0
0.0408686
0
0
0
0.013033
0
0.00604355
0
0
0
0
0
0
0
0
0
0
0.0465052
0
0
0.055122
0
0.0375863
0.0165799
0.00847478
0.00582789
0.00723902
0.012099
0.0119493
0.0148383
0.0108235
0.0361859
0.0264755
0.0563756
0.0603341
0.00986875
0.0112646
0.157508
0.37127
0.135926
0.19892
0.063199
0.0655381
0.0327957
0.119968
0.0142838
0.0279547
0.0146445
0.010982
0
0
0.42729
0.131445
0
0.991438
0
0
0
0
0
0
0.000207387
0.00020551
0.000198528
0.000192664
0.000184622
0.000192137
0.000164254
0.000177498
0.000238378
0.000257895
0.000258667
0.000225481
0.000208795
0.000238997
0.000200381
0.000229995
0.000252743
0.000274689
0.000278065
0.000249792
0.000240461
0.000263743
0.00056249
0.000740953
0.000698679
0.00059273
0.000769858
0.000856005
0.000643843
0.000633092
0.000609772
0.000299811
0.000779061
0.000565117
0.000379419
0.000416884
0.000414933
0.000542843
0.000407126
0.000372841
0.00036418
0.000381004
0.000361941
0.000369032
0.000331682
0.000304052
0.00033699
0.000288284
0.000323901
0.000259426
0.000278986
0.000306443
0.000274252
0.00181185
0.0027229
0.00128476
0.00113841
0.00190793
0.00159038
0.000636771
0.000831818
0.00252424
0.00449095
0.00831117
0.00429891
0.000221209
0.000241506
0.000204239
0.000212058
0.000193675
0.000192875
0.000203467
0.000176454
0.000183006
0.000172721
0.000159746
0.000149606
0.00015505
0.000138356
0.000126414
0.000117752
0.000132884
0.000124158
0.000115688
0.000195265
0.000175301
0.000176141
0.000107858
0.000120572
0.00011194
0.0087831
0.00956636
0.0158407
0.0322567
0.010483
0.0139895
1.11796
0.0649944
0.0137535
0
0.149962
0
0
0.0152646
0
0.0123265
0
0.616033
0.0853453
0.191467
0.0888467
0.0406741
0.0236056
0.047834
0.0201297
0.0146757
0.0190357
0.0162798
0.0113512
0.0152982
0.00735959
0.00966149
0.00706222
0.00646103
0.00578639
0.00650974
0.00462471
0.00422128
0.00324488
0.0039532
0.00275225
0.00319857
0.00295254
0.00293261
0.0022222
0.00219723
0.00217174
0.00224524
0.0021319
0.00197635
0.00116624
0.00126123
0.00152225
0.00136948
0.00104741
0.00141354
0.000754374
0.00105955
0.00025316
0.00128623
0.000551569
0.000643591
0.000502714
0.000470988
0.000479673
0.000420194
0.000463747
0.000387714
0.000366318
0.000346062
0.000350309
0.000306698
0.000300101
0.000257617
0.000270083
0.000227243
0.000247209
0.000221298
0.000191654
0.000234451
0.000189619
0.000213506
0
0
0
0
0.00208823
0.0193036
0.0294418
0.0354807
0.00090977
0
0
0
0
0
0
0
0
0
0
0
0
0
0
0
0
0
0
0
0.0930991
0.0624367
0
0
0
0
0.0380749
0
0
0
0
0
0.0600999
0
0.061181
0
0
0
0
0
0
0
0
0.143002
0
0
0
0.0109798
0.287346
0
0.00281388
0.0117316
0
0
0
0
0.0052083
0.0184504
0
0
0.0149369
0.0154896
0
0
0
0
0.00155816
0
0.00582295
0
0
0
0
0
0.0133899
0
0
0
0
0
0
0
0
0
0
0
0.277588
0
0
0
0
0
0
0
0.0138639
0.000159767
0.00014975
0.000164356
0.000149751
0.000161094
9.84713e-05
0.000125576
8.69313e-05
8.985e-05
0.000135821
0.00099249
0.000550508
0.000535367
0.000978235
0.000937484
0.00127353
0.00167198
0.00154138
0.00215778
0.00210141
0.00240797
0.00266342
0.00331665
0.0036651
0.00632042
0.00455619
0.00511297
0
0
0
0
0
0
0
0.00551796
0.00283303
0.00466607
0
0
0
0
0.0471721
0
0.00824264
0
0
0.0040379
0
0
0
0
0
0.000535824
0.000717785
0.000334647
0.00141415
0.000618166
0.00108863
0.000544601
0.000595507
0.000319124
0.000404537
0.000903662
0.000752044
0.000471595
0.000416071
0.000752718
0.000607124
0
0
0
0.0124733
0
0
0.0155337
0.00748302
0
0
0
0
0
0
0
0.00642674
0.00507595
0.00210738
0
0
0
0.00886109
0
0
0
0.0105107
0
0
0
0
0
0
0
0
0
0.013189
0
0
0
0
0
0
0
0
0
0.00625215
0.0061745
0.00516705
0.0129633
0.0121646
0.0142688
0.0162372
0.0270885
0.0274663
0.135432
0.198539
0.287952
0.404446
0.0274539
0.0251029
0
0
0
0
0.125043
0.226681
0.0788272
0.0292531
0.0121872
0.021768
0.00725152
0.0137817
0
0
1.28754
0.172419
0
0
0
0
0
0
0
0.00712454
0.000196852
0.000219557
0.000193009
0.00021125
0.000206278
0.000185695
0.000184769
0.00016923
0.000170437
0.000164802
0.000161054
0.000173508
0.000152068
0.000161748
0.000264779
0.000248783
0.000268523
0.000243909
0.000253289
0.000228505
0.000233312
0.000206076
0.000265756
0.00028468
0.000257205
0.000283164
0.000276569
0.000258706
0.000498827
0.000679112
0.000640384
0.000593735
0.000693622
0.000656677
0.000622369
0.000622469
0.000595648
0.000522342
0.000476834
0.000593169
0.000452172
0.000378444
0.000405805
0.000574445
0.000393441
0.000439087
0.000387447
0.000430365
0.000386261
0.000353976
0.000363361
0.000339913
0.000320886
0.000353944
0.000287858
0.000267569
0.00029483
0.000324071
0.00207239
0.00227096
0.000819724
0.000920187
0.000988977
0.00115258
0.000734555
0.00064867
0.00286183
0.00223659
0.00305315
0.00476278
0.000199659
0.000192924
0.000202795
0.000195795
0.000183939
0.000181498
0.000175335
0.00016717
0.000164467
0.000155313
0.000151882
0.000136509
0.000142751
0.00011822
0.000128446
0.000103021
0.000121551
0.000106887
9.99127e-05
9.39471e-05
8.97532e-05
0.000143395
0.000145642
7.37095e-05
7.76707e-05
0
0
0
0
0
0
0
0
0.0143748
0
0
0
0
0
0
0
0.0882375
0
0.0731412
0.153084
0.161944
0.0586869
0.0192596
0.0295207
0.0133951
0.0154616
0.0168313
0.0171711
0.0117648
0.00859236
0.00701324
0.00723106
0.00608285
0.00678382
0.00376196
0.00465776
0.00306276
0.00325675
0.00427167
0.00297966
0.00298109
0.00269672
0.00214219
0.0023017
0.00212465
0.00209363
0.00209058
0.00205277
0.00186655
0.00156081
0.00107448
0.00121329
0.00123282
0.00125922
0.000851985
0.000922486
0.000640653
0.000722141
0.000867351
0.000564956
0.00056831
0.000479174
0.000492271
0.000459363
0.000437166
0.000392179
0.000373894
0.000367232
0.000332921
0.000350255
0.000302309
0.000302287
0.000269075
0.000276586
0.000229316
0.000255716
0.000253094
0.000181154
0.000157821
0
0
0.143569
0
0
0
0
0
0
0
0
0.00483987
0
0.0383908
0.0394361
0.0479654
0.0447401
0
0.0230339
0.0568213
0
0
0
0
0
0.00838323
0.00561537
0
0
0
0
0
0
0
0.027912
0
0.00181434
0
0
0
0
0
0.0688227
0
0
0
0
0
0
0
0
0
0
0
0
0
0
0
0
0
0.0124918
0
0
0
0
0.0258716
0
0
0
0
0
0
0
0
0
0
0
0
0
0
0
0
0.0222225
0
0
0
0
0
0
0
0
0
0
0
0
0
0
0
0
0
0
0
0
0
0
0
0
0
0
0
0
0
0.00492258
0
0
0
0
6.65085e-05
5.35966e-05
6.38648e-05
0.000108069
8.9728e-05
7.30635e-05
0.000148738
0.000166378
0.000144336
0.000141516
0.000109192
8.82173e-05
0.000131404
0.000142853
0.000151104
0.00128925
0.000643439
0.000547909
0.000918765
0.00142585
0.00147922
0.00159254
0.00288391
0.00284201
0.00390668
0.0044854
0.00578529
0.005106
0.00612253
0
0
0
0.00849514
0.00928342
0.00197038
0.00560486
0
0
0.0238558
0
0.0176271
0
0
0
0
0
0.00603377
0.00466453
0
0.00139682
0
0
0
0.000430656
0.000710881
0.000835288
0.000663713
0.000283225
0.00149112
0.000652934
0.00141298
0.000504653
0.00036021
0.000635112
0.000945231
0.000430872
0.000835212
0.000484229
0.000753019
0
0.00383369
0
0
0
0
0
0.00119484
0
0
0.00729643
0
0
0
0
0
0
0
0
0.00107053
0
0
0
0
0
0
0
0
0
0
0
0
0
0
0
0
0
0
0.00277373
0
0
0
0
0
0.0329744
0
0.0401945
0
0
0
0
0
0
0
0
0
0
0.00546395
0.00725692
0.0101324
0.0167089
0.0152884
0.0554247
0.0518049
0.049091
0.0898166
0.0850778
0.104693
0
0
0
0
0.0257781
0.0571526
0
0
0
0
0.0154459
0.00700602
0.0168087
0.115799
0.575737
0.0415623
0.320176
0.0340598
0
0
0
0
0.0791297
0.0202895
0
0
0
0
0
0
0.000194321
0.000219728
0.000199929
0.000225523
0.000206656
0.000191976
0.000182599
0.000177112
0.000161534
0.000169829
0.000140108
0.000145782
0.00016165
0.000265736
0.00028205
0.000256589
0.000281463
0.000237008
0.00026051
0.000203167
0.000235949
0.000287756
0.000270453
0.000271012
0.000294696
0.000307117
0.000284555
0.000565622
0.000653407
0.000585174
0.000607343
0.000567902
0.000589456
0.00066789
0.000643892
0.000606349
0.00054345
0.000588805
0.000546556
0.000487839
0.000417745
0.000590128
0.000460208
0.000475687
0.000432612
0.000403596
0.000450882
0.000403889
0.000377894
0.000384968
0.000369038
0.000373518
0.000347754
0.000281775
0.000301135
0.000348296
0.000319707
0.00182999
0.00140908
0.000896871
0.000659091
0.000752642
0.000771935
0.000735147
0.000683699
0.00186523
0.00146342
0.00212562
0.00178015
0.0144496
0.00742655
0.00339441
0.000238261
0.000159162
0.000177956
0.000185976
0.000173834
0.00015896
0.000158954
0.000179812
0.000139359
0.000156531
0.000122726
0.00012851
0.000115276
0.000107845
0.000108328
9.37205e-05
8.96006e-05
9.59716e-05
7.71952e-05
7.69404e-05
6.05983e-05
6.65053e-05
0.000129055
0.000122564
5.82021e-05
4.69181e-05
0
0
0
0
0
0.00732617
0.0183781
0
0
0
0
0.00402989
4.19826e-05
0
0
0
0
0
0.0236451
0.067977
0
0.0275939
0.0171994
0.0349594
0.0252009
0.0185245
0.0115885
0.0194938
0.00697079
0.00894855
0.00657395
0.00679281
0.00419341
0.00554901
0.00311704
0.00306679
0.00281917
0.00291625
0.00202839
0.00271564
0.00240587
0.00228465
0.00195451
0.00202663
0.00181787
0.00206353
0.00213017
0.00193948
0.00142065
0.00127426
0.00105094
0.00111258
0.00113267
0.00107491
0.000720819
0.000780894
0.000727987
0.000718304
0.000671447
0.000536203
0.000494538
0.000488228
0.000468518
0.000431095
0.000396973
0.00039643
0.000382631
0.000377839
0.000349042
0.000347769
0.000314972
0.000317446
0.000278873
0.000282806
0.000256056
0.000232214
0.000246154
0.000187385
0
0
0.0176609
0
0.0200223
0
0
0
0
0.0298017
0
0
0
0.0642596
0.0540146
0.0481065
0.0426828
0.0413512
0.0495688
0
0
0
0
0
0
0
0
0
0
0
0
0.0183502
0
0
0
0.00168329
0
0.00638208
0
0.174797
0
0
0
0.0246937
0
0
0
0
0
0
0.0133042
0
0
0
0
0
0
0
0.578475
0
0
0
0
0
0.000911011
0.00227979
0.00305488
0
0
0
0
0
0
0.0249874
0
0
0
0
0
0
0
0
0
0
0
0
0
0
0
0
0
0
0
0
0
0
0
0
0
0
0
0
0
0
0
0
0.0299335
0
0
0
0.002168
0
0
0.00227823
0
0
4.51812e-05
5.74044e-05
4.0986e-05
5.8635e-05
6.32581e-05
8.88735e-05
7.14248e-05
0.000135455
0.000142684
0.000134291
0.00011074
0.000111818
0.000107543
7.80121e-05
0.000132681
0.00013543
0.00013924
0.000135111
0.000125566
0.00143514
0.000747511
0.00110754
0.00165852
0.00073574
0.00135714
0.00191223
0.00230188
0.0025488
0.00479776
0.00448536
0.00480107
0.00553286
0.00597293
0
0
0.00306426
0.00122423
0.00534949
0
0
0.00743222
0.015694
0
0
0
0
0
0
0
0
0.0192333
0
0
0
0
0
0
0.00102763
0.000432568
0.000737377
0.000299816
0.000968829
0.00157078
0.00165835
0.0006312
0.000698583
0.000316121
0.000904114
0.000369157
0.000667448
0
0
0
0
0
0
0.00755342
0.00907739
0
0.0100951
0
0
0
0
0
0
0
0.849533
0
0
0
0
0
0
0
0
0
0
0.047221
0
0
0
0
0
0
0
0
0
0
0
0
0
0
0
0
0
0.0778287
0
0
0
0
0.017845
0
0
0
0
0
0
0
0
0
0
0
0.00710743
0.0177781
0.0144309
0.0268031
0.0375286
0.0205225
0.0186206
0.0450813
0.037586
2.05161
0.283488
0
0
0
0
0
0
0
0
0
0
0
0
0.0439488
0.0100945
0
0
0
0.0169659
0.00509748
0.00999037
0
0
0
0.0049039
0.0203845
0
0
0
0
0
0.00816363
0
0.000175291
0.000213751
0.000240367
0.000202373
0.000183584
0.000181072
0.000176035
0.000174664
0.000164589
0.000145569
0.000160807
0.000133034
0.000150655
0.000127567
0.000317159
0.000295435
0.000300257
0.000277819
0.000279335
0.00025421
0.00022433
0.000255155
0.00030985
0.000291032
0.000329283
0.000313192
0.000354961
0.000304246
0.000587349
0.00061392
0.000588272
0.000648165
0.000546984
0.000536088
0.00065354
0.000666477
0.000557484
0.000591643
0.000578536
0.000568746
0.000525725
0.000457507
0.000519682
0.000598144
0.000508345
0.000468897
0.000483423
0.000438638
0.000406983
0.00042532
0.000388374
0.000401788
0.000395458
0.000369786
0.000313495
0.000339564
0.000353757
0.000387829
0.0010739
0.00127968
0.000906594
0.000645856
0.00057735
0.000730657
0.000801765
0.000681058
0.00114054
0.00145703
0.00191936
0.00141405
0.00140381
0.00185153
0.000182314
0.000224685
0.000166846
0.000149102
0.000202064
0.000152425
0.000169955
0.00013929
0.000154426
0.000112682
0.000113449
0.000101713
0.000102217
9.19639e-05
9.22882e-05
8.1322e-05
7.33378e-05
6.22358e-05
6.27495e-05
5.10166e-05
5.81506e-05
0.000139535
0.000130942
4.4619e-05
5.75868e-05
0
0.00568606
0
0
0
0
0
0
0
0.00300004
0
0
0
0
0
0
0.0157504
0
0
0.0502342
0
0.0283026
0.0196204
0.0179722
0.0374794
0.0132681
0.0117481
0.00969149
0.00844294
0.00721321
0.00562403
0.00657287
0.00318596
0.00427658
0.00295448
0.00287682
0.00277274
0.00223337
0.00183733
0.00168807
0.00187734
0.00194328
0.00173247
0.00189968
0.00133298
0.00167697
0.00190642
0.00158207
0.0011174
0.00114808
0.000842704
0.000773099
0.00105026
0.000900018
0.00061404
0.000700742
0.000599887
0.0006536
0.000479413
0.00050022
0.000450447
0.00044524
0.000398554
0.000405104
0.000366129
0.000398885
0.000358967
0.000374066
0.000346338
0.000328197
0.00031345
0.000303454
0.000268673
0.000286126
0.000256748
0.000224087
0.000190482
0.000223587
0
0
0.0112429
0
0
0
0
0.0206867
0
0.0017775
0
0
0
0
0
0
0
0.0315903
0
0
0.0632723
0.0875615
0
0
0.0144366
0
0
0
0
0
0.00549184
0
0
0
0
0
0
0.0241296
0
0
0
0
0
0
0
0
0.0461783
0.0379469
0.00775897
0
0
0
0
0
0
0
0.100727
0
0
0
0
0.0178221
0
0
0.012342
0
0
0
0.0408214
0
0
0
0
0
0
0
0
0
0
0
0
0
0
0
0
0
0
0
0
0
0
0
0
0
0
0
0
0
0
0
0
0
0
0
0
0
0
0
0
0
0
0
0
0
0
0
0
0.00219859
0
0
0.00410531
0
0
0
4.86541e-05
4.6501e-05
6.64478e-05
6.55779e-05
5.64039e-05
6.79365e-05
6.30783e-05
4.81058e-05
6.38451e-05
0.000130433
0.000133123
0.000116186
0.000127444
8.73896e-05
8.1721e-05
7.67003e-05
0.000116499
0.000121311
0.000128746
0.000110626
0.000127434
0.000106305
0.000109875
0.000143779
0.00231759
0.000939508
0.00171883
0.00225872
0.00167797
0.0021613
0.00326366
0.0033278
0.00231378
0.00317099
0.00278323
0.00560253
0.00574238
0.0102398
0.00260606
0.00220903
0.000863986
0
0
0.0151972
0.0129102
0
0.0242894
0.132674
0
0
0
0
0.00533712
0
0
0
0.00554951
0
0.037957
0
0.00857584
0.000576049
0.00153606
0.00116167
0.00028452
0.00152791
0.000750798
0.000334168
0.00101475