/*--------------------------------*- C++ -*----------------------------------*\
  =========                 |
  \\      /  F ield         | OpenFOAM: The Open Source CFD Toolbox
   \\    /   O peration     | Website:  https://openfoam.org
    \\  /    A nd           | Version:  8
     \\/     M anipulation  |
\*---------------------------------------------------------------------------*/
FoamFile
{
    version     2.0;
    format      ascii;
    class       volScalarField;
    location    "1080";
    object      Hclip;
}
// * * * * * * * * * * * * * * * * * * * * * * * * * * * * * * * * * * * * * //

dimensions      [0 1 0 0 0 0 0];

internalField   nonuniform List<scalar> 
526318
(
0.945483
0.907086
0.980915
0.888063
0.958799
0.918785
0.936794
0.854253
0.905186
0.794161
0.763709
0.887141
0.832153
0.876543
0.83754
0.862579
0.834073
1.03179
0.939232
0.989268
0.9802
0.938605
0.697416
0.945078
0.817266
0.683753
0.962139
0.958921
0.958329
0.973809
1.0024
1.04936
1.03298
0.915135
0.910758
0.879811
0.888651
0.979922
0.903617
0.857343
0.914119
0.886406
0.547288
0.603233
0.509825
0.548873
0.533656
0.654629
0.838632
0.733358
0.821312
0.818738
0.773552
0.732761
0.222774
0.479392
0.467433
0.272946
0.991323
1.0037
1.02199
0.9747
0.922344
1.04803
1.0438
1.00316
0.991257
0.990542
0.893671
0.885871
1.00032
0.778201
0.833389
0.725089
0.68018
0.67163
0.770259
0.765093
0.680754
0.718791
0.802795
0.799925
0.754915
0.712363
0.741444
0.806241
0.809685
0.782467
0.735363
0.806228
0.71377
0.657698
0.655891
0.587838
0.583894
0.584989
0.588576
0.582499
0.582163
0.57942
0.00666533
0.001
0.0483841
0.0809673
0.142274
0.001
0.482282
0.305409
0.609132
0.582829
0.621931
0.740087
0.964353
0.849572
0.960899
0.976148
1.03889
1.01316
1.05759
0.580269
0.576146
0.578221
0.586293
0.540909
0.57577
0.486225
0.533531
0.444244
0.488046
0.43973
0.442504
0.433867
0.405339
0.400869
0.425874
0.36948
0.423414
0.371654
0.391982
0.338811
0.343197
0.366489
0.394075
0.381228
0.338792
0.338821
0.356236
0.344087
0.341115
0.349963
0.359856
0.35073
0.352058
0.356789
0.353568
0.31882
0.355318
0.359238
0.322505
0.281992
0.361056
0.305155
0.364024
0.845187
0.939899
0.882271
0.870282
0.670992
0.740786
0.67157
0.670788
0.672925
0.671111
0.692366
0.673983
0.608722
0.574277
0.541187
0.487737
0.548256
0.582671
0.589379
0.583369
0.46876
0.527474
0.413833
0.420269
0.431682
0.42417
0.425699
0.429547
0.419609
0.420753
0.417847
0.408878
0.393708
0.413331
0.408698
0.384436
0.365717
0.389321
0.375683
0.368079
0.390627
0.375055
0.382283
0.348038
0.36006
0.389482
0.395647
0.826638
0.840399
0.872333
0.846212
0.827152
0.832493
0.825804
0.704617
0.744446
0.485093
0.479938
0.474873
0.59247
0.732483
0.599349
0.636872
0.64175
0.584581
0.56621
0.0713949
0.001
0.204756
0.40725
0.001
0.001
0.00100073
0.001
0.001
0.001
1.04156
1.0227
1.07063
1.06335
1.03275
1.02357
0.931776
1.01867
0.862158
0.806032
0.806303
0.807627
0.806412
0.808846
0.796289
0.793709
0.713245
0.774288
0.59431
0.64794
0.57976
0.589989
0.001
0.001
0.001
0.001
0.0516522
0.00100957
0.0525718
0.204694
0.581822
0.403963
0.63314
0.641891
0.751033
0.851698
0.972424
0.975558
1.01049
0.989498
1.0566
1.08559
0.560606
0.556116
0.515882
0.492565
0.39119
0.422135
0.353661
0.359327
0.351998
0.347765
0.337528
0.342895
0.283005
0.301828
0.33652
0.378917
0.429525
0.40294
0.360366
0.360015
0.291237
0.286979
0.335717
0.384066
0.314917
0.339595
0.33786
0.308155
0.306313
0.274072
0.273253
0.233623
0.236353
0.241659
0.229922
0.35547
0.393525
0.360635
0.402754
0.743664
0.707006
0.598245
0.687663
0.608498
0.659724
0.671297
0.66133
0.670938
0.674027
0.585102
0.493632
0.422488
0.410253
0.480642
0.429395
0.404288
0.527689
0.416072
0.45825
0.403728
0.401473
0.413575
0.405053
0.419382
0.414657
0.414185
0.418152
0.419523
0.416539
0.430217
0.422304
0.439762
0.434278
0.43726
0.420652
0.431279
0.419046
0.388776
0.393451
0.419125
0.444614
0.445957
0.414494
0.396519
0.428705
0.465415
0.471939
0.484486
0.440618
0.473237
0.48966
0.5353
0.485327
0.488684
0.517493
0.545559
0.650262
0.727743
0.644696
0.679582
0.75062
0.813567
0.731569
0.59127
0.711347
0.605191
0.624832
0.356937
0.305389
0.339208
0.315067
0.448198
0.567949
0.489519
0.561152
0.558456
0.582166
0.560616
0.001
0.001
0.128667
0.001
0.21703
0.101658
0.001
0.00136489
0.001
0.00100962
0.001
0.00100889
0.001
0.001
0.001
0.001
1.06617
1.05639
1.09223
1.08137
1.06104
1.03085
0.958296
0.871393
0.806402
0.817827
0.795584
0.796757
0.776554
0.775712
0.754487
0.757215
0.707245
0.747113
0.669872
0.616614
0.557771
0.520625
0.001
0.00117963
0.00111115
0.001
0.001
0.001
0.001
0.001
0.00122389
0.00122455
0.001
0.00100984
0.001
0.00100942
0.00137422
0.001
0.001
0.001
0.00110604
0.001
0.001
0.001
0.122484
0.0947242
0.289243
0.137974
0.503077
0.656906
0.67784
0.764322
0.984065
0.882745
1.00162
0.996733
1.01445
1.04103
1.07501
1.09197
0.47489
0.480326
0.434797
0.455245
0.394871
0.362737
0.353166
0.35079
0.346947
0.35269
0.306232
0.300006
0.263434
0.270823
0.332588
0.30131
0.278866
0.325925
0.317012
0.334719
0.243609
0.226684
0.251343
0.257725
0.257785
0.217222
0.220841
0.219125
0.221096
0.204862
0.206972
0.514739
0.493111
0.494197
0.490252
0.515559
0.622854
0.576279
0.555575
0.439076
0.478578
0.468399
0.469047
0.368128
0.308483
0.468077
0.58247
0.466755
0.474
0.450645
0.534538
0.513447
0.586096
0.619156
0.547745
0.523716
0.562554
0.438186
0.406047
0.410312
0.403909
0.317202
0.37975
0.306053
0.255588
0.230492
0.351696
0.355793
0.403893
0.405829
0.402998
0.409541
0.404954
0.41534
0.408714
0.424685
0.414418
0.437989
0.42838
0.436557
0.440807
0.467255
0.448697
0.47895
0.477229
0.425955
0.415284
0.474068
0.462955
0.447521
0.471089
0.453386
0.434448
0.496413
0.466232
0.571464
0.583775
0.531554
0.577448
0.580571
0.553323
0.646744
0.612674
0.684235
0.707153
0.727721
0.623072
0.624083
0.6268
0.582362
0.565826
0.53388
0.622645
0.481519
0.456346
0.505133
0.530324
0.200356
0.249942
0.341988
0.465631
0.48258
0.530999
0.429268
0.386554
0.363267
0.297247
0.001
0.001
0.0210322
0.001
0.130087
0.21059
0.001
0.001
0.00100979
0.001
0.001
0.001
0.001
0.001
0.001
0.001
0.001
0.001
0.001
0.001
0.001
0.00101329
0.001
0.00100023
0.001
0.001
0.00117217
0.001
0.001
0.00117326
0.00117276
0.00117258
0.001
0.001
0.001
0.001
0.001
0.001
0.001
0.001
0.00100959
0.001
0.00100886
0.00100987
0.001
0.001
1.06017
1.07143
1.09202
1.08161
1.06092
0.985345
0.806557
0.892683
0.775749
0.777554
0.755649
0.756689
0.749322
0.747465
0.743975
0.741119
0.684942
0.659615
0.562708
0.599058
0.460076
0.49451
0.001
0.001
0.001
0.001
0.001
0.001
0.001
0.001
0.001
0.001
0.001
0.001
0.001
0.001
0.001
0.001
0.001
0.00100737
0.001
0.001
0.001
0.001
0.001
0.001
0.00147786
0.001
0.001
0.001
0.001
0.001
0.159211
0.001
0.179779
0.177447
0.472784
0.307514
0.681141
0.643812
0.711123
0.812041
0.922941
0.996023
1.00906
1.00177
1.04234
1.07112
1.0588
1.05573
0.00101035
0.001
0.001
0.001
0.001
0.001
0.001
0.001
0.001
0.001
0.001
0.001
0.001
0.001
0.001
0.00113148
0.001
0.454838
0.460903
0.45577
0.425695
0.344759
0.376673
0.30489
0.295165
0.262394
0.256414
0.213548
0.212144
0.251908
0.254133
0.216178
0.247816
0.248112
0.292351
0.273043
0.279411
0.185476
0.160304
0.16445
0.202224
0.203141
0.20567
0.183353
0.182271
0.145222
0.139395
0.102213
0.101802
0.714926
0.685943
0.722339
0.734403
0.682781
0.64302
0.808161
0.826601
0.891201
0.902961
0.451387
0.491518
0.544615
0.625264
0.444476
0.394477
0.427701
0.428881
0.268555
0.318892
0.348736
0.235986
0.451337
0.450978
0.45081
0.45084
0.472489
0.453546
0.467169
0.478017
0.361787
0.352105
0.254718
0.335684
0.325483
0.290546
0.233292
0.260961
0.199133
0.223023
0.198318
0.287023
0.353131
0.283787
0.351444
0.408563
0.410012
0.404458
0.409113
0.417033
0.437842
0.427314
0.445449
0.445337
0.467683
0.456615
0.479782
0.483809
0.48155
0.4849
0.490256
0.491205
0.530457
0.496195
0.465419
0.472621
0.530815
0.504759
0.508581
0.554845
0.589344
0.594065
0.589864
0.594831
0.620803
0.678993
0.737439
0.762129
0.76769
0.749262
0.891225
0.825633
0.954185
0.99356
0.986529
1.02457
1.08029
0.946445
1.03074
1.05374
1.12804
1.17743
1.20347
1.22353
1.25285
1.19817
1.25417
1.21176
1.28997
1.29018
1.34051
1.30897
1.36872
1.40021
1.38818
1.33848
1.40209
1.42689
1.3927
1.39039
1.45443
1.43201
1.46416
1.40433
1.40463
1.46791
1.43661
1.38939
1.38975
1.4218
1.45329
0.426399
0.388159
0.561501
0.556738
0.522679
0.51886
0.518563
0.284604
0.426072
0.125429
0.148523
0.255155
0.236749
0.10972
0.192676
0.184058
0.363589
0.254889
0.249557
0.182014
0.157253
0.172506
0.19606
0.001
0.00108666
0.001
0.001
0.001
0.001
0.00104525
0.001
0.001
0.001
0.001
0.00122441
0.001
0.001
0.001
0.001
0.001
0.001
0.001
0.001
0.00109555
0.001
0.001
0.001
0.001
0.001
0.001
0.001
0.001
0.001
0.00100231
0.001
0.001
0.001
0.001
0.001
0.001
0.001
0.001
0.0010156
0.001
0.001
0.0014365
0.001
0.00107383
0.001
0.001
0.00123774
0.00119361
0.001
0.0012371
0.00123735
0.001
0.001
0.001
0.001
0.001
0.001
0.001
0.001
0.00100744
0.001
0.001
0.001
0.001
0.001
0.001
0.001
0.001
0.00148707
0.001
0.001
1.04938
1.03783
1.01144
1.00863
0.925267
0.998673
0.821245
0.757008
0.747421
0.748005
0.748548
0.747431
0.687324
0.690934
0.540875
0.495159
0.459993
0.631173
0.627731
0.581594
0.577988
0.576942
0.001
0.001
0.001358
0.00135869
0.001
0.001
0.001
0.001
0.001
0.00107703
0.001
0.00100893
0.001
0.001
0.001
0.001
0.001
0.001
0.001
0.001
0.001
0.001
0.00108759
0.0010857
0.001
0.001
0.0195968
0.172494
0.303261
0.175527
0.472446
0.638796
0.673289
0.699515
0.784557
0.89478
0.960228
0.94204
0.982635
0.920104
0.968413
1.01073
0.963771
0.96409
0.00126406
0.001
0.00113064
0.001
0.001
0.00121451
0.001
0.001
0.00121468
0.001
0.001
0.001
0.001
0.001
0.001
0.001
0.001
0.001
0.00105825
0.001
0.001
0.001
0.001
0.001
0.00141814
0.001
0.435025
0.428916
0.354036
0.36675
0.248149
0.266217
0.206045
0.209642
0.206763
0.208015
0.180709
0.182951
0.165006
0.171016
0.150625
0.185843
0.266843
0.232223
0.271132
0.26719
0.080797
0.097629
0.14137
0.125391
0.122098
0.125883
0.0754447
0.0684127
0.0559251
0.0674969
0.075753
0.0772163
0.937607
0.938648
0.764542
0.682652
0.667619
0.658383
0.934112
0.848258
1.0934
1.16825
1.06578
0.991479
1.1812
1.16393
1.2302
1.27756
1.3074
1.30822
1.33543
1.30874
1.3636
1.38955
1.3856
1.38551
1.40359
1.38961
1.38919
1.43538
1.37926
1.37463
0.501076
0.43098
0.572368
0.642262
0.426829
0.374572
0.428945
0.427807
0.258216
0.309949
0.128068
0.292394
0.178896
0.45314
0.393725
0.452199
0.441775
0.453515
0.345974
0.246081
0.168001
0.155174
0.169924
0.203855
0.129161
0.115418
0.0468441
0.129402
0.215507
0.20688
0.131192
0.231183
0.303603
0.247269
0.357437
0.29985
0.342718
0.403958
0.442075
0.412812
0.448357
0.45424
0.46768
0.451606
0.486346
0.502182
0.502335
0.510492
0.516069
0.524087
0.552545
0.569763
0.559853
0.547803
0.561073
0.547376
0.564597
0.585884
0.628663
0.627655
0.589484
0.624779
0.621203
0.648972
0.683696
0.74964
0.781656
0.777839
0.789236
0.861755
0.941558
1.01661
1.02858
1.15435
1.02916
1.079
1.22836
1.25379
1.25242
1.29108
1.33863
1.38886
1.3987
1.40258
1.42994
1.45861
1.48436
1.48499
1.48539
1.48487
1.48524
1.46761
1.40327
1.46743
1.43554
1.3892
1.38907
1.42133
1.4534
1.46315
1.39007
1.45119
1.40998
0.214614
0.206152
0.275389
0.35405
0.246167
0.310129
0.445882
0.381579
0.413912
0.245732
0.152104
0.117326
0.116996
0.209823
0.206953
0.001
0.00119526
0.170747
0.0389822
0.151792
0.172469
0.173292
0.160158
0.175515
0.203594
0.001
0.001
0.001
0.001
0.00142252
0.00142215
0.001
0.001
0.00103873
0.001
0.001
0.001
0.001
0.001
0.001
0.001
0.001
0.00109472
0.001
0.001
0.001
0.001
0.001
0.001
0.00100779
0.001
0.00100327
0.001
0.001
0.001
0.00123962
0.001
0.00109976
0.001
0.001
0.001
0.001
0.001
0.001
0.00104056
0.001
0.001
0.001023
0.001
0.001
0.001
0.001
0.00155095
0.001
0.00107036
0.001
0.0012318
0.001
0.001
0.001
0.001
0.001
0.001
0.001
0.001
0.96044
0.957418
0.940729
0.945796
0.87456
0.939637
0.747387
0.811393
0.708329
0.707336
0.650834
0.636047
0.577502
0.580888
0.497734
0.387723
0.371313
0.533373
0.582791
0.58187
0.577604
0.577785
0.00135713
0.001
0.00135657
0.001
0.001
0.001
0.001
0.001
0.00103858
0.001
0.001
0.001
0.00109228
0.00109207
0.001
0.00100999
0.001
0.001
0.001
0.001
0.001
0.001
0.001
0.00108575
0.001
0.001
0.143085
0.176883
0.368364
0.205853
0.512457
0.642875
0.619826
0.727632
0.89451
0.799024
0.875571
0.874117
0.86734
0.896804
0.952208
0.948419
0.954687
0.923507
0.001
0.001
0.001
0.001
0.001
0.001
0.001
0.001
0.001
0.001
0.001
0.001
0.001
0.001
0.001
0.001
0.001
0.001
0.001
0.00107121
0.001
0.00107106
0.001
0.001
0.001
0.001
0.001
0.001
0.001
0.001
0.001
0.309904
0.303947
0.267767
0.252327
0.208743
0.224905
0.192536
0.195672
0.352759
0.287819
0.273304
0.125221
0.130694
0.0619233
0.0687988
0.141875
0.14828
0.143092
0.178569
0.241208
0.197736
0.231265
0.216599
0.0994201
0.0825645
0.0957132
0.111216
0.036253
0.0295869
0.0358039
0.0482456
0.0618816
0.0520392
0.0187073
0.0273209
1.5092
1.51796
1.54627
1.52339
1.56577
1.552
1.57573
1.56803
1.62316
1.60955
1.57515
1.62627
1.59192
1.64562
1.47794
1.43023
1.44977
1.49876
1.48032
1.45002
1.45231
1.50513
1.50999
1.48602
1.46654
1.51782
1.50241
1.509
1.53493
1.38924
1.38894
1.38885
1.38802
1.40723
1.4281
0.984498
0.930402
0.824011
0.730809
0.644037
0.717507
0.918787
0.902514
1.14144
1.16417
1.05307
1.13346
1.17153
1.2189
1.26745
1.30828
1.30646
1.30737
1.3043
1.33429
1.34723
1.37307
1.36013
1.3625
1.36653
1.37603
1.35378
1.35292
0.550878
0.481366
0.421592
0.413273
0.469928
0.642459
0.621959
0.350488
0.406573
0.282002
0.215546
1.49516
1.51581
1.53186
1.53841
1.54326
1.55375
1.55795
1.58464
1.56965
1.58768
1.58639
1.63489
1.65735
1.6803
1.68009
1.68474
1.69874
1.72197
0.171905
0.114611
0.117312
0.37778
0.264955
0.434306
0.338402
0.253646
0.155556
0.155693
0.155788
0.156647
0.001
0.077976
0.001
0.001
0.0300172
0.001
0.223114
0.15272
0.0498659
0.249214
0.244277
0.25464
0.311492
0.261865
0.394399
0.338653
0.429951
0.389449
0.42448
0.457805
0.47582
0.505572
0.528398
0.522311
0.53794
0.524824
0.589226
0.570842
0.565718
0.569663
0.615264
0.595346
0.668933
0.623881
0.604014
0.652864
0.692781
0.688861
0.706909
0.746654
0.747382
0.688501
0.803361
0.828442
0.80065
0.792219
0.872807
0.957497
1.02884
1.09572
1.04421
1.05911
1.18707
1.24772
1.28894
1.27187
1.33522
1.3677
1.40852
1.4235
1.41775
1.43758
1.49493
1.47509
1.48725
1.4955
1.48683
1.48537
1.48545
1.48508
1.48538
1.48522
1.48513
0.201388
0.186022
0.212473
0.132196
0.151299
0.17746
0.107833
0.251621
0.153285
0.0917491
0.110149
0.0919656
0.001
0.0904325
0.11478
0.001
0.001
0.001
0.0014316
0.173558
0.0479183
0.0630703
0.0474986
0.001
0.001
0.001
0.001
0.001
0.0015281
0.00152751
0.00141917
0.001
0.00110025
0.001
0.001
0.001
0.001
0.001
0.001
0.001
0.001
0.00101691
0.00151678
0.001
0.001
0.001
0.001
0.001
0.001
0.001
0.001
0.00222669
0.001
0.00101045
0.001
0.001
0.001
0.001
0.00100993
0.001
0.001
0.001
0.001
0.001
0.00120223
0.001
0.001
0.001
0.001
0.00120144
0.001
0.001
0.001
0.001
0.001
0.001
0.001
0.001
0.00114805
0.001
0.001
0.001
0.00115246
0.001
0.001
0.001
0.001
0.001
0.001
0.00164683
0.001
0.001
0.001
0.001
0.00164491
1.67479
1.64068
1.61554
1.71651
1.7507
1.74551
0.938247
0.939862
0.927862
0.92227
0.847973
0.912975
0.743266
0.667381
0.596613
0.608768
0.581021
0.577545
0.577493
0.581416
0.45978
0.371556
0.462247
0.546301
0.541289
0.001
0.001
0.001
0.001
0.001
0.001
0.001
0.001
0.001
0.001
0.00100943
0.00104922
0.001
0.144736
0.176635
0.20279
0.00101608
0.001
0.001
0.001
0.001
0.001
0.001
0.001
0.001
0.001
0.001
0.348749
0.483421
0.597048
0.60152
0.919014
0.838817
0.85127
0.638397
0.725303
0.815198
0.867127
0.869077
0.866457
0.885099
0.915811
0.906232
0.001
0.0012017
0.001
0.001
0.001
0.001
0.00100904
0.001
0.001
0.001
0.001
0.001
0.001
0.00116299
0.001
0.001
0.001
0.00106345
0.001
0.00106469
0.001
0.001
0.001
0.001
0.001
0.001
0.001
0.001
0.001
0.001
0.0012361
0.001
0.001
0.00101201
0.001
0.00101671
0.00101742
0.307373
0.343677
0.325465
0.27311
0.267377
0.245544
0.260218
0.135548
0.15562
0.0667403
0.0754778
0.272828
0.265349
0.0292748
0.0172927
0.0203322
0.0290182
0.089782
0.0774273
0.118088
0.0626755
0.191206
0.141686
0.191417
0.202192
0.001
0.001
0.00847744
0.0329602
0.001
0.00171536
0.001
0.001
0.001
0.001
0.001
0.001
1.50937
1.52346
1.54661
1.56869
1.57618
1.57643
1.61408
1.58973
1.44317
1.44159
1.42557
1.44592
1.47853
1.44138
1.48525
1.46092
1.37595
1.36434
1.36335
1.39402
1.42336
1.39766
0.989686
0.913997
0.806723
0.895022
0.743381
0.655014
0.909658
0.9088
1.1494
1.15121
1.16566
1.06568
1.14072
1.25261
1.19863
1.14295
1.18392
1.28469
1.29785
1.28875
1.29483
1.30275
1.32572
1.35234
1.34272
1.35151
1.35238
1.35074
1.35134
1.35164
1.35056
0.397793
0.398232
0.539383
0.619445
0.399825
0.479504
0.634575
0.651202
0.38989
0.332261
0.244838
0.314076
1.52564
1.48489
1.50343
1.54934
1.54715
1.54872
1.55893
1.58028
1.60228
1.61268
1.61298
1.61762
1.64011
1.67984
1.66298
1.68066
1.69926
1.74588
1.72241
1.5546
1.5649
1.58099
1.75043
1.75073
1.75023
0.116619
0.117914
0.114104
0.0865905
0.184942
0.197665
0.00142878
0.0387132
0.0781295
0.001
0.00103753
0.001
0.001
0.00157812
0.001
0.00157266
0.001
0.00657462
0.0989896
0.0368878
0.035575
0.180684
0.263324
0.165298
0.327791
0.359532
0.285648
0.33349
0.397078
0.35512
0.49052
0.425316
0.497578
0.518251
0.527962
0.510362
0.561651
0.607196
0.639926
0.644028
0.652033
0.632744
0.662699
0.641878
0.691217
0.700516
0.722883
0.717878
0.695475
0.701959
0.816838
0.868574
0.761195
0.829794
0.87384
0.841021
0.938318
0.985758
1.08323
1.12082
1.09894
1.18795
1.2447
1.34161
1.32964
1.38852
1.36085
1.45626
1.46352
1.45683
1.4847
1.51301
1.51321
1.56728
1.53348
1.55934
1.52323
1.52199
1.55736
1.48899
1.52545
1.48853
0.001
0.001
0.001
0.001
0.125524
0.109435
0.11611
0.0938724
0.112662
0.001
0.001
0.001
0.001
0.001
0.001
0.001
0.001
0.001
0.001
0.001
0.001
0.001
0.001
0.001
0.00100493
0.001
0.001
0.001
0.00152432
0.00152348
0.001
0.001
0.001
0.001
0.00106988
0.001
0.0010004
0.001
0.001
0.001
0.00125997
0.001
0.00125662
0.001
0.001
0.001
0.001
0.001
0.001
0.001
0.001
0.00199406
0.001
0.001
0.001
0.00141917
0.00103003
0.001
0.00115314
0.00115337
0.001
0.001
0.001
0.001
0.00120234
0.00120257
0.001
0.001
0.00120134
0.00120163
0.001
0.001
0.001
0.001
0.00117419
0.001
0.00117421
0.001
0.001
0.001
0.001
0.00100269
0.00109575
0.001
0.001
0.001
0.001
0.001
0.001
0.001
0.001
0.001
0.001
0.001
0.00114599
0.001
0.00100958
0.00100998
0.001
0.001
0.001
0.001
0.0010364
1.63575
1.64658
1.64874
1.64933
1.68372
1.79102
1.76639
1.76741
1.79163
1.73303
0.848347
0.835518
0.770268
0.773596
0.732241
0.760759
0.670768
0.630001
0.611394
0.581439
0.556324
0.552496
0.467285
0.473252
0.340904
0.38811
0.382945
0.001
0.001
0.001
0.00101
0.001
0.001
0.001
0.174928
0.315753
0.178023
0.001
0.001
0.001
0.001
0.043245
0.001
0.00101905
0.001
0.001
0.00102604
0.001
0.001
0.001
0.001
0.001
0.712077
0.716079
0.757469
0.462865
0.597485
0.601229
0.632717
0.759057
0.828049
0.789073
0.698789
0.77918
0.807046
0.811537
0.730173
0.75931
0.001
0.001
0.001
0.00108553
0.001
0.001
0.00108715
0.0013362
0.001
0.001
0.001
0.001
0.001
0.001
0.001
0.00293856
0.00292853
0.00292645
0.001
0.001
0.001
0.00106468
0.001
0.001
0.001
0.00117407
0.001
0.001
0.001
0.001
0.001
0.001
0.00100048
0.001
0.001
0.00117467
0.001
0.001
0.001
0.001
0.001
0.001
0.001
0.001
0.001
0.325679
0.331149
0.345982
0.212849
0.22815
0.195411
0.187925
0.115205
0.113591
0.0287873
0.0283363
0.0157941
0.0133207
0.120441
0.122408
0.001
0.001
0.001
0.001
0.0288474
0.0260771
0.0477195
0.10469
0.186929
0.148478
0.221274
0.171114
0.001
0.001
0.00187044
0.0179046
0.001
0.001
0.001
0.001
0.00101
0.001
0.001
0.00142703
1.51564
1.46847
1.5469
1.50768
1.51681
1.56028
1.55105
1.60236
1.57917
1.62863
1.59478
1.56371
1.62878
1.5945
1.40909
1.40849
1.3993
1.41237
1.42614
1.43673
1.43711
1.44446
1.35099
1.35114
1.37422
1.35946
1.38984
1.39755
0.992331
0.916447
0.834288
0.909254
0.705737
0.796982
0.911795
0.916838
1.14251
1.14044
1.14345
1.0728
1.22936
1.27588
1.18734
1.14194
1.28187
1.28219
1.29583
1.28208
1.31898
1.34179
1.34996
1.35048
1.34968
1.34768
1.35075
1.35046
1.34841
1.34674
0.393115
0.391141
0.556125
0.631734
0.534097
0.454115
0.688824
0.63236
0.365253
0.390745
0.363292
0.277692
1.52514
1.56067
1.54406
1.5689
1.58749
1.57626
1.6109
1.62229
1.59945
1.61205
1.60225
1.6119
1.61654
1.63971
1.66257
1.68033
1.68094
1.73392
1.71015
1.75903
1.76496
1.63479
1.64788
1.76499
1.77343
0.001
0.001
0.001
0.001
0.001
0.001
0.001
0.001
0.00107907
0.001
0.001
0.001
0.001
0.001
0.001
0.001
0.0388915
0.001
0.0516097
0.0427716
0.0369251
0.115705
0.261539
0.158792
0.352312
0.343452
0.316344
0.259628
0.381135
0.434543
0.491511
0.472284
0.503114
0.485266
0.612369
0.554395
0.657396
0.653463
0.67695
0.684763
0.655796
0.713104
0.76135
0.73349
0.720323
0.742521
0.79222
0.783034
0.759668
0.808187
0.887412
0.892006
0.881457
0.905323
1.03582
0.947458
1.11829
1.14653
1.14394
1.21282
1.28654
1.36447
1.37053
1.38424
1.4298
1.4793
1.51435
1.51591
1.55451
1.52686
1.57913
1.59574
1.59408
1.59536
1.59382
1.5946
1.56199
1.59356
1.56165
0.001
0.001
0.00514218
0.001
0.001
0.001
0.001
0.001
0.001
0.001
0.001
0.0012916
0.001
0.00129085
0.00129089
0.00128992
0.00128789
0.001
0.00128874
0.00504869
0.001
0.001
0.001
0.001
0.001
0.00275332
0.00275295
0.001
0.001
0.00100217
0.001
0.001
0.001
0.001
0.00115882
0.001
0.00106458
0.001
0.00100986
0.001
0.001
0.001
0.00126236
0.001
0.001
0.001
0.001
0.001
0.001
0.001
0.001
0.001
0.001
0.001
0.001
0.00100194
0.00100992
0.001
0.001
0.001
0.00101167
0.001
0.001
0.001
0.001
0.00104347
0.001
0.00101
0.001
0.001
0.001
0.001
0.001
0.001
0.001
0.001
0.001
0.001
0.001
0.001
0.001
0.001
0.0015131
0.001
0.001
0.001
0.001
0.001
0.001
0.001
0.001
0.001
0.001
0.001
0.001
0.001
0.001
0.001
0.001
0.001
0.001
0.001
0.001
0.001
0.001
0.001
0.001
0.001
0.001
0.001
0.001
0.001
0.00111919
0.001
0.001
0.001
0.001
1.81738
1.80493
1.82231
1.81536
1.8249
1.82369
1.66316
1.66566
1.73291
1.7002
1.79168
1.81449
1.79025
1.67766
1.62666
0.711842
0.712112
0.713684
0.703636
0.711253
0.646323
0.686589
0.477243
0.529506
0.399088
0.394635
0.340854
0.345147
0.341048
0.001
0.001
0.001
0.00136698
0.147673
0.341648
0.176646
0.001
0.001
0.128819
0.001
0.00103208
0.001
0.001
0.001
0.001
0.001
0.00101523
0.00101567
0.001
0.00101439
0.001
0.001
0.001
0.713163
0.713068
0.715824
0.715786
0.713863
0.430947
0.540513
0.490044
0.603337
0.665798
0.691663
0.622408
0.704241
0.656435
0.655974
0.642764
0.001
0.0011581
0.001
0.001
0.001
0.001
0.001
0.00101945
0.001
0.001
0.00101342
0.001
0.001
0.001
0.001
0.001
0.001
0.001
0.001
0.00101624
0.001
0.001
0.001
0.001
0.001
0.001
0.001
0.001
0.001
0.001
0.001
0.001
0.001
0.001
0.001
0.001
0.001
0.001
0.00119058
0.001
0.001
0.001
0.001
0.001
0.00103698
0.001
0.00119309
0.001
0.001
0.001
0.001
0.001
0.001
0.001
0.001
0.001
0.001
0.322501
0.2528
0.234344
0.165028
0.163317
0.0739784
0.0672271
0.0576933
0.05101
0.0427777
0.0506795
0.001
0.001
0.001
0.001
0.0555732
0.0572416
0.001
0.001
0.001
0.001
0.148159
0.215403
0.132567
0.0221989
0.00903172
0.0819303
0.0136042
0.0968684
0.001
0.001
0.001
0.001
0.00182998
0.00181512
0.001
0.001
0.001
0.001
0.00100972
0.001
1.47869
1.46165
1.48792
1.4878
1.48806
1.50763
1.52868
1.548
1.54692
1.54783
1.63071
1.58724
1.55179
1.39889
1.3983
1.42577
1.41379
1.43712
1.43849
1.46179
1.44545
1.35074
1.35788
1.38138
1.36524
1.38084
1.38907
1.032
0.954392
0.877519
0.911771
0.858567
0.766845
0.949223
0.91445
1.1479
1.14542
1.10739
1.15107
1.23755
1.28432
1.14997
1.19444
1.28721
1.28413
1.30673
1.28757
1.32801
1.34647
1.34593
1.34536
1.3459
1.34478
1.34718
1.3455
1.345
1.34398
0.387522
0.446946
0.632861
0.61119
0.532604
0.616682
0.635684
0.710446
0.382044
0.377032
0.37189
0.292817
0.13166
0.171141
0.257436
1.59301
1.59721
1.62412
1.61578
1.63957
1.65085
1.65119
1.65077
1.68654
1.66654
1.67848
1.64432
1.6756
1.68659
1.71147
1.73003
1.74385
1.74154
1.79237
1.79352
1.81546
1.79307
1.70641
1.71138
1.82714
1.82468
0.001
0.001
0.001
0.001
0.001
0.00126649
0.00126639
0.001
0.001
0.001
0.001
0.00180876
0.00135927
0.001
0.001
0.001
0.00100232
0.001
0.0982492
0.0601172
0.001
0.155748
0.19183
0.208649
0.197692
0.29249
0.3726
0.249908
0.47638
0.405567
0.477328
0.487637
0.578728
0.51145
0.63463
0.672876
0.669496
0.668352
0.79929
0.75881
0.727532
0.782913
0.811421
0.805765
0.801011
0.786802
0.801348
0.806872
0.883115
0.930045
0.967276
0.919615
0.96712
0.989566
1.1335
1.06339
1.15679
1.14626
1.22459
1.30172
1.38637
1.38327
1.41731
1.45617
1.53275
1.51973
1.54553
1.54834
1.57679
1.58883
1.60492
1.59956
1.60865
1.60573
1.59479
1.60622
1.59307
1.59377
0.001
0.001
0.00108515
0.001
0.00103471
0.001
0.001
0.001
0.001
0.00129464
0.001
0.001
0.001
0.00129378
0.00129259
0.00129089
0.00128983
0.00128836
0.00128845
0.001
0.001
0.00100886
0.001
0.001
0.001
0.0010045
0.001
0.001
0.001
0.001
0.001
0.00105311
0.001
0.001
0.00100863
0.0012494
0.001
0.00149209
0.001
0.00343445
0.001
0.001
0.001
0.00101782
0.001
0.001
0.001
0.00100983
0.001
0.001
0.00105288
0.001
0.00100976
0.001
0.001
0.00100004
0.001
0.001
0.00313455
0.001
0.001
0.001
0.001
0.001
0.00109553
0.00109584
0.00109564
0.001
0.001
0.001
0.001
0.001
0.001
0.00103295
0.001
0.001
0.001
0.001
0.001
0.001
0.001
0.001
0.001
0.001
0.001
0.001
0.001
0.001
0.001
0.001
0.001
0.001
0.001
0.001
0.001
0.001
0.001
0.001
0.001
0.001
0.001
0.001
0.001
0.001
0.001
0.001
0.00101434
0.001
0.001
0.001
0.0012143
0.001
0.001
0.00115409
0.001
0.001
1.83686
1.85936
1.8686
1.82407
1.8296
1.81448
1.82377
1.71369
1.7335
1.75027
1.76521
1.76484
1.79957
1.82527
1.67317
1.70552
1.6234
1.66059
1.65337
0.707201
0.706465
0.609386
0.572654
0.668527
0.603316
0.609084
0.480589
0.504951
0.368919
0.345442
0.344101
0.341198
0.318621
0.001
0.001
0.259197
0.37103
0.146891
0.001
0.001
0.102801
0.100682
0.001
0.001
0.001
0.001
0.001
0.001
0.001
0.001
0.00126595
0.001
0.001
0.001
0.001
0.001
0.001
0.670524
0.713236
0.690923
0.664609
0.430758
0.434154
0.458117
0.523116
0.64338
0.641218
0.596548
0.641225
0.643388
0.00100999
0.001
0.001
0.001
0.001
0.001
0.00130022
0.00130243
0.001
0.00106652
0.001
0.00100946
0.001
0.001
0.00100978
0.001
0.001
0.00160356
0.001
0.001
0.001
0.001
0.001
0.001
0.001
0.001
0.001
0.001
0.00174363
0.001
0.001
0.001
0.001
0.001
0.001
0.001
0.001
0.001
0.001
0.001
0.001
0.001
0.001
0.001
0.001
0.001
0.00104034
0.001
0.001
0.001
0.001
0.00147091
0.001
0.001
0.001
0.001
0.001
0.001
0.001
0.001
0.001
0.001
0.001
0.237858
0.151303
0.156339
0.0964107
0.0914533
0.068557
0.0879001
0.0569905
0.092342
0.00205711
0.0204754
0.001
0.001
0.001
0.001
0.001
0.001
0.001
0.001
0.001
0.001
0.001
0.001
0.0695485
0.112157
0.001
0.001
0.001
0.113633
0.177695
0.133147
0.001
0.001
0.001
0.00150041
0.00104524
0.001
0.001
0.001
0.001
0.00100999
0.00101781
0.001
1.48799
1.47903
1.48793
1.505
1.48524
1.51618
1.53847
1.52142
1.53536
1.58922
1.53721
1.61891
1.58546
1.65394
1.38065
1.40247
1.39944
1.42027
1.40295
1.42768
1.4532
1.41904
1.34556
1.35469
1.3621
1.37163
1.37087
1.37176
1.08634
1.0065
0.896972
0.913277
0.817635
0.907153
0.920613
0.976906
1.15332
1.15398
1.1538
1.13076
1.24479
1.28918
1.21037
1.16543
1.29093
1.28934
1.29652
1.31449
1.34503
1.33377
1.34541
1.34588
1.34626
1.34562
1.34397
1.34431
1.34544
1.34602
0.469056
0.373807
0.6415
0.644548
0.555128
0.650029
0.648393
0.747341
0.37307
0.371662
0.354365
0.337806
0.27748
0.374502
1.60625
1.62538
1.6451
1.67957
1.67459
1.69454
1.70851
1.71665
1.72464
1.7117
1.71983
1.74112
1.76242
1.77495
1.77452
1.78414
1.80523
1.82403
1.83451
1.83458
1.84597
1.72284
1.71296
1.86554
1.88412
0.001
0.00108657
0.001
0.001
0.001
0.001
0.001
0.001
0.001
0.00180667
0.001
0.001
0.001
0.001
0.001
0.001
0.00132535
0.001
0.001
0.0639492
0.001
0.149802
0.230778
0.229958
0.136634
0.293848
0.305812
0.393489
0.454363
0.421133
0.501678
0.440888
0.639364
0.558557
0.6675
0.674126
0.682914
0.75085
0.873226
0.8851
0.819728
0.849347
0.884966
0.831362
0.940795
0.862926
0.839354
0.880564
1.00851
1.02367
1.08344
1.14128
1.01995
1.11518
1.25584
1.20937
1.27818
1.24424
1.44067
1.40313
1.47237
1.48488
1.55605
1.57072
1.62863
1.59933
1.6432
1.62961
1.64844
1.67952
1.65293
1.68249
1.68998
1.64904
1.63717
1.67946
1.67707
1.64846
0.001
0.001
0.00103091
0.001
0.001
0.001
0.001
0.00159322
0.001
0.00101378
0.001
0.001
0.001
0.001
0.001
0.001
0.00100968
0.00128717
0.001
0.001
0.00128417
0.00101894
0.001
0.001
0.00149974
0.001
0.001
0.001
0.001
0.001
0.00113232
0.001
0.001
0.001
0.001
0.001
0.001
0.00101499
0.001
0.001
0.001
0.001
0.001
0.001
0.001
0.001
0.00111333
0.00111281
0.00111065
0.001
0.001
0.001
0.001
0.0010014
0.00101
0.001
0.0010323
0.001
0.001
0.001
0.00100552
0.00109732
0.001
0.001
0.00104261
0.001
0.001
0.001
0.00105862
0.001
0.001
0.001
0.001
0.001
0.001
0.001
0.001
0.001
0.001
0.001
0.001
0.001
0.001
0.001
0.001
0.001
0.001
0.001
0.001
0.001
0.001
0.001
0.001
0.001
0.001
0.001
0.001
0.001
0.001
0.001
0.001
0.001
0.001
0.001
0.001
0.001
0.001
0.001
0.001
0.001
0.001
0.001
0.001
0.001
0.001
0.001
0.001
0.00121483
0.001
0.001
0.00113502
0.001
0.001
0.001
1.89079
1.87513
1.89069
1.86328
1.85145
1.88058
1.86533
1.84344
1.86364
1.72419
1.75056
1.74961
1.74922
1.81848
1.8632
1.88334
1.782
1.66097
1.69296
1.66225
1.66352
1.65476
1.69796
1.58453
0.473377
0.56948
0.471689
0.512633
0.513893
0.420248
0.418963
0.422246
0.423934
0.422427
0.397781
0.316103
0.291637
0.206338
0.20797
0.320304
0.430304
0.001
0.001
0.0976712
0.102458
0.001
0.0010936
0.0288843
0.001
0.001
0.00100153
0.001
0.00399417
0.001
0.001
0.001
0.00399898
0.001
0.00127495
0.001
0.00126237
0.576794
0.504937
0.481638
0.564571
0.431584
0.452066
0.589872
0.523316
0.568568
0.640308
0.63982
0.00114958
0.001
0.001
0.0011859
0.001
0.001
0.00130156
0.00130322
0.001
0.001
0.00100995
0.001
0.001
0.001
0.001
0.001
0.00172502
0.00173828
0.001
0.001
0.0017242
0.001
0.0014716
0.001
0.001
0.001
0.001
0.00132027
0.001
0.00174338
0.00135672
0.001
0.001
0.001
0.001
0.001
0.001
0.001
0.001
0.001
0.001
0.001
0.001
0.00101
0.001
0.001
0.001
0.001
0.001
0.00126365
0.001
0.001
0.001
0.001
0.00149137
0.001
0.001
0.001
0.001
0.001
0.001
0.001
0.001
0.001
0.001
0.001
0.001
0.001
0.001
0.001
0.001
0.001
0.001
0.0919152
0.0950939
0.126781
0.0959841
0.0923172
0.0900052
0.0906826
0.001