/*--------------------------------*- C++ -*----------------------------------*\
  =========                 |
  \\      /  F ield         | OpenFOAM: The Open Source CFD Toolbox
   \\    /   O peration     | Website:  https://openfoam.org
    \\  /    A nd           | Version:  8
     \\/     M anipulation  |
\*---------------------------------------------------------------------------*/
FoamFile
{
    version     2.0;
    format      ascii;
    class       volScalarField;
    location    "1080";
    object      nut;
}
// * * * * * * * * * * * * * * * * * * * * * * * * * * * * * * * * * * * * * //

dimensions      [0 2 -1 0 0 0 0];

internalField   nonuniform List<scalar> 
526318
(
0.000126899
4.6456e-05
0.000111467
0.000151861
0.000176634
0.000188364
5.56635e-05
0.000223102
0.00016553
0.000156252
0.000207791
0.000280186
0.000221403
0.000341729
0.000256138
0.000256925
0.0002005
0.000191897
0.000241297
0.000195444
0.00032132
0.000271597
0.000170296
0.000266971
8.72228e-05
0.000120188
9.30685e-05
0.000232651
0.000128885
0.000145098
0.00019351
0.000198947
0.000206855
0.00033284
0.000119785
0.000367458
0.000362728
0.000319606
0.000372159
0.000360355
0.000344091
0.000180264
7.16311e-05
8.4446e-05
0.000150988
0.000137724
4.73468e-05
0.000248499
0.000190344
0.000320302
0.000323582
0.000407284
0.00028646
0.00025426
0.000172347
5.22893e-05
2.53035e-05
0.000258417
0.00029739
0.000401511
0.000353526
0.000507616
0.000458729
0.00032089
0.000298152
0.000484523
0.000397007
0.000538683
0.000453693
0.000407191
0.000594062
0.000616313
0.00067905
0.000509158
0.000643686
0.00046806
0.000675465
0.000563663
0.00055021
0.00071016
0.000619701
0.000695563
0.000806554
0.000650373
0.000755016
0.000737877
0.00067087
0.00092752
0.000875535
0.000783176
0.000888445
0.000998695
0.000868217
0.000782967
0.00103368
0.000926111
0.000981117
0.00105211
0.000946648
0.000975132
1.3688e-05
0
0.00010636
7.0451e-05
0.000178197
0
0.000266508
0.000138881
0.000256
0.000134227
9.37259e-05
0.000250413
0.000216442
9.17184e-05
0.000221632
0.000185709
0.000288448
0.000255369
0.000277733
0.000960161
0.00101127
0.00109354
0.000950596
0.00104906
0.00101593
0.00113864
0.00111906
0.0010578
0.00103177
0.00105721
0.00114535
0.00110714
0.000940875
0.000998776
0.0010224
0.000979079
0.00109729
0.000904454
0.00100492
0.000945203
0.000930286
0.000932814
0.0010497
0.000983942
0.000915558
0.000925154
0.000916506
0.000901818
0.000908003
0.000894022
0.000928105
0.000873083
0.000894853
0.00091324
0.000883047
0.000848963
0.000883679
0.000925418
0.000825111
0.000707257
0.000787776
0.000741985
0.000863233
0.000564893
0.000369259
0.000466841
0.000225132
0.000605547
0.00044793
0.000487306
0.000634865
0.000558076
0.000664258
0.000797844
0.000644464
0.000726944
0.000963174
0.000959518
0.000820432
0.000873639
0.00103105
0.000869708
0.00114043
0.00123159
0.00113332
0.00121772
0.00110577
0.00110187
0.00117529
0.00110791
0.00115942
0.00107115
0.00113954
0.00109383
0.00100604
0.000919932
0.00102932
0.000947948
0.000859899
0.000829097
0.000898137
0.000995661
0.000842297
0.000804844
0.000810839
0.000787192
0.000756764
0.000790815
0.000841847
0.000739203
0.000364533
1.69824e-05
9.91953e-05
0.000252369
0.000319662
0.00028919
0.000256166
0.000124625
0.000336934
0.00023118
0.000171309
0.000139409
4.36544e-05
0.000161855
0.000516102
0.000511006
0.000381886
0.000345534
0.000220112
0.000104495
0
0.000248171
0.000299606
0
0
0
0
0
0
0.000379331
0.000370134
0.000354537
0.000342378
0.000487238
0.000361385
0.000460621
0.000602852
0.000658508
0.000520561
0.000646545
0.000549853
0.000645702
0.000599859
0.000683282
0.000687169
0.00085923
0.000847998
0.000881358
0.000884726
0.000926426
0.000918298
0
0
0
0
4.26778e-06
0
6.52746e-05
9.26986e-05
0.000223888
0.000176658
0.000212636
0.000196771
0.000125131
0.000237742
0.000207774
0.000227392
0.000261145
0.000323541
0.000379424
0.000308495
0.000919749
0.000921393
0.000893307
0.000934237
0.000924943
0.00089315
0.000912859
0.00086926
0.000885538
0.000937237
0.00093775
0.000924331
0.000645927
0.000709217
0.000502699
0.000579192
0.000589938
0.000524737
0.000489762
0.000538104
0.000616127
0.000672352
0.000641618
0.000600147
0.000576906
0.000882102
0.000916331
0.000823043
0.000822177
0.000745396
0.000709126
0.000647841
0.000667836
0.000693201
0.000657802
0.000628086
0.00044322
0.000500529
0.000466251
0.000364321
0.00025488
0.000458284
0.00058002
0.000402996
0.000567476
0.000553894
0.000450348
0.000612372
0.000499282
0.0005634
0.000750991
0.000739069
0.0006107
0.000895554
0.000699084
0.00112999
0.0010539
0.000854617
0.00119573
0.00125653
0.00115683
0.0011435
0.00121506
0.00116652
0.00120843
0.00120626
0.00113654
0.00108864
0.00116175
0.00104492
0.00110431
0.000984572
0.00104956
0.00100246
0.000901584
0.000900342
0.000775198
0.000829385
0.000723163
0.000730564
0.00080981
0.000664819
0.000693212
0.000713015
0.000645839
0.00063369
0.000625021
0.000468811
0.000396132
0.000493604
0.000560285
0.000559964
0.000430252
0.000373385
0.000433344
0.000433116
0.00018476
0.000229769
0.000275249
0.000232172
0.000169396
0.000188824
0.000241708
0.000410923
0.000398084
6.49984e-05
0.000354636
0.000323377
0.00021535
0.000195031
0.00033209
0.000145514
0.000306292
0.000601856
0.000480226
0.000435919
0.000449981
0.000185178
0
0
0.000102037
0
0.000219319
6.03973e-05
0
4.28951e-09
0
0
0
0
0
0
0
0
0.000385952
0.000318284
0.000359643
0.000314548
0.000470784
0.000343989
0.00058287
0.000440153
0.00049937
0.000596249
0.000607085
0.000554621
0.000620956
0.000652481
0.000750249
0.000693282
0.000795028
0.000779156
0.000840188
0.000838074
0.000853262
0.000837787
0
6.60718e-08
5.29029e-08
0
0
0
0
0
7.09592e-09
4.61167e-08
0
0
0
0
2.87536e-09
0
0
0
4.8785e-09
0
0
0
0.000153568
6.89614e-05
3.6141e-05
2.13693e-05
0.000179091
0.000172586
0.000219068
0.000219977
0.000248282
0.000230859
0.000345589
0.000283909
0.000397326
0.00032465
0.00037415
0.000318261
0.000794546
0.000807431
0.000849384
0.00080962
0.000860586
0.000900421
0.000913789
0.000868527
0.00092836
0.000869364
0.000840085
0.000854613
0.00063078
0.000657504
0.000660139
0.00054837
0.000658941
0.00043476
0.00066476
0.000493035
0.000583875
0.00075531
0.000636009
0.000720751
0.000753831
0.000668515
0.000635906
0.000617414
0.00061621
0.000577662
0.000580419
0.000410141
0.000403659
0.000412691
0.0003756
0.000385279
0.000388402
0.000338304
0.000360165
0.000426927
0.000364856
0.000406669
0.000329729
0.000364401
0.000407196
0.000269095
0.000296688
0.000447639
0.000301551
0.000399005
0.000465401
0.000328306
0.000443522
0.000448941
0.0003693
0.00057443
0.000424215
0.000479177
0.000594795
0.000524103
0.000629653
0.00076569
0.000635896
0.000994461
0.000775869
0.000785358
0.00104309
0.00114804
0.00114364
0.00121202
0.00127165
0.00119221
0.00123886
0.0011636
0.00121963
0.00110247
0.00118556
0.00103441
0.00111131
0.00103973
0.000966153
0.000884266
0.000946812
0.000818379
0.000881595
0.000765687
0.000657119
0.000841774
0.000751828
0.000632066
0.000630034
0.000618428
0.000658771
0.000564304
0.000583606
0.000500072
0.000510964
0.000521283
0.000530937
0.000452905
0.000447946
0.000407241
0.000403679
0.00038563
0.00042679
0.000381984
0.000215973
0.00030174
0.000102025
0.000269136
0.000181846
0.00021938
0.000173429
0.00028106
0.000384603
3.5483e-05
0.000354306
9.21382e-05
0.0001938
0.000446574
0.000126026
0.000578675
0.000599179
0.000506232
0.000324677
0.000297441
2.49642e-05
0
0
2.13453e-05
0
9.12862e-05
0.000289309
0
0
0
0
0
0
0
0
0
0
0
0
0
0
0
4.40309e-09
0
0
0
0
3.05269e-09
0
0
1.79236e-09
2.07864e-09
2.74113e-09
0
0
0
0
0
0
0
0
0
0
0
0
0
0
0.000294307
0.0003918
0.000360711
0.00029922
0.000485534
0.0003429
0.000429624
0.000561149
0.000494325
0.000554918
0.000596462
0.00054974
0.000621726
0.000670607
0.000676105
0.000712571
0.000729932
0.000689033
0.000715261
0.000714717
0.000744588
0.000748138
0
0
0
0
0
0
0
0
0
0
0
0
0
0
0
0
0
0
0
0
0
0
0
0
1.44479e-08
0
0
0
0
0
7.09357e-05
0
0.000105735
5.64212e-05
8.74013e-05
7.30053e-05
0.000190834
0.000218163
0.000260864
0.000221143
0.0003321
0.000259911
0.000308895
0.000409504
0.000391105
0.000316747
0.000304607
0.000354896
1.40251e-09
0
0
0
0
0
0
0
0
0
0
0
0
0
0
1.19986e-08
0
0.000744399
0.000770148
0.000788267
0.000851644
0.000901733
0.000843284
0.000812176
0.000755943
0.000730367
0.0006601
0.000635545
0.000620632
0.000608522
0.000633241
0.0005875
0.000487694
0.000400968
0.000491801
0.000382532
0.000423157
0.000474468
0.000403586
0.000419011
0.000487201
0.000598007
0.000559483
0.000479238
0.000523898
0.000363516
0.00035625
0.000243741
0.000298979
0.000383853
0.000372771
0.000350081
0.000389453
0.000349352
0.000356171
0.000350977
0.000340611
0.000322368
0.000418425
0.000362576
0.000340883
0.000328363
0.000298713
0.000288859
0.000392789
0.000293004
0.000376619
0.000360906
0.000251584
0.00033311
0.000180864
0.000270805
0.000343153
0.000271485
0.000342735
0.000335682
0.000301088
0.000345374
0.000434865
0.000353945
0.000468197
0.000286455
0.000393456
0.000567657
0.000382392
0.000637172
0.000577866
0.000690441
0.000802454
0.000680109
0.000935248
0.00114618
0.00101226
0.00117971
0.00120561
0.00123794
0.00126639
0.00123782
0.00116589
0.00107747
0.00116422
0.00109802
0.00100104
0.00092329
0.00100679
0.000928546
0.000870975
0.000873095
0.000809419
0.000759586
0.000681327
0.000764662
0.000802778
0.000618015
0.00057795
0.000710239
0.000647802
0.000550839
0.000533081
0.000472464
0.000490541
0.000509698
0.000523657
0.000432777
0.000461082
0.000396736
0.000461619
0.00039315
0.000440259
0.000460601
0.000360691
0.000364874
0.000372198
0.000454836
0.000376865
0.000417037
0.000403683
0.000408582
0.000451828
0.00040702
0.00040213
0.000457164
0.000418417
0.000433266
0.000421812
0.000456011
0.000409758
0.000419185
0.00044364
0.000438881
0.000400647
0.000397694
0.00041913
0.000430098
0.000358302
0.000397972
0.000377918
0.000345999
0.000323094
0.00035426
0.000307796
0.000339535
0.000288707
0.0003093
0.000307518
0.000309112
0.000283669
0.000305634
0.000302278
0.000283461
0.000242604
1.52526e-05
0.000115734
0.000132624
0.00024894
0.000211609
0.000180101
0.000185939
0.000189451
0.00014841
0.000138449
0.000230732
1.96216e-05
0.000103152
0.000239691
0.000534645
0.000615442
0.000445661
0.000261312
0.000199834
0.000139661
0.000125565
0.000152011
0
4.16742e-09
0
0
0
0
2.95782e-09
0
0
0
0
1.03879e-10
0
0
0
0
0
0
0
0
3.8587e-09
0
0
0
0
0
0
0
0
0
0
0
0
0
0
0
0
0
0
3.05389e-08
0
0
1.4138e-08
0
1.0394e-09
0
0
1.18233e-09
3.0624e-10
0
2.86902e-09
8.78818e-10
0
0
0
0
0
0
0
0
0
0
0
0
0
0
0
0
0
1.09661e-08
0
0
0.000405595
0.000277974
0.000266659
0.000353952
0.000340829
0.000477464
0.000529127
0.000427911
0.000541951
0.000485359
0.000557783
0.000592176
0.000581518
0.000638959
0.000662079
0.000710846
0.000723472
0.000579733
0.000622904
0.000575736
0.00061916
0.00064244
0
0
1.55681e-09
2.42534e-09
0
0
0
0
0
1.01331e-09
0
0
0
0
0
0
0
0
0
0
0
0
3.13441e-09
4.28369e-11
0
0
2.86672e-05
0.000229964
5.90027e-05
7.11654e-05
0.0001389
0.000124253
0.000254635
0.000175698
0.000310819
0.000205399
0.000269414
0.000388862
0.000286252
0.00037501
0.000341258
0.000298476
0.00033909
0.000271882
9.41692e-10
0
3.94375e-09
0
0
2.46234e-10
0
0
4.44275e-10
0
0
0
0
0
0
0
0
0
5.46866e-09
0
0
0
0
0
6.13204e-09
0
0.000721249
0.000671735
0.000739328
0.00064707
0.000683033
0.000632107
0.000559854
0.000572559
0.000558803
0.000506597
0.000484591
0.000421188
0.000461937
0.00043862
0.000415687
0.00038279
0.000395304
0.000395583
0.000422187
0.000346517
0.000221807
0.000223835
0.000291056
0.000251276
0.000340044
0.000292457
0.000182965
0.00016112
9.14673e-05
0.000135866
0.000190764
0.00016762
0.000351612
0.000390856
0.000298022
0.000314604
0.000307503
0.000313534
0.000303048
0.000329321
0.000407106
0.000399845
0.00038153
0.000401227
0.000430376
0.000383332
0.00039589
0.000422469
0.000368534
0.00037498
0.000317921
0.00033835
0.000322799
0.000298764
0.000316722
0.00028668
0.000313662
0.000314932
0.000294871
0.000287546
0.00028673
0.000314269
0.000318679
0.000317511
0.000269599
0.000259357
0.000211465
0.000358942
0.000320488
0.000364911
0.000362193
0.000200979
0.000107597
0.000204456
0.000158174
0.00024136
0.000261836
0.000268846
0.000338411
0.000253302
0.000267917
0.000266647
0.000211913
0.000127614
6.80272e-05
0.000227551
0.00039548
0.000307463
0.000145354
0.000368051
0.000719701
0.000499642
0.00029016
0.000775832
0.00101327
0.000803438
0.00121159
0.00105341
0.00118895
0.00121723
0.00113943
0.00120812
0.00113838
0.00108553
0.000991362
0.00106776
0.000988104
0.000930936
0.000861217
0.000944495
0.00087371
0.000787556
0.000765815
0.00076716
0.00078038
0.000785877
0.000585375
0.000638696
0.000726822
0.000675427
0.000570591
0.000568061
0.000454428
0.000466862
0.00049244
0.00053181
0.00039841
0.000499564
0.000487941
0.000418738
0.000400705
0.000495316
0.000353399
0.000512054
0.000423412
0.000467415
0.000461849
0.000380848
0.000437404
0.000502201
0.000468187
0.000481735
0.000462093
0.000461896
0.000440524
0.000428842
0.000403747
0.000388909
0.000350092
0.000350043
0.000320384
0.000306356
0.000290343
0.000321837
0.000306125
0.000304738
0.000332381
0.000335323
0.000321859
0.000348381
0.000321287
0.000326089
0.000350961
0.000355789
0.000325493
4.62908e-05
0.000137036
7.28008e-05
9.69675e-05
0.000144526
0.000150723
8.10525e-05
0.000139996
0.0001294
0.000162735
0.00016046
3.78394e-05
8.87573e-05
0.00016351
0.000299723
0
1.03764e-06
0.000255527
0.000129927
0.000232871
0.000353832
0.000196652
0.000190075
9.28436e-05
0.000212437
0
0
0
0
8.41836e-09
1.80933e-08
0
0
1.12704e-08
0
0
0
0
0
0
0
0
4.62111e-09
0
0
0
0
0
0
0
0
0
0
0
0
1.84155e-09
0
1.26621e-08
0
0
0
0
0
0
1.09212e-08
0
0
1.46109e-08
0
0
0
0
7.8195e-12
0
1.24399e-09
0
5.65647e-09
0
0
0
0
0
0
0
0
0.000403508
0.000258113
0.000241968
0.000371475
0.000342404
0.000473511
0.000434128
0.000520243
0.000475177
0.00052852
0.000549755
0.000500443
0.00055206
0.000496942
0.000605512
0.000561324
0.000582679
0.0005773
0.000551285
0.000525579
0.000565165
0.000574454
1.68934e-09
0
1.47564e-09
0
0
0
0
0
4.16738e-09
0
0
0
1.50645e-09
3.14602e-09
0
0
0
0
0
0
0
0
0
7.37751e-09
0
0
0.000131896
0.000100149
4.14318e-05
9.91857e-05
0.000159681
0.000103931
0.000250692
0.000145723
0.000206279
0.000327968
0.000372905
0.000250426
0.00034625
0.000269925
0.000352503
0.000250286
0.000274855
0.000327276
0
0
0
0
0
0
0
0
0
0
0
0
0
0
0
0
0
0
0
8.03008e-10
0
7.4733e-10
0
0
0
0
0
0
0
0
0
0.000542729
0.000506133
0.00051511
0.000542655
0.000538614
0.000481658
0.000383844
0.000466365
0.000457847
0.000448492
0.000445824
0.000297618
0.000265242
0.000103854
0.000149723
0.000369954
0.000336608
0.000356649
0.000341426
0.000365087
0.000407116
0.000276697
0.000373661
0.0001804
0.00019031
0.000194674
0.000264057
7.99494e-05
5.6045e-05
4.47052e-05
7.0373e-05
0.000119427
5.45421e-05
2.73856e-05
4.11057e-05
0.000336142
0.000355256
0.000316375
0.000293621
0.000320503
0.000317988
0.000305869
0.000311415
0.000304725
0.000302239
0.000302421
0.000300039
0.000288906
0.000289174
0.000355253
0.000357696
0.000328674
0.00032609
0.000340262
0.000356402
0.000314923
0.000320417
0.000335789
0.000290971
0.000351048
0.000297832
0.000358062
0.000290238
0.000284148
0.000331192
0.000311868
0.000323425
0.00034516
0.000351559
0.000327897
0.000348444
0.00037903
0.000283386
0.000287895
0.000253246
0.000274958
0.000311837
0.000339406
0.000421932
0.000439625
0.000452793
0.000406981
0.000377565
0.000469559
0.000364366
0.000409138
0.000360628
0.000366613
0.000361683
0.000337953
0.000354218
0.00032039
0.000341987
0.000307967
0.000325605
0.00030128
0.000338176
0.000305921
0.000289364
0.000272092
0.000376315
0.000219787
0.00026156
0.000228249
0.000217063
0.00034374
0.000222104
0.000234306
0.000274792
0.000360986
0.000320494
0.000357379
0.000348889
0.000321266
0.000313269
0.000339154
0.000298681
0.000338099
0.000298561
0.000324226
0.000289472
0.000300563
0.000267223
0.000288963
0.000283091
0.000263976
0.000293703
0.000153489
0.000105041
9.29196e-05
0.000207313
0.000193578
0.000234109
0.000324295
0.000221419
0.000110799
0.000113735
0.0001203
0.000143429
0
7.04021e-05
0
0
0.000149913
0
0.000619817
0.000274495
0.000206222
0.000676923
0.00086145
0.000916222
0.00104299
0.000920754
0.00112703
0.000986528
0.00108405
0.00107043
0.00109129
0.00104693
0.00101347
0.000979271
0.000962364
0.000979724
0.000892039
0.000948822
0.000782122
0.000837965
0.000752419
0.000720712
0.000778806
0.000815707
0.000620991
0.000627655
0.000685706
0.000645642
0.000590479
0.000598435
0.000450031
0.000496057
0.000533506
0.000536129
0.000566551
0.000431021
0.00045656
0.000487758
0.000339978
0.000517094
0.000364363
0.000451908
0.000462341
0.000414947
0.000453501
0.000515735
0.00049973
0.000513575
0.000504803
0.00049191
0.000473554
0.000488806
0.000457766
0.000436065
0.000399744
0.000407523
0.000361511
0.000352852
0.000308848
0.000333056
0.000343225
0.000292051
0.000353748
0.000313273
0.000323545
0.000127307
0.000254236
0.000199448
8.81355e-05
0.000118666
0.000118237
7.19215e-05
0.000110776
6.75574e-05
6.59552e-05
0.000123685
1.84292e-05
0
6.3177e-05
9.02031e-05
0
0
0
2.39256e-06
0.000297035
0.000129311
0.000277039
0.000279773
0
0
0
0
0
4.04754e-08
2.36611e-08
7.86431e-09
0
1.46391e-10
0
0
0
0
0
0
0
0
1.20134e-08
2.38823e-08
0
0
0
0
0
0
0
0
2.69437e-07
0
9.55965e-10
0
0
0
0
0
0
0
0
0
0
4.92033e-10
0
0
0
0
3.06729e-09
0
0
0
0
0
0
0
0
5.71213e-09
0
0
0
8.41045e-09
0
0
0
0
0
0
1.34778e-08
0
0
0
0
1.16414e-08
0.000306248
0.000282626
0.000295829
0.000286572
0.000292435
0.000267841
0.000255072
0.000430152
0.000393143
0.0002267
0.000340259
0.000482819
0.00050969
0.000409521
0.000414367
0.000478277
0.000446843
0.000485812
0.000518216
0.000478907
0.000454987
0.00044065
0.00048076
0.00047874
0.000513852
0
0
0
0
0
0
0
0
0
0
0
1.59097e-09
0
0.000119358
8.04107e-05
0.000145142
1.56304e-09
0
0
0
0
0
0
0
0
0
0
0.000141393
8.38545e-05
0.000111549
0.000220876
0.000219083
0.000304212
0.000199274
0.000268141
0.000146772
0.000326044
0.000206527
0.000244691
0.00034016
0.000313541
0.000239073
0.000293503
0
6.45618e-09
0
0
0
0
0
0
0
0
0
0
0
1.12175e-08
0
0
0
2.6311e-09
0
1.22315e-09
0
0
0
0
0
0
0
0
0
0
1.45671e-08
0
0
1.11939e-08
0
7.70976e-09
3.40606e-09
0.000411512
0.000360443
0.0003979
0.000454742
0.00042891
0.000442893
0.000366384
0.000297984
0.000294135
9.99641e-05
0.000139659
0.000370119
0.000397755
4.67997e-05
3.5195e-05
1.82679e-05
5.79913e-05
0.000213218
0.000160657
0.000200331
0.000185699
0.000248058
0.000253389
0.00025494
0.00021517
0
0
8.65347e-06
5.05493e-05
0
6.21069e-07
0
0
0
0
0
0
0.00031665
0.000320162
0.000319557
0.000319813
0.000309657
0.000322353
0.000290044
0.000303283
0.000330285
0.00035647
0.000348994
0.000313709
0.00030487
0.000330258
0.000295459
0.000327223
0.000315798
0.00033697
0.000340575
0.000321054
0.000323323
0.000340902
0.000344161
0.000381536
0.000274517
0.000291679
0.000253349
0.000214114
0.000328174
0.000322015
0.000515994
0.000254565
0.000679622
0.000405877
0.000315819
0.000425005
0.000384502
0.000453805
0.000367327
0.000401491
0.000400936
0.000413102
0.000396468
0.000409602
0.000382363
0.000365949
0.000399359
0.000346511
0.000389874
0.000311412
0.000335221
0.000368415
0.000329135
0.000153807
0.000231804
0.000211001
0.000252462
0.000163757
0.000202494
0.000148774
0.000205454
0.000205117
0.00025837
0.000246684
0.000218802
0.000345714
0.000355938
0.000309208
0.000342666
0.000312003
0.000311399
0.000333208
0.000297614
0.00031806
0.000304429
0.000281668
0.000265437
0.000283451
0.000266369
0.000238121
0.00022693
0.000262265
0.000259862
0.000235133
0.000317855
0.000289472
0.000297384
0.000227036
0.000253886
0.000235579
5.21723e-05
5.82312e-05
8.9939e-05
0.000100578
0.000169309
0.000260867
4.80659e-07
3.55389e-05
3.42502e-05
0
3.19463e-08
0
0
8.1172e-09
0
6.50586e-09
0
7.19126e-06
0.000355605
9.40058e-05
4.03293e-05
0.000624555
0.000820117
0.000605619
0.00112402
0.00100106
0.000788866
0.000943634
0.000960047
0.00101586
0.000983974
0.00094828
0.000973903
0.000973207
0.0009074
0.00094851
0.000829206
0.000896152
0.000771847
0.000953423
0.000681795
0.000742445
0.000757589
0.000702186
0.000624701
0.000635834
0.000672723
0.000685104
0.000607383
0.000574531
0.000470738
0.00058152
0.000527404
0.000571985
0.000489317
0.000607844
0.000411228
0.000642809
0.000188385
0.00103054
0.000423431
0.000584892
0.000505474
0.000557122
0.000556457
0.000535437
0.000565753
0.000547783
0.000523144
0.000489341
0.000516102
0.000470722
0.000460734
0.000426763
0.000426773
0.000372331
0.000385001
0.000344053
0.000313166
0.000347601
0.000296253
0.00031633
0
0
0
0
1.45244e-05
0.000100154
0.000174133
0.000131466
4.99506e-06
0
0
0
0
0
0
0
0
0
0
0
0
0
0
0
0
0
0
0
4.5927e-08
3.07612e-08
0
0
0
0
8.72213e-09
0
0
0
0
0
1.96221e-08
0
1.98596e-08
0
0
0
0
0
0
0
0
1.26222e-07
0
0
0
4.63903e-09
6.06217e-08
0
7.58238e-10
3.16259e-09
0
0
0
0
1.53641e-09
5.44501e-09
0
0
4.39837e-09
4.5635e-09
0
0
0
0
3.89869e-10
0
1.457e-09
0
0
0
0
0
2.8842e-09
0
0
0
0
0
0
0
0
0
0
0
7.38044e-08
0
0
0
0
0
0
0
2.96448e-09
0.000290392
0.000276086
0.000303863
0.000277066
0.000311684
0.000217841
0.000269585
0.000186865
0.000198925
0.00027976
0.000434875
0.000233395
0.000190301
0.000351007
0.000298647
0.000440638
0.0004404
0.000354461
0.000464993
0.000406097
0.000422873
0.000460837
0.000399186
0.000453433
0.000384105
0.000366701
0.000399751
0
0
0
0
0
0
0
7.89119e-05
0.00014582
6.93455e-05
0
0
0
0
3.2724e-05
0
1.69919e-09
0
0
8.44821e-10
0
0
0
0
0
0.000160634
0.000217854
0.00011469
0.000166764
0.000126729
0.000226232
0.000126403
0.000205083
0.000132662
0.000151507
0.000260101
0.000274062
0.000185451
0.000165584
0.000238316
0.000209234
0
0
0
2.94867e-09
0
0
3.68402e-09
2.77471e-09
0
0
0
0
0
0
0
1.31434e-08
1.03041e-08
4.27142e-09
0
0
0
1.79334e-09
0
0
0
2.6293e-09
0
0
0
0
0
0
0
0
0
3.69927e-09
0
0
0
0
0
0
0
0
0
0.00034414
0.000352361
0.000324272
0.000283883
0.000309683
0.000259656
0.000271498
0.000156849
0.000154222
3.88222e-05
5.49554e-05
2.23742e-05
2.16831e-05
0.000175044
0.000165786
0
0
0
0
3.60885e-05
5.25621e-05
6.7711e-05
0.00013764
0.000201462
0.000218283
0.000172871
0.000187993
0
0
9.79789e-07
1.76302e-05
0
0
0
0
0
0
0
3.04636e-09
0.000303269
0.000315858
0.00031081
0.000321759
0.000318341
0.00030469
0.000299301
0.000294155
0.000287045
0.000296706
0.000277079
0.00028605
0.000273825
0.000278147
0.000348331
0.000326994
0.000347969
0.00032251
0.00034203
0.00031355
0.000320332
0.000286066
0.000319135
0.00034194
0.000320488
0.000344675
0.000353155
0.00033433
0.000306974
0.000351759
0.000270589
0.000302338
0.000203933
0.000251288
0.000318841
0.000322734
0.000497489
0.000434575
0.000398941
0.000432231
0.000442645
0.000401524
0.000368428
0.000479288
0.000421681
0.000470844
0.0004251
0.000461385
0.000440363
0.000418836
0.000435645
0.000407869
0.000384564
0.000422814
0.000345554
0.000321036
0.000352605
0.000386548
0.000171536
0.000185988
0.000143849
0.000212913
0.000159001
0.000130395
0.000204927
0.000150372
0.000202145
0.000182688
0.000213116
0.000185588
0.000311814
0.000316705
0.000325282
0.000325105
0.000313312
0.000304435
0.000308289
0.000298452
0.00028475
0.000273513
0.000263961
0.000240346
0.000252906
0.000215994
0.000241819
0.000198457
0.000234331
0.000220413
0.000199956
0.000199879
0.000192346
0.000260302
0.000268987
0.000157974
0.000168198
0
0
0
0
0
0
0
0
3.35453e-09
0
0
0
0
0
0
0
4.85525e-05
0
7.42403e-05
0.00010346
7.99248e-05
0.000342969
0.00065939
0.000342691
0.00087425
0.000955128
0.000870076
0.000578599
0.000910428
0.000883485
0.000941829
0.000890609
0.000859272
0.000886139
0.000813475
0.00081196
0.000772305
0.000810594
0.00114776
0.000820765
0.000747716
0.00081108
0.00074249
0.000735865
0.000653123
0.000687317
0.000789767
0.000756107
0.000643913
0.000615743
0.000519072
0.000592639
0.000587
0.000635219
0.000575367
0.000513547
0.000510784
0.000607698
0.000726371
0.000537017
0.000613917
0.000587935
0.000609871
0.000581468
0.000593606
0.000573253
0.000574957
0.000565971
0.000541818
0.000548275
0.000509034
0.000520672
0.00046244
0.000476175
0.00039398
0.000439804
0.000416244
0.000311129
0.000259433
0
0
9.87334e-07
0
0
0
0
0
0
0
0
1.66739e-09
0
1.32092e-08
1.35699e-08
1.64779e-08
1.53174e-08
0
7.89725e-09
3.75294e-07
0
0
0
0
0
1.48888e-08
9.97006e-09
0
0
0
0
0
0
0
7.60177e-09
0
4.11175e-10
0
0
0
0
0
2.25626e-08
0
0
0
0
0
0
0
0
0
0
0
0
0
0
0
0
0
2.53492e-09
0
0
0
0
5.61419e-09
0
0
0
0
0
0
0
0
0
0
0
0
0
0
0
0
9.63185e-09
0
0
0
0
0
0
0
0
0
0
0
0
0
0
0
0
0
0
0
0
0
0
0
0
0
0
0
0
0
1.24329e-09
0
0
0
0
0.000151862
0.000120568
0.000146682
0.000246174
0.000206723
0.000168085
0.000280225
0.000314468
0.000297265
0.000279653
0.000241749
0.00020074
0.000290425
0.000274239
0.000271332
0.000386245
0.000192957
0.000165086
0.00026846
0.000426402
0.000359521
0.000441211
0.000363301
0.000448451
0.000334044
0.0003743
0.000351425
0.000318735
0.000372455
0
0
0
3.30938e-09
9.20112e-05
0.000120295
8.19055e-05
0
0
0.000176203
0
3.73521e-09
0
0
0
0
0
1.23378e-09
9.54678e-10
0
2.85103e-10
0
0
0
0.000129543
0.000213759
0.000253295
0.000201239
8.53739e-05
0.000150568
0.000107725
0.000188506
0.000105662
9.33552e-05
0.000178789
0.000211698
0.00012612
0.000209951
0.000121519
0.000180846
0
1.0427e-09
0
0
0
0
0
2.46524e-10
0
0
1.48618e-09
0
0
0
0
0
0
0
0
2.1937e-10
0
0
0
0
0
0
0
0
0
0
0
0
0
0
0
0
0
0
7.15176e-10
0
0
0
0
0
7.05939e-09
0
1.09982e-08
0
0
0
0
0
0
0
0
0
0
0.000294386
0.000230724
0.000273357
0.000210803
0.000188565
0.000122896
9.33591e-05
6.34895e-05
8.89624e-05
5.7527e-05
0.000102252
0
0
0
0
3.06655e-05
7.27343e-05
0
0
0
0
0.000154108
0.000157551
0.000131961
1.89323e-05
1.3417e-05
0.000115122
1.82018e-05
0.000135496
0
0
0
0
5.79964e-08
1.46095e-08
0
0
0
0
0
0
0.00028378
0.00031294
0.000295943
0.000333766
0.000305971
0.000292408
0.000286613
0.000285676
0.000260155
0.000273865
0.000252935
0.000248235
0.000262119
0.000344126
0.000364922
0.000346292
0.000372964
0.000325418
0.000358417
0.000289417
0.000328038
0.000345402
0.000328358
0.000341501
0.000362008
0.000386668
0.00036291
0.000378934
0.00036957
0.000275855
0.000311122
0.000255353
0.000207487
0.000373344
0.00033193
0.00051162
0.000456392
0.00045961
0.000463888
0.000484471
0.000449591
0.000499889
0.000423229
0.000514427
0.000465438
0.000450931
0.000487899
0.000467336
0.000450521
0.00045856
0.000439169
0.000444901
0.000413482
0.000336296
0.000358446
0.000414272
0.000379636
0.000146872
0.000154001
0.000208266
0.000141899
0.000120275
0.000169466
0.000172385
0.000203949
0.000145153
0.00011068
0.000156003
7.78622e-05
0.000111742
0.000101512
0.000112193
0.00040891
0.000274719
0.000318483
0.000329145
0.000317553
0.000294727
0.000294852
0.000333352
0.000270639
0.000296231
0.000235874
0.000236231
0.000220721
0.000209442
0.000217151
0.000192313
0.000187061
0.000199792
0.000171051
0.000170731
0.000138055
0.000147496
0.000257063
0.000245678
0.000134445
0.000108062
0
0
0
0
0
2.41882e-09
6.0667e-09
0
0
0
0
2.87987e-09
1.61556e-11
0
0
0
0
0
9.69473e-05
9.61343e-05
0
0.000307208
0.000300778
0.000733602
0.000470528
0.000807741
0.000853833
0.00060457
0.000874802
0.000792314
0.000828573
0.000896764
0.000802288
0.000812259
0.000728224
0.000813307
0.000739503
0.000762176
0.000781119
0.000934437
0.000755707
0.000841254
0.000777642
0.000794221
0.000703395
0.000768051
0.000824951
0.000762362
0.000679178
0.000681512
0.000611859
0.000580625
0.000659271
0.000657575
0.000591751
0.000558251
0.000624591
0.000604182
0.000651783
0.000594126
0.00062814
0.000617095
0.000624214
0.000609003
0.000626634
0.00061432
0.000614945
0.000609641
0.000585849
0.000593405
0.000549337
0.000549641
0.000488847
0.000493793
0.000440523
0.000405732
0.000422501
0.000321929
0
0
4.17189e-09
0
4.26625e-09
0
0
0
0
1.03196e-08
0
0
0
2.22194e-08
1.86395e-08
1.65533e-08
1.46608e-08
1.41681e-08
1.69868e-08
0
0
0
0
0
0
0
0
0
0
0
0
4.06215e-09
0
0
0
5.39637e-10
0
3.00564e-09
0
5.00998e-07
0
0
0
5.07728e-09
0
0
0
0
0
0
2.94376e-09
0
0
0
0
0
0
0
1.36098e-06
0
0
0
0
0
2.19682e-10
5.50086e-10
7.36818e-10
0
0
0
0
0
0
4.89666e-09
0
0
0
0
0
0
0
0
0
0
0
0
0
0
0
0
0
0
0
0
0
0
0
0
0
0
0
0
0
0
0
0
6.10913e-09
0
0
0
6.53418e-10
0
0
6.14997e-10
0
0
0.000105566
0.000137709
9.93844e-05
0.000134947
0.000146537
0.000202227
0.000164316
0.000272297
0.000294069
0.000282615
0.000237402
0.000239602
0.000240379
0.000179799
0.000253238
0.000269433
0.000248942
0.000253691
0.00023356
0.000423906
0.000220304
0.000236951
0.000310092
0.000192393
0.000284136
0.000408647
0.000294402
0.000362833
0.000345964
0.000280477
0.000297768
0.000336831
0.000313517
0
0
0.000102857
8.93493e-05
5.24423e-05
0
0
3.357e-05
6.7936e-05
0
0
0
0
0
0
0
0
6.34424e-09
0
0
0
0
0
0
0.000270453
0.000130151
0.00020708
7.7408e-05
9.77148e-05
0.000161188
0.000191163
9.701e-05
0.000168109
7.55146e-05
0.00018469
8.81856e-05
0.00016062
0
0
0
0
0
0
2.63999e-09
3.18435e-09
0
2.29685e-09
0
0
0
0
0
0
0
4.67716e-07
0
0
0
0
0
0
0
0
0
0
2.78286e-08
0
0
0
0
0
0
0
0
0
0
0
0
0
0
0
0
0
1.67795e-08
0
0
0
0
8.14782e-09
0
0
0
0
0
0
0
0
0
0
0
0.000198011
0.000185826
0.000161919
0.0001055
0.000131748
3.85697e-05
5.99648e-05
5.6761e-05
0.00013477
1.83739e-06
3.8781e-05
0
0
0
0
0
0
0
0
0
0
0
0
8.54823e-05
5.51344e-05
0
0
0
9.53326e-05
7.55898e-05
7.91016e-05
0
0
0
2.3375e-09
4.43975e-09
0
0
0
0
0
1.67847e-09
0
0.000259491
0.000312325
0.000355809
0.000307069
0.000270684
0.000279195
0.000280158
0.000271351
0.000260806
0.000248549
0.000255477
0.00023642
0.000255911
0.000237456
0.000399198
0.000384705
0.000389169
0.000371812
0.000364027
0.000344079
0.000315501
0.000340844
0.000368824
0.000351531
0.000402449
0.000388622
0.00043991
0.000377616
0.000439772
0.000389621
0.000290823
0.000333228
0.000221275
0.000271606
0.000341823
0.000396484
0.000475173
0.000504942
0.000493551
0.000464488
0.000528734
0.000496431
0.000491823
0.000521518
0.000553226
0.000508936
0.000531061
0.000496438
0.000484088
0.000496784
0.000462209
0.000478556
0.000471296
0.000440249
0.000372225
0.000403416
0.000421048
0.000462023
0.000130328
9.49721e-05
0.000216794
0.000156048
0.000100912
0.000179782
0.000196225
0.000226764
8.43179e-05
0.000106831
0.000126976
8.42854e-05
5.45788e-05
0.000138004
0.000318554
0.000402791
0.00030702
0.000286962
0.000386404
0.000299045
0.000339421
0.000281059
0.000314749
0.000225948
0.000229835
0.000211625
0.000218353
0.000199495
0.000200089
0.000178406
0.000165046