/*--------------------------------*- C++ -*----------------------------------*\
  =========                 |
  \\      /  F ield         | OpenFOAM: The Open Source CFD Toolbox
   \\    /   O peration     | Website:  https://openfoam.org
    \\  /    A nd           | Version:  8
     \\/     M anipulation  |
\*---------------------------------------------------------------------------*/
FoamFile
{
    version     2.0;
    format      ascii;
    class       volScalarField;
    location    "11640";
    object      H;
}
// * * * * * * * * * * * * * * * * * * * * * * * * * * * * * * * * * * * * * //

dimensions      [0 1 0 0 0 0 0];

internalField   nonuniform List<scalar> 
526318
(
0.674006
0.636003
0.713743
0.625007
0.69503
0.641511
0.66665
0.576806
0.642033
0.51358
0.5026
0.622369
0.569247
0.607975
0.566537
0.588912
0.569642
0.762303
0.680985
0.715816
0.715459
0.667311
0.42961
0.668907
0.553231
0.422618
0.691661
0.693484
0.694477
0.70908
0.732556
0.778739
0.765657
0.647028
0.647285
0.611485
0.617211
0.710223
0.636156
0.579055
0.65511
0.622611
0.277726
0.334564
0.240827
0.284635
0.26128
0.383966
0.559258
0.467252
0.555008
0.554747
0.501517
0.465837
0.000499198
0.205559
0.200266
0.0034836
0.720886
0.734684
0.750425
0.70538
0.651313
0.776803
0.775659
0.734281
0.718353
0.722208
0.623399
0.618479
0.732675
0.508882
0.563025
0.456713
0.410731
0.403764
0.501874
0.492169
0.413044
0.452607
0.532402
0.531654
0.486208
0.439301
0.467822
0.538176
0.537418
0.511248
0.462238
0.534624
0.443425
0.389832
0.389337
0.317048
0.313529
0.317822
0.315849
0.314453
0.309448
0.313345
7.97638e-05
2.15653e-06
0.000423495
4.71348e-10
0.000697371
0.000148343
0.222956
0.0309104
0.348115
0.307566
0.351187
0.467449
0.69258
0.584615
0.695224
0.700578
0.777816
0.741487
0.784611
0.307425
0.309172
0.30923
0.31467
0.269753
0.308455
0.218329
0.261772
0.172502
0.220512
0.172188
0.169622
0.158783
0.133462
0.129111
0.157158
0.0971073
0.1505
0.0997727
0.119737
0.0621474
0.0699828
0.0933779
0.123676
0.104082
0.0617121
0.0645011
0.0799017
0.0671826
0.0607582
0.0714495
0.0797967
0.0720778
0.0731843
0.074615
0.0719452
0.0391665
0.0756919
0.0732422
0.0373331
0.000690168
0.0767465
0.0223904
0.0781026
0.570452
0.673142
0.608534
0.596358
0.400609
0.468416
0.401607
0.404027
0.400398
0.405417
0.423593
0.399515
0.336941
0.305628
0.275991
0.21528
0.275561
0.317147
0.319766
0.315151
0.205234
0.255011
0.141358
0.154321
0.163978
0.149566
0.155151
0.153176
0.144546
0.147073
0.144279
0.126799
0.112947
0.141972
0.137678
0.102758
0.0813064
0.112548
0.0927953
0.0821486
0.106565
0.0916595
0.0962727
0.0574489
0.0747977
0.106666
0.110718
0.555291
0.563313
0.595369
0.587956
0.567128
0.552868
0.559721
0.439321
0.473027
0.217746
0.205991
0.202908
0.321761
0.46215
0.332607
0.369525
0.373104
0.320485
0.298746
0.000811588
1.39163e-16
0.000533217
0.140945
0.00027704
9.76159e-09
0.000995694
0.000255125
0.000396609
0.000963311
0.771482
0.751832
0.807298
0.797068
0.765273
0.749057
0.663204
0.746205
0.59213
0.538321
0.538834
0.536871
0.538874
0.531598
0.525904
0.525264
0.438885
0.508318
0.322703
0.380386
0.307587
0.321781
0.00100536
4.55059e-11
0.000154997
0.00100202
0.000103589
0.000987509
3.14309e-10
0.000721391
0.319771
0.133962
0.370934
0.367497
0.478046
0.581028
0.703677
0.704936
0.744999
0.718333
0.78742
0.814126
0.28925
0.288889
0.24724
0.220443
0.118248
0.155759
0.0820606
0.0920201
0.0813919
0.0730235
0.0638764
0.0695775
0.000788951
0.0193102
0.0508595
0.0940635
0.146681
0.100801
0.0749153
0.0691062
0.00731189
0.000918342
0.0456204
0.102442
0.0233761
0.0635034
0.0630036
0.0288417
0.0291475
1.31584e-32
4.24823e-142
8.21316e-05
0.000994356
0.000184338
0.000516965
0.0730914
0.111429
0.0705934
0.107464
0.471024
0.430366
0.330241
0.418241
0.33881
0.393144
0.40374
0.390472
0.404049
0.399029
0.311529
0.225622
0.15618
0.139909
0.218872
0.15473
0.14138
0.25739
0.144002
0.19311
0.13372
0.133743
0.146179
0.13594
0.148076
0.144151
0.141236
0.147405
0.147524
0.140263
0.151471
0.143142
0.157159
0.152781
0.151065
0.131358
0.150185
0.126014
0.106843
0.10364
0.129761
0.16685
0.155073
0.13317
0.111385
0.139949
0.184512
0.17983
0.203395
0.155999
0.191184
0.206129
0.24502
0.200624
0.20576
0.232323
0.258575
0.382152
0.466111
0.38003
0.407996
0.482652
0.547363
0.454154
0.320953
0.441412
0.334579
0.36174
0.0907765
0.0353307
0.0689988
0.0504953
0.173883
0.295737
0.219091
0.293633
0.290359
0.316967
0.295444
2.95166e-09
0.000710064
1.5045e-05
5.39295e-06
0.00057776
0.000494716
0.000599399
0.00100998
0.000476803
0.00100962
0.000664765
0.00100889
0.000730728
0.000955715
0.000582482
0.000952703
0.796924
0.784965
0.82237
0.814634
0.792224
0.762834
0.68658
0.601906
0.537497
0.553662
0.526386
0.522808
0.502857
0.509861
0.488509
0.481733
0.433992
0.482395
0.402507
0.341897
0.293101
0.245864
0.000930379
0.00107488
0.00107491
0.000663073
0.000600535
0.000731205
0.000599763
0.00107496
0.00107501
0.00107493
0.00100999
0.00100984
0.000550093
0.00100942
0.000924102
0.000172183
0.000288255
0.000487392
0.000977135
0.00096135
7.31626e-08
0.000978536
0.000793614
1.85613e-05
0.0222117
4.83407e-05
0.233739
0.390944
0.403632
0.498456
0.714696
0.609417
0.73067
0.730034
0.745393
0.772772
0.803506
0.824207
0.208952
0.206244
0.160256
0.187795
0.125624
0.0908528
0.0807304
0.0823232
0.0775422
0.0823162
0.0309907
0.0265459
0.000477934
0.000272084
0.0399617
0.0132662
0.000842014
0.0331076
0.0297258
0.0479694
0.000563312
0.000877153
0.000798003
0.000845066
3.37874e-59
0.000858908
0.000817823
0.000873914
0.00089927
0.000387281
0.000872478
0.226308
0.207353
0.197803
0.203487
0.224628
0.32659
0.278559
0.264126
0.138299
0.187198
0.173872
0.175459
0.0904907
0.0189268
0.196185
0.311926
0.197761
0.203024
0.181909
0.266977
0.242705
0.318519
0.351502
0.273089
0.257167
0.291019
0.168208
0.132056
0.134674
0.143653
0.0553129
0.109341
0.0349912
0.000608749
0.000570242
0.0853188
0.0875317
0.134185
0.13275
0.131055
0.131167
0.131283
0.141093
0.140519
0.149755
0.14429
0.15655
0.149466
0.153548
0.161992
0.189621
0.170162
0.19988
0.197764
0.144589
0.132818
0.191967
0.179366
0.169341
0.18162
0.163378
0.154822
0.208077
0.184035
0.280181
0.296894
0.2413
0.286706
0.292768
0.259804
0.348872
0.327724
0.397354
0.407246
0.438773
0.347201
0.357513
0.352909
0.319208
0.297003
0.265599
0.35763
0.209017
0.181782
0.236548
0.261418
8.05882e-09
0.000894706
0.0658149
0.190712
0.217267
0.2572
0.161892
0.121883
0.0882652
0.0330636
0.000965631
0.000310861
1.42674e-06
1.84795e-07
0.000778321
0.00100068
0.000993891
0.000234006
0.00100979
0.000545241
0.00024476
0.000470015
0.000926911
0.000208943
0.000889372
0.000986846
0.000766556
0.000551352
0.000138864
0.000388285
0.00097475
0.00101
0.000136733
0.000999779
0.00092262
0.000354496
0.00117063
0.000912091
0.00107939
0.000981928
0.00117038
0.00117041
0.000897424
0.000999494
0.0009727
0.000201819
9.59135e-05
0.000989075
0.000892979
0.0009482
0.00100959
0.000881287
0.00100965
0.000996543
2.65749e-05
0.000931251
0.790361
0.801861
0.819639
0.812617
0.795075
0.719561
0.529137
0.627302
0.506984
0.508779
0.488925
0.483638
0.476841
0.481339
0.469174
0.474508
0.416373
0.384919
0.288584
0.32976
0.185564
0.226253
0.000956386
0.000624444
0.000948563
0.000967574
0.000969466
0.000982262
0.000992783
0.000870723
0.00102558
0.000788389
0.000677989
0.000965569
0.000971308
0.000759356
0.000380116
0.000991326
0.000690401
0.00100737
0.000803925
0.000839513
0.000369052
0.000975289
0.000889611
0.000439439
0.000917861
0.00068906
0.00101
0.000641909
7.84239e-06
6.82991e-05
0.000555011
0.000719123
0.000476021
0.00096639
0.205217
0.0388344
0.415063
0.373337
0.438763
0.544988
0.650598
0.728411
0.74035
0.732548
0.774375
0.803343
0.792144
0.785288
0.00116846
0.000882073
0.000886173
0.000269213
0.000920954
0.000922867
0.00081396
0.000936674
0.000890554
0.000725685
0.000975785
0.00092383
0.000794854
2.99799e-07
0.000880516
0.00101
0.000170373
0.188596
0.185877
0.187783
0.150852
0.072075
0.107836
0.0312367
0.0254395
8.67439e-06
0.000905854
0.000872996
0.000481699
0.000802773
0.00040806
0.000504345
0.000774979
0.000910955
0.00403495
0.000991584
0.00087738
0.000712611
0.000921773
0.000703425
0.000545433
0.000771027
0.000818397
0.000964289
0.000555971
0.000325844
0.000996791
0.000920408
0.000390313
0.428169
0.389144
0.436248
0.438298
0.393462
0.350263
0.517473
0.540554
0.602708
0.608868
0.155324
0.207155
0.253391
0.328373
0.147683
0.111352
0.133668
0.137356
0.000617319
0.0317388
0.0816925
0.000377132
0.18155
0.182415
0.181682
0.180124
0.207003
0.176702
0.193268
0.213606
0.0965896
0.0813308
0.000186222
0.0704562
0.0582724
0.022709
0.000990831
0.000802453
4.23308e-75
0.000966348
0.000951985
0.0223435
0.080643
0.0155232
0.0829055
0.138301
0.135034
0.132601
0.134421
0.136046
0.1528
0.149132
0.170338
0.163889
0.186659
0.185616
0.202114
0.194783
0.199063
0.193716
0.205605
0.197593
0.242133
0.211682
0.180056
0.184481
0.248892
0.215173
0.222428
0.261282
0.300003
0.303838
0.303043
0.304944
0.336062
0.382735
0.452423
0.472558
0.481267
0.451489
0.596434
0.541027
0.67026
0.711517
0.693739
0.738212
0.78843
0.651648
0.746333
0.766029
0.842491
0.894245
0.917453
0.937114
0.966378
0.91039
0.966938
0.922602
0.998382
1.00095
1.04941
1.01683
1.07925
1.10825
1.09921
1.04649
1.11579
1.13887
1.1041
1.10074
1.16789
1.14207
1.17816
1.11385
1.11496
1.17874
1.15027
1.10012
1.09935
1.13422
1.16464
0.153864
0.118564
0.291968
0.29001
0.254044
0.252121
0.247723
0.0158249
0.151211
0.000110858
0.000679738
0.000500222
7.27631e-05
0.000154597
0.000924574
0.000171609
0.0836834
0.000447616
0.000883777
0.00056261
0.00037711
0.00046492
0.000522581
0.000348275
0.00101
5.27544e-07
5.8384e-05
9.70941e-06
5.35186e-05
0.00101
0.000966006
0.000995857
0.000581425
1.39551e-05
0.00162977
0.000842141
0.000928041
0.000844807
0.000691483
0.000380842
0.00069126
0.000943677
0.000831092
0.0012974
0.000420217
0.00012748
0.000146108
0.000949
0.000431299
6.93167e-06
1.61879e-05
0.000990101
0.00093513
0.00100829
0.000822594
0.000911134
0.000410555
0.00104848
0.00100997
0.000908027
0.00093353
0.000833622
0.000978582
0.000974989
0.000926586
0.00101
0.00057983
0.000892358
0.00103701
0.00106716
0.00099191
0.00101278
0.00093953
0.00101
0.00101
0.000467339
0.000585417
0.000993933
0.000773625
0.000877713
0.00099375
0.000922247
0.000776475
0.0010078
0.000994205
0.000136415
0.000956593
0.000950381
0.000921886
0.000915695
0.000919934
0.000615895
0.00101
0.000623175
0.000968314
0.782975
0.765275
0.738922
0.740179
0.654634
0.735445
0.553603
0.488502
0.479413
0.477091
0.478946
0.478745
0.414861
0.423923
0.267631
0.227485
0.185812
0.358013
0.357339
0.308524
0.306333
0.307538
0.000705523
0.000416435
0.00101592
0.0010159
0.000962471
0.000414864
0.000841453
0.000410365
0.00101592
0.000937179
0.000161511
0.00100893
0.000972717
0.000941946
0.000297472
0.000985833
0.000726155
0.00091818
0.00021426
0.00071546
0.000444736
0.000951565
0.00135656
0.00135671
3.81621e-05
6.09139e-06
0.000169957
0.000987693
0.0376289
1.15145e-05
0.203093
0.371953
0.403258
0.433806
0.511659
0.62889
0.690615
0.671715
0.714094
0.650637
0.703575
0.74158
0.697461
0.696036
0.0011787
0.000998147
0.00101
0.000849207
0.000995674
0.00119507
0.000758926
0.000800695
0.00119507
0.000964874
0.000981161
0.000996251
0.000318814
1.14836e-05
0.000967853
0.000373012
1.37673e-05
0.00072123
0.00101
0.000253336
0.000277025
0.000765241
0.00096459
0.000879022
0.00175555
0.00100916
0.160368
0.163912
0.0808958
0.096472
0.000681508
0.000858862
0.000679211
0.000787574
0.000612267
0.00137928
0.000275067
0.000751573
0.000686785
0.000630537
0.000173187
0.000352868
0.000239288
0.000926802
0.00126292
0.00125878
0.000571067
0.0002975
0.000435186
0.0008342
0.00030944
0.000950196
0.000717662
0.000602104
0.000980152
0.000764758
0.00121916
0.000707061
0.648923
0.643072
0.477278
0.389421
0.375554
0.372069
0.642193
0.558064
0.798828
0.882724
0.774964
0.697078
0.894248
0.873333
0.939351
0.9857
1.0152
1.0165
1.04239
1.01778
1.07227
1.09482
1.0945
1.09281
1.1162
1.09959
1.10153
1.14608
1.0896
1.08184
0.215975
0.13239
0.288303
0.348543
0.145801
0.0819642
0.134065
0.136737
0.000958697
0.0225329
0.000106488
0.0176591
0.000943554
0.178059
0.124444
0.180243
0.186027
0.177001
0.0786747
0.000828656
0.000321167
1.35889e-13
2.72733e-06
6.5801e-05
1.67982e-322
7.53771e-29
1.81001e-06
0.000998818
0.000713049
0.000810978
3.63154e-05
0.000598555
0.0278809
0.000891161
0.0804298
0.0278239
0.073
0.127799
0.161648
0.134375
0.171058
0.177495
0.184562
0.174481
0.203662
0.208722
0.208673
0.227043
0.235336
0.236586
0.27012
0.280387
0.272283
0.266552
0.268811
0.262647
0.281434
0.297175
0.343451
0.334644
0.303038
0.334304
0.330029
0.363975
0.401931
0.464814
0.494005
0.487708
0.503491
0.570479
0.659059
0.726876
0.743003
0.868436
0.745236
0.790069
0.938937
0.966077
0.964025
1.00146
1.05089
1.09774
1.11288
1.11447
1.14351
1.17504
1.19744
1.20116
1.1997
1.19654
1.19579
1.18024
1.11545
1.17715
1.14723
1.1025
1.10223
1.13228
1.16347
1.17376
1.10354
1.161
1.12291
9.60782e-08
0.000988417
0.00875501
0.0915316
0.0008818
0.0397569
0.176824
0.114066
0.141571
0.000719157
0.000629256
1.93585e-06
0.000721134
0.00323347
1.65777e-06
0.000166625
1.42778e-06
1.6401e-07
0.000978156
0.00127409
0.00127383
0.000284872
0.000453234
0.000269009
0.00100999
0.000871197
0.000795729
0.000978231
0.000558056
0.00140627
0.00140689
0.00086849
0.000172666
0.000482901
0.00162959
0.000981197
0.000727341
0.000478021
0.000315336
0.000485534
0.00101
0.000979671
0.00129723
0.000928609
0.00101
0.000480438
0.000660221
0.000998234
0.000701989
0.000938544
0.000874495
0.00105214
0.00094592
0.000791252
0.000751098
0.000990039
7.57449e-05
0.00099613
0.000976554
0.000151024
0.000650036
0.000544652
0.000936558
0.000835023
0.000977883
0.000927448
0.000995118
0.000978339
0.000943996
0.000974885
0.00092222
0.000207016
0.000979907
0.000919067
0.00101
0.000732523
0.00100962
0.000641972
0.000367709
0.000916152
0.000960434
0.000962626
0.000892128
0.000600962
0.000479733
0.691656
0.68253
0.671554
0.676088
0.605099
0.67165
0.477024
0.543643
0.439091
0.438015
0.381623
0.36613
0.307254
0.309288
0.223541
0.121937
0.0980171
0.26536
0.312111
0.309939
0.30906
0.308169
0.00101599
0.000987693
0.001016
0.000588312
0.000973634
0.000973647
0.00094649
0.000972052
0.00100548
0.000830393
0.000135327
0.000443538
0.00093376
0.000997208
0.00060297
0.00100999
0.00098232
3.53596e-05
0.000985985
0.000873381
0.000276721
0.000483957
0.000655599
0.00101
0.000321117
3.32274e-05
0.00016739
0.000935205
0.106094
1.27544e-16
0.243268
0.376215
0.350103
0.461705
0.626499
0.529087
0.606047
0.603178
0.600189
0.626654
0.682137
0.683129
0.68194
0.656914
0.000769413
0.000922585
0.0005717
0.000958878
0.000712787
0.000933944
0.000627141
0.000452485
0.000818713
0.000879841
0.000957505
0.000856862
0.000968979
3.13719e-10
0.000922039
0.000873917
0.00096514
0.000987798
0.000743529
0.00100999
0.000468733
1.60193e-05
0.00166262
0.000901385
0.00101
0.000860782
0.000668131
0.000489708
0.000136748
6.2542e-09
0.00098545
0.0384872
0.0370934
0.00129489
0.000246662
0.000273559
0.000330483
0.000956993
0.000405373
0.0782864
0.021869
0.000969171
0.000187059
0.0009323
0.000408908
0.00100989
0.00127621
0.00127621
0.000246068
0.000583215
0.00033942
0.000807948
0.0003819
0.000801456
0.000830286
0.000590376
0.000349619
0.000326301
0.000587295
0.00100971
1.30661e-05
0.00052455
0.000737284
0.000689738
0.000594218
0.000809643
1.22273
1.23092
1.25762
1.2362
1.27647
1.26712
1.28563
1.27963
1.33832
1.32236
1.28644
1.33864
1.30589
1.35948
1.18602
1.14213
1.16046
1.20886
1.19052
1.15886
1.16342
1.21522
1.22189
1.19795
1.17651
1.22974
1.21362
1.21836
1.24838
1.10024
1.10159
1.10198
1.10116
1.12097
1.1413
0.692832
0.637113
0.536264
0.437342
0.357029
0.426077
0.627526
0.614228
0.84673
0.875336
0.760136
0.839165
0.878245
0.931343
0.976505
1.01723
1.01588
1.01407
1.01423
1.03943
1.0568
1.07857
1.06709
1.06821
1.07293
1.08775
1.05891
1.05938
0.269057
0.185579
0.135679
0.117847
0.172049
0.349981
0.330081
0.0586464
0.118351
0.000673113
2.58848e-05
1.20279
1.22571
1.24053
1.2487
1.2536
1.26594
1.27146
1.29812
1.2828
1.29965
1.29989
1.34501
1.37097
1.39541
1.3925
1.39944
1.41437
1.43983
4.15921e-05
0.000679474
0.00145313
0.100253
0.00174749
0.167289
0.0587503
0.000844476
0.00130727
3.61412e-21
0.00130732
0.00130726
0.000150505
0.000201668
0.000879062
0.000634227
1.56935e-49
6.10001e-120
0.000377734
0.000793005
0.000395231
0.000603542
0.0012427
0.000425825
0.0336558
0.000944494
0.108684
0.0618829
0.152389
0.118006
0.14871
0.177686
0.193088
0.219793
0.24238
0.236735
0.251365
0.241449
0.305351
0.287722
0.284335
0.283672
0.334815
0.313701
0.378117
0.341155
0.323301
0.367092
0.411696
0.398915
0.425481
0.461877
0.460805
0.406898
0.517585
0.538675
0.509563
0.507494
0.587067
0.672495
0.74196
0.809633
0.759694
0.76887
0.895171
0.957341
0.9993
0.980362
1.04787
1.07666
1.12001
1.13849
1.13244
1.15269
1.21055
1.18793
1.20009
1.20838
1.19917
1.19555
1.19357
1.19636
1.19271
1.1953
1.19536
0.00100822
1.14052e-05
0.00229116
4.77684e-05
0.000308718
0.000315022
0.000402537
0.00010935
0.000369944
0.000554734
0.000590559
0.000992538
8.58466e-05
0.00037075
0.00145308
0.000973148
0.000885906
0.000173942
4.28478e-05
0.00127354
0.000363043
0.00038011
0.000824732
0.000714013
0.000735431
0.000981599
0.00101499
0.000904551
0.00111593
0.00111591
0.00140429
0.000872874
0.00101619
0.000992399
0.000776109
0.00096702
0.000896738
0.000998449
0.00026155
0.000888291
0.00100984
0.000894905
0.00111582
0.000276
0.000398457
0.000668916
0.00101
0.000330569
0.000740386
2.26725e-14
1.48077e-09
0.00241173
0.000379096
0.000857755
0.000694792
0.000545923
0.000997667
0.0003892
0.00100993
0.000972649
0.000977525
0.000963111
0.000999516
0.000734969
0.0010579
0.000932204
0.000720073
0.00097112
0.000773934
0.00105483
0.00089779
0.000955844
0.000631827
0.000258775
0.000750636
0.000964465
0.000941166
0.000838222
0.00101
0.000334973
0.000769708
0.000685233
0.000978177
0.000925692
0.000935309
0.000897783
0.00091709
0.000695524
0.000567275
0.00203927
0.000192931
0.000674617
0.000835469
0.000950541
0.00203922
1.38233
1.35565
1.33655
1.4302
1.46853
1.46184
0.669211
0.665554
0.657016
0.659326
0.576967
0.64379
0.472271
0.396676
0.325699
0.338465
0.309204
0.307366
0.310831
0.307918
0.187421
0.104814
0.196321
0.271391
0.277261
0.00093523
0.000828444
0.000875173
0.000890082
0.000922295
0.0009764
0.000965395
0.000493094
0.000931051
0.000554111
0.00100943
0.000959595
0.000969088
0.000968182
0.000184269
0.000747507
0.00100998
0.000498781
0.000128694
0.000927014
4.59314e-06
0.000275987
0.000921556
0.000785239
0.00052174
0.000783296
0.000978157
0.0771937
0.220403
0.330259
0.32901
0.647532
0.56769
0.582709
0.368091
0.456399
0.544013
0.597603
0.595119
0.600762
0.617406
0.644103
0.634993
0.000712502
0.00115031
0.000624317
0.000982796
0.000704864
0.000720222
0.00100904
0.000845157
0.000731263
0.000865554
0.000823186
0.000932446
0.000763197
0.000831138
0.000896425
0.000619039
0.000627663
0.00100504
0.000978863
0.000935387
0.000938185
0.000682923
0.000770427
0.000937995
0.000997599
0.000978674
0.000347723
0.000953032
0.000978459
0.000973622
0.00101
0.000984843
0.000871643
0.000978065
0.000827832
0.000809067
0.000811322
0.0350527
0.0711519
0.0563899
0.00062567
0.000953753
0.00084284
0.00041234
0.00018178
0.000426667
0.000338324
0.000919076
0.00404928
0.000975326
0.000406768
0.000986977
0.000612942
0.000962556
0.000490688
0.000432878
0.000753925
0.000136085
7.42918e-05
0.00065721
0.000224512
0.000821107
5.79952e-05
0.000680105
0.000702988
0.000421258
0.000653842
0.000551523
0.000693939
9.93495e-05
0.000358069
0.000994303
6.0151e-05
0.000979051
1.21974
1.23604
1.25714
1.28463
1.2939
1.29037
1.32179
1.29267
1.15602
1.15237
1.13489
1.15792
1.18979
1.15031
1.19804
1.17054
1.0867
1.07251
1.07642
1.10598
1.13581
1.11154
0.69707
0.620652
0.512577
0.608744
0.452877
0.366284
0.61907
0.617116
0.856753
0.856591
0.876677
0.770551
0.847774
0.96492
0.906293
0.85034
0.892205
0.993123
1.00947
0.998933
1.00659
1.01175
1.03409
1.05595
1.05189
1.0585
1.06242
1.0608
1.05834
1.05575
1.06043
0.105882
0.106187
0.248464
0.330467
0.106092
0.179831
0.341127
0.365171
0.0965439
0.0406247
0.000542615
0.0174316
1.23523
1.19211
1.21652
1.26126
1.25997
1.2626
1.27225
1.29358
1.31582
1.32552
1.32431
1.32996
1.35066
1.39456
1.3754
1.39547
1.41406
1.45794
1.43993
1.26838
1.27953
1.29417
1.4605
1.46914
1.46388
0.00145293
0.00145288
0.00145296
0.0005127
1.34584e-06
0.000889682
2.35009e-07
0.000928091
0.000417885
0.000659527
0.000757232
0.000881632
0.000578176
0.00101
0.000702905
0.00100987
0.000969713
4.13562e-06
0.000753117
2.29755e-09
0.00185419
0.000820298
7.59998e-78
0.000626889
0.0475014
0.0786797
0.00945068
0.0516899
0.111345
0.0789077
0.205995
0.144361
0.216599
0.235925
0.245211
0.230692
0.281506
0.327925
0.358384
0.362575
0.367553
0.349564
0.376796
0.357647
0.408653
0.410059
0.433206
0.430641
0.411753
0.411095
0.530204
0.58442
0.476649
0.543454
0.583473
0.552917
0.648542
0.698384
0.793811
0.830582
0.809079
0.896228
0.952729
1.05265
1.03569
1.09602
1.07406
1.17106
1.17458
1.17015
1.19834
1.22624
1.22702
1.27951
1.24457
1.27264
1.23145
1.22854
1.2706
1.19499
1.2392
1.20188
0.000278737
3.88515e-06
0.000809039
0.000599838
0.000769361
0.000964183
0.00057408
5.96862e-07
0.00101
0.000199154
0.000130371
0.000512431
0.000254114
0.000632165
0.000558381
0.000348522
0.000397624
0.000125553
0.000513156
2.86385e-05
0.000124015
4.98173e-05
5.50518e-07
0.000226099
0.000781048
0.000989613
0.000949838
0.000132325
0.0011159
0.0011159
0.000974815
0.000995782
0.000992745
3.82214e-05
0.00101
0.000912008
0.0010004
0.000112849
0.00044385
0.000919656
1.14241e-09
0.000297927
0.00214633
2.53679e-09
0.000984734
6.21646e-05
0.0009581
0.000364482
0.00101924
0.000154479
0.00099024
0.00220358
0.000975942
0.000134455
0.000954402
0.00101914
0.00126497
0.000398844
0.00100983
0.000979813
0.000465046
0.000983408
0.00101
0.000808151
0.00105784
0.00105685
0.000896998
0.000938228
0.00105056
0.00105629
0.000955402
0.000845649
0.000711032
0.000919589
0.00153833
8.27061e-05
0.00153817
0.000815833
0.00098702
0.000966821
0.00099923
0.00100984
0.00101
0.00100994
0.000799141
0.000805878
0.000827454
1.20946e-05
9.12481e-06
0
0.00090453
0.000799517
0.000430028
0.00085629
0.00126491
0.000898711
0.00100958
0.00100997
0.000855484
0.000998553
0.000946811
0.000914726
0.00101
1.33381
1.36645
1.36845
1.3651
1.3981
1.4991
1.48461
1.48345
1.50628
1.44767
0.58155
0.564237
0.496643
0.505372
0.461014
0.493357
0.402577
0.357393
0.344763
0.30763
0.28332
0.285571
0.194265
0.207919
0.0709647
0.116006
0.114697
0.000529692
0.000965684
0.000913493
0.00101
0.000949844
0.000924031
0.000585991
0.00103979
0.0475723
0.000313192
0.000919443
0.000220381
0.000959565
0.000979614
1.46148e-06
0.000368616
0.00101
0.000973661
0.00083163
0.0010218
0.000849804
0.00099452
0.000944045
0.000847483
0.00025022
0.442783
0.44268
0.487199
0.186121
0.33376
0.32639
0.365236
0.491355
0.560058
0.520684
0.427028
0.509279
0.535336
0.538426
0.459587
0.491946
0.000957717
0.000982973
0.00115035
0.00101
0.000659957
0.000823908
0.00101
0.00118735
0.000974903
0.000999593
0.000160682
0.000986054
0.000875008
0.000936631
0.000510229
0.00102056
0.000964827
0.00102057
0.00102049
0.00101
0.000771965
0.000895476
0.000833864
0.000976221
0.00092185
0.00100577
0
0
0
0.000777966
0.00106577
0.000959913
0.00100563
0.000944429
0.000473953
0.000911195
0.000978965
0.000968087
0.00097325
0.000338297
0.000895901
0.000914242
0.000926795
0.000955341
0.00102055
0.0536834
0.0608242
0.0730506
0.000879004
0.000361102
0.000827036
5.50477e-05
0.000926634
0.000750894
0.00147115
0.000672491
0.000836541
0.00147078
0.000479864
0.000491909
0.000406739
0.000485044
0.000242686
0.000584634
0.000428189
0.00103802
0.000270985
0.000575667
0.000666396
0.000877991
0.000772225
4.3442e-07
0.000152864
0.00117867
0.000507976
0.00103796
0.000312228
0.000747328
0.00078689
0.000346646
0.00101
0.000942721
0.000578206
0.00117865
1.22502
1.17989
1.25121
1.21769
1.22813
1.26735
1.27931
1.31798
1.30755
1.33463
1.3192
1.26747
1.33157
1.30192
1.12144
1.12171
1.10894
1.12508
1.13532
1.14685
1.1461
1.15165
1.06111
1.06037
1.08362
1.07262
1.10235
1.10907
0.700767
0.62203
0.537162
0.618889
0.411405
0.509466
0.620731
0.623189
0.849551
0.848198
0.853457
0.778871
0.937272
0.986874
0.895614
0.85216
0.99404
0.989259
1.00711
0.987978
1.02645
1.05189
1.05739
1.0564
1.052
1.0583
1.05614
1.06125
1.05492
1.05974
0.103323
0.100067
0.263172
0.345733
0.243947
0.156689
0.402601
0.333358
0.0755208
0.097681
0.0654658
0.000574205
1.23618
1.27652
1.25612
1.28212
1.30328
1.291
1.32408
1.33665
1.3114
1.32247
1.31516
1.32136
1.32769
1.35159
1.37547
1.39761
1.39575
1.44892
1.4231
1.47516
1.48072
1.34581
1.36032
1.47706
1.49061
0.000415286
9.3066e-05
0.000696944
0.000551543
0.000525579
9.3846e-05
0.000260243
0.000192273
0.00101
1.00585e-05
0.000927799
0.000258474
0.000705117
0.000657476
5.07035e-06
0.000780461
0.00185414
0.000448783
0.000872027
0.000687083
0.000489954
1.85227e-16
0.00100079
2.25677e-226
0.0703317
0.0683318
0.0382081
2.60079e-05
0.104021
0.140581
0.199752
0.196191
0.215635
0.210052
0.326827
0.277833
0.375806
0.363887
0.390734
0.393679
0.372086
0.426965
0.475267
0.443905
0.428321
0.459559
0.506456
0.491595
0.471004
0.515358
0.599818
0.604592
0.59517
0.618054
0.744659
0.657097
0.828771
0.853929
0.852921
0.919625
0.998969
1.07053
1.08513
1.09169
1.14469
1.19052
1.22824
1.22821
1.26656
1.23881
1.29086
1.30552
1.3057
1.30335
1.30695
1.30271
1.27158
1.30913
1.27722
0.00085237
0.000120257
0.00757139
0.00102515
0.000696183
7.73581e-05
0.000686777
0.000538285
0.000908447
0.000700239
0.00101
0.00131766
0.00131753
0.00131828
0.00131817
0.0013188
0.00131899
0.000994152
0.00131898
0.00640783
0.000988555
0.000638589
0.000184916
0.00105041
0.000428964
0.00105036
0.0010504
0.000421282
0.00010814
0.00100217
0.000993637
0.000687571
0.000856518
0.000794329
0.00101
0.00103706
0.000781575
0.000959982
0.00100986
0.000887496
0.000962023
0.00098251
0.00185269
0.000989657
0.000146754
1.36216e-05
0.000607696
0.00096357
0.000988249
0.000479144
0.000826696
0.000966991
0.00100941
0.00031059
1.86966e-05
0.000987756
0.00100992
0.000817418
0.000560979
0.00073456
0.00101
0.000799183
0.000968993
0.000279366
0.000905419
0.000941315
0.000953091
0.0010008
0.000939674
0.000880492
0.000886752
0.00100949
0.00097168
0.000773375
0.000984106
0.000952799
0.000599379
0.00098992
0.000934564
0.000964099
0.000974876
0.000974485
0.00101
0.00099424
0.000905098
0.000464111
0
0
0
0
0
0
0
0
0
0
0
0
0
0
0
0
0
0
0
0.00099334
0.000894115
0.000937661
0.000812305
0.000915994
0.000434354
0.000930589
0.00106433
0.000325168
0.000811332
0.00035232
0.000885277
1.5271
1.51644
1.53414
1.53104
1.53273
1.54558
1.3722
1.38461
1.44195
1.41604
1.50161
1.51602
1.51369
1.3868
1.32295
0.436879
0.440967
0.442649
0.428207
0.4484
0.373211
0.419045
0.204834
0.262464
0.124378
0.12721
0.076092
0.0746364
0.0733413
4.53839e-05
0.000799135
0.000495047
0.000982711
0.000788092
0.0733039
5.23085e-59
0.000948865
0.000967043
0.000969774
0.000686377
0.000977274
0.000847134
0.000970402
0.000977458
0.000717645
0.000335301
0.00101389
0.00101385
0.000287927
0.00101418
0.000932938
0.0004632
0.000564851
0.443382
0.445573
0.445313
0.44514
0.442026
0.158022
0.272513
0.214831
0.336197
0.393338
0.420665
0.354639
0.433177
0.387294
0.384358
0.372518
0.000954778
0.00111145
0.000813823
0.000970576
0.000973219
0.000935143
0.000790592
0.00101466
0.000147702
0.000874045
0.00101357
0.000635063
6.92933e-05
0.000747475
0.00102064
0.000508825
0.000763669
0.000833167
0.000984059
0.000946662
0.00094707
0.000987495
0.000740767
0.000908685
0.000621516
0.00100955
0.000627569
0.000973579
0.000348921
2.15212e-05
0
0
0
0
0
0.000877118
0.00106562
0.000978274
0.00106568
0.000988902
0.000872265
0.00078846
0.000950347
0.00098805
0.00100037
0.00093197
0.000953825
0.000956596
0.000997349
0.000778615
0.00101
0
0
0
0
0
0
0.0511095
0.000864376
0.000410285
0.000692957
0.000596421
0.000680509
0.00078824
0.000960083
0.000791447
0.000311719
0.00100956
0.000847514
0.000375808
0.000550644
0.00033854
0.000760208
0.000752664
0.000795758
0.000905726
0.000971356
0.0009878
6.51335e-05
0.000363008
1.79748e-05
0.000486704
0.000769763
0.000634249
0.000404769
0.000958393
0.00027789
0.000611763
1.31742e-05
0.000467482
0.0018377
0.00183675
0.000647548
0.000959699
0.000281529
0.000798649
0.00100972
0.000818552
1.21069
1.16964
1.21133
1.20553
1.19153
1.23523
1.1985
1.2376
1.26309
1.28475
1.35082
1.30711
1.25345
1.11044
1.11052
1.13755
1.1261
1.1496
1.14967
1.17209
1.1548
1.06247
1.06947
1.09226
1.07903
1.09568
1.10136
0.740927
0.666817
0.580158
0.620601
0.570106
0.473216
0.652994
0.623198
0.855503
0.855225
0.815274
0.862081
0.947874
0.992784
0.860319
0.902723
0.995747
0.994877
1.0171
0.992083
1.03578
1.05469
1.06115
1.05787
1.04724
1.05673
1.05724
1.05096
1.04754
1.04999
0.102344
0.152095
0.345662
0.319714
0.239991
0.3282
0.338793
0.417021
0.0881653
0.0822294
0.0785836
0.0007961
5.3971e-05
3.10433e-07
0.000686291
1.30768
1.31284
1.33997
1.3322
1.35349
1.36294
1.36491
1.36279
1.39834
1.37826
1.39068
1.35578
1.38833
1.40147
1.42666
1.44249
1.45997
1.45479
1.50579
1.50718
1.52715
1.50494
1.42
1.42298
1.54823
1.53948
0.00016622
0.000334169
0.00101
7.53494e-06
0.000729054
0.00123833
0.00123816
0.00099029
0.000305007
0.000127887
0.000117319
0.00203367
0.00108354
0.000712383
0.000822227
0.000857154
0.00100232
0.000626775
0.000320397
0.000824137
8.63116e-05
0.000995528
0.000301624
0.00083567
0.00092014
0.0188491
0.0883023
0.0005102
0.18738
0.120511
0.199156
0.202219
0.2878
0.228605
0.352278
0.382685
0.377763
0.385084
0.508426
0.471386
0.440899
0.494051
0.519298
0.512574
0.507664
0.499503
0.514138
0.514776
0.596571
0.640021
0.675941
0.6314
0.677309
0.703708
0.839753
0.775737
0.867904
0.852272
0.936919
1.00902
1.10072
1.09184
1.13259
1.16852
1.24607
1.23374
1.25637
1.26015
1.28692
1.29719
1.31597
1.30761
1.32157
1.31444
1.30626
1.31961
1.30901
1.30967
0.000973063
0.000863994
0.00101
0.00067133
0.000949795
0.000657298
0.000566723
0.000789161
0.000642839
0.00131876
0.000354412
0.000930049
0.000295436
0.00132003
0.0013191
0.00131896
0.00131808
0.00131886
0.00131824
0.000432491