/*--------------------------------*- C++ -*----------------------------------*\
  =========                 |
  \\      /  F ield         | OpenFOAM: The Open Source CFD Toolbox
   \\    /   O peration     | Website:  https://openfoam.org
    \\  /    A nd           | Version:  8
     \\/     M anipulation  |
\*---------------------------------------------------------------------------*/
FoamFile
{
    version     2.0;
    format      ascii;
    class       volScalarField;
    location    "11640";
    object      nut;
}
// * * * * * * * * * * * * * * * * * * * * * * * * * * * * * * * * * * * * * //

dimensions      [0 2 -1 0 0 0 0];

internalField   nonuniform List<scalar> 
526318
(
0.000122618
9.64111e-05
8.22884e-05
0.000170869
7.85413e-05
0.000154452
9.97189e-05
9.87584e-05
7.43332e-05
0.000175414
6.91568e-05
0.000138767
8.04252e-05
0.000255818
0.000122855
0.000122485
9.81909e-06
5.23837e-05
0.000113545
0.000107813
0.000167197
0.000172029
0.000123178
0.000157447
8.36883e-05
9.11273e-05
0.000115227
0.000235198
0.000109034
0.000169121
8.69628e-05
0.000204137
9.8942e-05
8.4952e-05
0.000130049
8.1423e-05
0.000164698
0.00018075
8.98927e-05
0.000139709
8.54743e-05
0.000210983
2.42919e-05
7.0018e-05
0.000149872
0.000143226
5.05579e-05
9.97508e-05
0.000158537
0.000208466
8.13162e-05
0.000149371
3.68519e-05
6.73883e-05
0
0.000135272
5.55069e-05
1.26517e-06
0.000239731
0.000260353
6.91515e-05
0.000177882
0.000136765
7.56248e-05
0.000212582
3.19777e-05
0.000153696
0.000210125
0.000203333
0.000109632
0.000132364
6.40142e-05
0.000159696
0.000245414
4.86879e-05
0.000110693
0.00016042
0.000223444
0.0001217
9.99852e-05
0.000235688
0.000132078
0.000189505
0.000221118
0.000247322
0.000171971
7.43781e-05
0.000182018
6.94391e-05
0.000144994
0.000105623
0.000192166
0.000112135
9.43506e-05
5.04298e-05
0.000103857
8.88822e-05
7.02917e-05
1.73587e-05
2.59154e-05
0
0
0
0
0
0
5.35219e-05
1.94645e-05
0.000113669
8.47503e-05
5.72637e-05
0.000142926
0.000182522
0.000125417
0.000104074
0.000184792
0.000168041
0.000114071
0.000102859
3.47271e-05
3.9333e-05
4.15532e-05
1.58466e-05
1.75932e-05
1.18078e-05
3.392e-05
5.12629e-05
2.57077e-05
4.66513e-05
3.01407e-05
8.42965e-06
2.22712e-05
2.63577e-05
2.23464e-05
3.01181e-05
2.17886e-05
4.50197e-05
4.39045e-05
2.97086e-05
1.67698e-05
2.4561e-05
2.20229e-05
2.88801e-05
6.05959e-05
2.83416e-06
2.14084e-05
1.94671e-05
2.65312e-05
2.58389e-05
2.79635e-05
2.87278e-05
4.55455e-05
2.70923e-05
5.80411e-05
2.34887e-05
2.74003e-05
1.17226e-05
4.78116e-05
3.72818e-05
0
1.32931e-05
2.01494e-05
4.45915e-05
0.000206474
0.000271458
0.000204429
0.000102218
0.000176934
4.30544e-05
0.000145795
0.00018783
0.000216617
5.50213e-05
0.000188279
0.000269539
0.00018299
0.000184408
0.00011182
6.90792e-05
4.64461e-05
3.80188e-05
2.31077e-05
2.41075e-05
1.66643e-05
4.46782e-05
1.48666e-05
1.57948e-05
3.91179e-05
2.26372e-05
2.83685e-05
3.12196e-05
7.34768e-06
6.54257e-06
1.45556e-05
3.31619e-05
2.10736e-05
7.31275e-05
6.17057e-05
1.98059e-05
2.47817e-05
3.01596e-05
4.06104e-05
4.05898e-05
7.5404e-05
1.81209e-05
1.83294e-05
3.14763e-05
1.31571e-05
9.90405e-05
6.031e-05
0.000205541
0.000191099
0.000141651
9.12113e-05
6.99828e-05
3.66117e-05
0.000250039
7.7099e-05
5.93582e-05
0.000113919
5.81022e-05
8.30359e-05
0.000162378
0.000155917
0.000159474
7.46597e-05
7.49248e-05
4.44669e-05
5.12837e-05
0
0
0
5.60701e-05
0
0
0
0
0
0
7.53714e-05
0.000177882
0.000168306
0.000215283
9.50325e-05
0.000156757
0.000252017
0.000139075
0.000141162
0.000242946
0.000178866
0.000206954
7.63595e-05
0.000142748
4.71033e-05
0.000122969
8.03034e-05
9.2883e-05
3.08734e-05
9.14474e-05
2.06654e-05
6.53153e-05
0
0
0
0
0
0
0
0
0.000170976
7.16975e-05
0.000153185
7.86694e-05
0.000120923
0.000145048
0.000118642
0.000147793
8.18886e-05
8.72012e-05
0.000114013
0.000185062
5.03632e-05
2.7941e-05
4.76132e-05
2.90391e-05
2.19807e-05
3.73582e-05
1.65832e-05
1.09474e-05
1.17262e-05
3.27192e-05
3.1524e-05
1.14442e-05
0
1.62659e-05
1.85776e-05
7.08248e-05
7.37663e-05
0.000105144
7.1895e-05
3.74657e-05
3.19978e-06
0
2.22116e-05
9.32183e-05
4.94696e-06
6.63395e-06
6.11288e-05
5.95981e-05
2.65844e-05
0
0
0
0
0
0
2.46575e-05
7.40536e-05
1.57088e-05
0.000113178
0.000104644
4.36984e-05
0.000170581
0.000239778
5.34711e-06
0.000262528
0.000254066
0.000112037
0.000107222
0.000242793
0.000300295
0.000134476
0.000129352
4.91865e-05
2.90956e-05
6.37864e-05
2.65365e-05
1.14089e-05
5.18915e-05
1.14461e-05
5.03199e-06
5.03712e-05
3.71598e-05
2.06342e-05
1.96184e-05
2.18954e-05
2.55378e-05
1.49328e-05
1.53232e-05
1.18251e-05
3.87652e-05
4.92741e-05
3.44473e-06
2.82968e-05
2.05604e-05
4.65293e-06
3.9632e-05
4.52636e-05
3.67371e-05
8.71309e-05
5.08377e-05
3.31131e-05
0.000100256
7.58514e-05
7.11432e-05
5.73398e-05
0.000135909
6.71064e-05
0.000117227
7.09985e-05
0.000116515
8.8096e-05
6.79116e-05
3.72037e-05
0.000115558
0.000145346
5.4406e-05
0.000103873
7.32421e-05
6.96521e-05
5.4253e-05
0.000151392
3.51666e-05
8.12622e-05
0.000167453
0.000207524
6.37891e-05
8.7387e-05
3.96907e-05
7.78146e-06
2.78544e-05
7.75754e-05
3.96954e-05
7.55428e-05
4.43041e-05
5.97821e-05
1.34386e-05
5.25403e-05
7.88974e-05
0
0
0
0
0
0
0
0
0
0
0
0
0
0
0
0
0.000101856
0.000144384
0.000175422
9.42231e-05
9.24144e-05
0.00019851
0.000123364
0.000145477
0.000132352
0.000124211
5.82107e-05
0.000123026
5.3416e-05
0.000123746
9.56515e-05
7.03981e-05
3.52627e-05
9.52663e-05
4.38836e-05
1.81273e-05
8.78321e-06
2.80582e-05
0
1.60006e-09
8.26621e-10
0
0
0
0
7.8064e-10
1.13361e-09
1.1151e-09
0
0
0
0
0
0
0
0
0
0
0
0
0
0
1.61465e-05
0
9.54253e-05
0.000127756
0.000137363
0.000140827
7.76371e-05
0.000139935
0.000137427
7.15193e-05
6.28423e-05
9.76682e-05
0.000157418
5.67352e-05
1.78732e-05
1.14412e-05
2.9707e-05
1.83054e-05
1.77226e-05
5.6987e-06
4.2615e-06
1.95733e-05
2.89487e-05
2.07176e-05
2.83591e-06
1.57249e-05
0
0
7.99418e-06
5.50713e-06
0
1.46129e-05
2.55197e-05
1.99811e-05
0
0
0
0
0
0
0
0
0
0
0
4.21882e-05
4.38229e-05
9.44688e-05
0.00010776
0.000135708
9.10232e-05
4.57302e-05
0.000112604
9.43419e-05
0.000138735
5.551e-05
2.95434e-05
4.0376e-05
1.9139e-06
6.65357e-05
0.000130433
0.000119008
2.98671e-05
0.000164069
0.000245035
8.56304e-05
0.000307463
0.000287505
0.000193282
0.00019221
0.000287944
6.69964e-05
0.00017662
6.75436e-05
3.24458e-05
4.12673e-05
4.94246e-05
5.02981e-06
0
0
2.45662e-05
2.99117e-05
2.43278e-05
4.17665e-05
4.48476e-05
2.0044e-05
1.24778e-05
3.98525e-05
9.65426e-06
6.08825e-05
6.14683e-05
2.78848e-05
5.46082e-05
5.50534e-05
1.10471e-05
5.55305e-05
4.95904e-05
6.93455e-05
2.41541e-05
3.74811e-05
1.81511e-05
3.88399e-05
3.79373e-05
0.00010433
7.12545e-06
2.75057e-05
9.44715e-05
8.19568e-05
5.37861e-05
7.88466e-05
6.76827e-05
5.53995e-05
1.75353e-05
1.34112e-05
9.65025e-05
2.44799e-05
0.000103604
0.000131325
3.91137e-05
0.000138402
5.89746e-05
0.000166892
3.48468e-05
0.00016966
1.50122e-05
2.32465e-05
0.000130021
8.75695e-05
6.31143e-05
7.69228e-05
9.95524e-05
0
0
1.87099e-05
0.000179705
0.00012797
2.52225e-05
0.000104593
3.45376e-05
3.62226e-05
1.89026e-06
0
0
0
0
0
0
0
0
0
0
0
0
0
0
0
0
0
0
0
0
0
0
0
0
0
0
2.31469e-09
0
6.1101e-10
0
9.42159e-10
2.45234e-09
0
0
0
0
0
0
0
0
0
0
0
0
0
0
6.98053e-05
0.000136251
0.00020725
4.06223e-05
0.000121888
0.000115902
0.000113886
0.000125117
0.000133081
7.54404e-05
6.78151e-05
6.9867e-05
6.82926e-05
3.71391e-05
2.69238e-05
4.59354e-05
2.55186e-05
2.82844e-05
3.48481e-05
2.07941e-05
1.25127e-05
2.5786e-05
0
0
0
0
0
0
0
0
5.0808e-09
0
0
0
0
0
0
0
0
0
0
0
0
0
0
0
0
0
0
0
0
0
0
0
0
0
3.48405e-05
7.45214e-05
3.71709e-05
0.000204772
0.000179026
5.73896e-05
0.000160817
7.28475e-05
5.43875e-05
0.000145435
0.000149157
8.97371e-05
7.69802e-05
0.00021147
8.40541e-10
0
0
0
0
0
0
0
0
0
0
0
0
0
0
0
0
1.66763e-05
1.55896e-05
4.28925e-05
3.73988e-05
1.29064e-05
8.19656e-06
4.68169e-06
7.58038e-06
0
0
0
0
0
0
0
0
0
2.38154e-06
0
0
0
0
0
0
0
0
0
0
0
0
0
0
0.00016235
8.60355e-05
0.000157336
0.000102696
8.39103e-05
0.000126362
0.000111393
0.00022453
0.000135809
0.000125849
8.43736e-05
6.15273e-05
0.000111975
0.000122553
9.0393e-05
1.03542e-05
4.79462e-05
3.06993e-05
0
1.65934e-05
9.55862e-05
0
0.000130229
0.000261937
4.32491e-05
0.00024716
0.000267006
0.000133245
0.000254795
0.00026931
0.000244367
0.000214717
0
5.76515e-05
4.86669e-05
6.48268e-06
0
0
0
0
0
3.82284e-06
4.19782e-05
1.06383e-05
3.2845e-05
2.67258e-05
4.11875e-05
1.51554e-05
3.90401e-05
1.67694e-05
8.51248e-06
3.78005e-05
3.06129e-05
1.67576e-05
7.66507e-05
9.84262e-05
5.28781e-05
2.82696e-05
9.10268e-05
5.26808e-05
7.12722e-05
3.66756e-05
3.76448e-05
6.24057e-05
7.68987e-05
6.35539e-05
8.33233e-05
9.32102e-05
7.64659e-05
2.70787e-05
3.89303e-05
8.78169e-05
2.11772e-05
8.33241e-05
0.000116575
4.83015e-05
0.000192029
5.01488e-05
0.000153203
6.33927e-05
7.89807e-05
0.000215679
0.000263365
0.000312071
0.000120149
0.000246697
0.000171365
0.000163826
0.000279805
0.000191592
0.000242358
0.000231689
0.000234283
0.000201514
0.00020522
0.000173932
0.000229322
0.000266535
0.000263509
0.000253163
0.000361924
0.00039126
0.000295485
0.000427739
0.000272633
0.000384861
0.000314754
0.000393596
0.000360383
0.00038696
0.000388191
0.000407894
0.000355152
0.000424245
0.000363254
0.000398858
0.000341209
0.000372835
0.000388869
0.000345427
0.000392794
8.4928e-05
1.74926e-05
8.59206e-05
5.28498e-05
9.76456e-05
1.92525e-05
0.000133989
8.19701e-06
6.49462e-05
0
0
0
0
0
0
0
6.51042e-05
0
0
0
0
0
0
0
0
0
0
0
0
0
0
0
0
0
3.97188e-09
0
0
0
0
0
0
0
0
3.01978e-09
0
0
0
0
0
0
0
0
0
0
0
0
0
1.98441e-06
0
0
0
0
0
0
0
0
0
0
3.05001e-08
1.73445e-08
0
1.3498e-08
0
0
0
0
0
0
0
0
0
0
0
0
0
0
0
0
0
0
0
0
0
0
0
0.000179901
9.899e-05
6.81443e-05
0.000169032
0.000158421
0.000146918
8.32173e-05
5.47002e-05
4.49729e-05
6.82931e-05
3.38412e-05
5.07575e-05
3.13684e-05
1.49554e-05
1.3396e-05
2.76752e-05
1.37296e-05
2.50865e-05
2.31755e-05
2.83445e-05
3.3065e-05
3.49568e-05
0
0
9.723e-10
7.10702e-10
0
0
0
0
1.66764e-09
0
0
0
0
0
0
0
0
0
0
0
0
0
3.78036e-09
3.12382e-09
0
0
0
0
2.49914e-05
0
4.15827e-05
0.00010781
0.000172946
8.38263e-05
0.00018106
0.000124772
0.000211719
0.00014798
0.000191456
0.000204646
0.000188844
0.000161037
0.000189982
4.05821e-05
3.87849e-09
0
0
0
0
3.55251e-11
0
0
1.39131e-11
0
0
0
0
0
0
0
0
0
0
0
0
0
0
0
3.30052e-07
6.65621e-07
2.65276e-05
3.08765e-05
2.16129e-05
2.31343e-05
0
0
0
0
0
1.84819e-09
0
0
0
0
0
0
0
0
6.79076e-09
1.45435e-07
0
0
0
0
0
0
0
0
0
0
3.99269e-10
0
0.000211247
0.000176707
7.68296e-05
0.000105467
3.6541e-05
0.000142515
0.000131457
0.000134449
0.000215365
0.000216767
0.000219151
0.00018777
0.000202531
0.000229889
0.000362673
0.00028383
0.000341048
0.000394175
0.000431006
0.00040238
0.000399109
0.000465179
0.000417596
0.000428102
0.000341247
0.000381452
0.000351325
0.000344763
0.000394696
0.000424953
6.116e-05
8.62829e-05
6.99458e-05
0.000112855
6.07731e-05
4.09532e-05
0.000105042
4.17871e-05
0
2.1222e-05
0
8.24033e-06
0
0.00012334
0.000293733
0.000332365
0.000267827
0.000222033
0.00012891
0
0
0
0
0
0
0
0
0
0
0
0
0
1.90071e-05
0
1.40207e-05
5.10136e-06
2.67254e-05
1.66665e-05
2.93134e-05
3.99118e-05
8.86491e-06
6.85586e-05
2.86247e-05
4.69264e-05
2.93312e-05
4.90458e-05
3.64634e-05
5.26969e-05
6.29246e-05
4.70348e-05
9.29152e-05
8.45763e-05
6.21406e-05
0.000114417
7.88444e-05
4.42113e-05
6.40055e-05
9.88394e-05
7.87706e-05
8.59658e-05
0.000112665
9.14528e-05
8.21537e-05
0.000111597
0.000155924
0.00010992
6.51846e-05
0.000135895
0.000164457
9.89876e-05
0.000280736
0.000165381
0.000317457
0.000313973
0.000291102
0.000255822
0.000211231
0.000292168
0.000238255
0.000318832
0.000267029
0.000408505
0.00029343
0.000426599
0.000348132
0.000378286
0.000381195
0.000311654
0.000309747
0.000346278
0.000315896
0.000313432
0.000331238
0.000286068
0.000317201
0.000312725
0.000311309
0.000295304
0.000282982
0.000289097
0.000286513
0.000313744
0.000297209
0
0
4.17919e-06
8.06526e-05
0
5.17337e-05
0.000104461
6.46249e-05
0.000126206
0
0
0
0
8.92773e-07
0
0
0
0
0
5.1628e-09
3.90511e-09
0
0
0
0
0
0
0
0
2.32539e-09
9.09151e-09
0
0
0
4.79559e-09
0
0
0
0
0
0
0
3.30256e-09
0
0
0
0
0
0
0
0
2.67154e-11
0
0
0
0
0
0
0
0
0
0
0
0
0
0
0
0
0
0
0
0
0
0
0
0
0
0
0
0
0
0
0
0
0
9.77651e-05
9.47433e-05
5.69938e-05
0.000132709
5.22616e-05
5.6435e-05
8.53342e-05
6.08826e-05
1.82045e-05
4.483e-05
3.07735e-05
1.96546e-05
3.77346e-05
1.75955e-05
4.57502e-05
1.2459e-05
1.09865e-05
2.27595e-05
2.82534e-05
3.16039e-05
3.3901e-05
3.12099e-05
5.51715e-10
0
2.5246e-11
0
0
0
0
0
0
0
0
0
0
0
0
0
0
0
0
0
0
0
0
0
0
0
0
0
4.62596e-05
0
5.23515e-05
9.45266e-05
8.20368e-05
8.04009e-05
0.000167879
0.000152328
0.000121187
0.000240319
0.000186318
0.000152334
0.000171535
8.36971e-05
8.23617e-05
0.000136401
0
0
0
0
0
0
0
0
0
0
0
0
0
0
0
0
0
0
0
0
0
0
2.69457e-07
0
0
0
0
0
0
0
0
1.33113e-05
1.29996e-05
1.71404e-07
0
0
0
0
0
1.04323e-05
1.39535e-05
0
0
0
0
0
4.31487e-10
6.91462e-10
0
0
0
0
0
0
0
0
0
0
0
0
0
0
0
0
0
0
0.000217817
0.000169413
0.00022141
0.000193915
0.000228045
0.000171998
0.000246422
0.000212077
0.000246075
0.000227843
0.000312475
9.99618e-05
0.000247325
0.000251229
0.000346113
0.000328667
0.000292278
0.000305679
0.000299125
0.000342788
0.000312202
0.000296632
0.000195673
0.00029576
0.000321871
0.000277235
0.000228902
0.00029912
0.000292974
0.000370935
0.000368946
0.000348599
0.000332916
0.000327321
0.000299959
0.000187045
0.000165323
0.000129873
0.000102287
5.00941e-05
0.000102172
0.000123109
0.000111322
0.000298038
0.000132531
0.000171152
0.000189055
0.000374062
0.000271143
0.000386754
0.000337964
0.000397206
0.000426333
0.000443512
0.000486473
0.000426657
0.000537356
0.000431365
0.000499893
0.000432049
0.000402993
0.000471603
0.000444231
9.43884e-05
7.56947e-05
5.03053e-05
2.61077e-05
0.000130825
3.71204e-05
0.000107797
4.38593e-05
3.1832e-05
0
0
0.000293845
0.000279147
0.000313225
0.000273599
0.00028474
0.000260628
0.000184483
0.000241546
0.000188903
0.00022888
0.000272026
0.00026403
0.000226796
0.000211753
0.000170947
0.000186645
0.000147647
8.70678e-05
0
0
1.19107e-09
0.000158281
1.62338e-06
0.000286629
6.31133e-05
0
8.17427e-10
0
2.20044e-09
3.33991e-09
0
0
0
0
0
0
0
0
0
0
2.24012e-09
0
9.24608e-06
0
4.06818e-05
1.62121e-05
8.80116e-05
6.94577e-05
2.0255e-05
3.62453e-06
3.46648e-05
4.34027e-05
8.26513e-05
3.08978e-05
5.90051e-05
5.75943e-05
6.55609e-05
9.6334e-05
9.17844e-05
9.36453e-05
0.000122705
9.25079e-05
0.000132356
7.61703e-05
0.000129729
0.00011697
0.000147209
0.00014132
0.000189493
0.000125185
0.000164211
0.000214253
0.00020173
0.000176448
0.000260223
0.000181056
0.00023446
0.000263409
0.000305149
0.000329235
0.000355153
0.00023983
0.000226151
0.000341629
0.000261405
0.000319704
0.00028069
0.000373682
0.000399479
0.000279213
0.000314257
0.000405328
0.000345977
0.000329441
0.000272105
0.000269857
0.000239502
0.000282687
0.000281753
0.000222372
0.000299041
0.000236795
0.0002535
5.31385e-07
0
1.39343e-06
0
0
0
0
0
0
0
0
0
0
0
3.45607e-09
0
0
0
0
8.0777e-09
0
0
0
0
0
0
1.15803e-08
0
8.40044e-10
9.47968e-10
1.50315e-08
0
1.30528e-10
0
0
0
0
0
0
0
0
0
3.10242e-09
0
0
0
0
0
0
0
0
2.81586e-07
0
0
0
0
0
0
0
0
0
0
0
0
1.47185e-10
0
0
0
0
1.19025e-08
0
0
0
0
0
0
0
0
0
0
0
0
0
0
0
0
0
0
0
2.4002e-09
0
0
0
0
2.74107e-09
0.000178301
0.000323942
0.000392087
0.000298251
2.62846e-05
3.85791e-05
8.33376e-05
7.50224e-05
0.000136093
0.000106652
8.20958e-05
5.91058e-05
3.26952e-05
1.86514e-05
1.8436e-05
3.52624e-05
2.39593e-05
3.70902e-05
4.31071e-05
2.15802e-05
2.58502e-05
1.1321e-05
5.27653e-05
5.19323e-05
4.43689e-06
0
0
0
0
0
0
0
0
0
0
0
0
0
0
0
0
0
0
0
0
0
0
0
0
0
0
0
2.46211e-05
5.04832e-05
1.90858e-05
1.16208e-05
2.38867e-05
4.98005e-05
9.28826e-05
6.99528e-05
6.56197e-05
0.000150098
0.000100166
0.000148099
5.61891e-05
9.45087e-05
9.62352e-05
3.60635e-05
0
2.82733e-10
0
0
0
0
0
0
0
0
0
0
0
0
0
0
0
0
0
0
0
0
0
0
0
0
0
0
0
0
0
0
0
0
0
0
0
6.40841e-06
1.24232e-05
1.87026e-05
0
0
0
0
0
0
0
0
1.07144e-07
0
0
0
0
0
0
0
0
0
0
0
0
0
0
0
0
0
0
0
0
0
0
0
0
0
0.000221301
0.000175643
0.000240414
0.000185701
0.000260517
0.000152723
0.000361712
0.000172908
0.000314545
0.000334483
0.000335809
0.000341781
0.000356488
0.000325832
0.000245181
0.000317996
0.000394307
0.000411841
0.000374004
0.000375124
0.000340438
0.000340847
0.000209241
0.000163705
0.000120551
0.000114463
7.74054e-05
1.35731e-05
0.000113845
0.00013911
0.000326745
0.000219678
0.000389705
0.00024948
0.000224182
0.000334215
0.000310597
0.000332403
0.000302271
0.000437882
0.00035719
0.000471579
0.000420673
0.000437096
0.000497076
0.00049593
0.000427739
0.000485647
0.000494697
0.000458619
0.000505038
0.00050249
0.000483265
5.18699e-05
6.61933e-05
3.70233e-05
0.000111023
1.93461e-05
6.68909e-05
9.85655e-05
4.98843e-05
3.77313e-05
2.20853e-05
0
4.85222e-06
0.000234792
0.000249746
0.000243417
0.000217186
0.000256117
0.000234762
0.000167681
0.000236744
0.000176919
0.000176407
0.000254134
0.000246935
0.000248643
0.000146332
0.000287198
0.000190955
6.92415e-05
7.05095e-05
0.000153364
0.000138918
0.00024433
0.000157513
0.000124302
6.13303e-05
0.000131638
1.82026e-09
4.42095e-09
2.4586e-09
0
0
0
0
0
0
0
0
0
0
0
0
0
0
0
0
0
2.98191e-09
0
0
0
2.91239e-05
2.64462e-05
2.16376e-05
8.01767e-05
5.24505e-05
1.52364e-05
6.04747e-05
2.35672e-05
1.76207e-05
7.12246e-05
0.0001271
2.4404e-05
4.97572e-05
0.000118249
0.000159407
9.22405e-05
9.85804e-05
0.000197475
0.000115249
0.000176363
0.000123785
0.000152002
0.000154895
0.000168171
0.00018562
0.000170759
0.000205012
0.00028293
0.000201556
0.000199222
0.000222993
0.000278472
0.00020024
0.000309942
0.000327827
0.000316047
0.000317133
0.000257506
0.00031394
0.000292938
0.000318159
0.000355248
0.000314835
0.000310208
0.000383315
0.000382339
0.000295761
0.000286935
0.000341415
0.000185516
0.000268077
0.000120923
0.000255872
0.000264883
0.000158034
0.000252692
0.000197162
0.00022253
0
0
0
0
0
0
0
0
0
0
0
0
0
0
0
0
0
0
0
0
0
0
0
0
0
0
0
0
2.16668e-09
5.65377e-10
0
0
0
0
0
0
0
0
0
0
0
0
2.73268e-07
0
0
0
0
0
1.55062e-09
0
0
1.67958e-07
0
0
0
1.90638e-09
1.31182e-09
0
0
0
0
0
0
0
1.4454e-09
1.49268e-09
0
0
1.07264e-08
1.12439e-08
0
0
0
0
3.23196e-09
0
4.43134e-09
0
0
0
0
0
0
0
0
0
0
0
0
0
0
0
0
0
1.47873e-09
0
0
0
0
0
0
0
0
0.000241005
0.000192554
3.73453e-05
0.000213939
9.20069e-05
0.000127181
9.73256e-05
2.7223e-05
3.2231e-05
0.000242926
7.67785e-05
8.77488e-05
8.12695e-05
1.95721e-05
1.85943e-05
4.58384e-05
3.65514e-05
2.40922e-05
3.13119e-05
3.3911e-05
2.43808e-05
3.21924e-05
1.34928e-05
3.84901e-05
1.24156e-05
3.88427e-05
4.2325e-05
0
0
0
0
0
0
0
6.03465e-10
3.30918e-05
0
0
0
0
0
0
0
0
0
0
2.14917e-11
0
0
0
0
0
4.37783e-05
6.53609e-06
7.82976e-05
8.85649e-05
5.24972e-05
5.9391e-05
9.42391e-05
4.28579e-05
4.055e-05
7.49807e-05
7.87997e-05
2.19699e-05
4.64716e-05
2.4963e-05
7.6474e-05
4.9267e-05
0
0
2.66323e-10
0
0
0
0
4.87869e-11
0
0
0
0
0
0
0
2.02148e-09
0
1.21312e-09
1.19318e-09
0
0
0
0
0
0
0
0
0
0
0
2.19094e-09
0
0
0
0
0
0
0
0
0
0
0
0
0
1.20234e-09
5.08921e-05
4.23714e-05
7.07793e-05
0
0
0
0
0
0
7.41139e-10
0
0
1.87512e-10
0
0
0
0
0
0
0
6.98779e-10
0
0
0
0
0
0
0
8.29026e-10
0
1.00935e-09
0
0
0
0
0
0
0
1.10094e-09
0.000148732
0.000143156
0.000240339
0.000156136
0.00028777
0.000338875
0.000507341
0.000129142
0.000416959
5.04657e-05
0.000144617
8.17877e-05
5.79795e-05
0.000158449
0.000358814
0.000352371
0.000344267
0.000362168
0.000360505
0.000323527
0.000278274
0.0002988
0.000396772
0.000424009
0.000385912
0.000396374
0.000356369
0.000401811
0.000214617
0.000177275
0.000118978
0.000131149
5.55773e-05
0.000122575
5.226e-05
0.000165568
0.000267621
0.000281414
0.000248687
0.000275645
0.000404512
0.000303622
0.000361644
0.000312705
0.000359875
0.000442644
0.000378457
0.000487199
0.000468741
0.000428135
0.000345794
0.000456041
0.000445899
0.000414393
0.000493401
0.000490062
0.00048862
0.000512969
1.64448e-05
5.34652e-05
5.42819e-05
0.000133084
0.00016136
3.83381e-05
1.84576e-05
0.000104102
2.72959e-05
5.02781e-05
4.52267e-05
0
0.000184503
0.000180347
0.000148695
0.000139884
0.00021996
0.000212681
0.000143781
0.000223329
0.000181757
0.00023209
0.000258131
0.000311048
0.000299364
0.000235345
0.000159219
0.000211427
9.10779e-05
0.000118703
0.00015166
2.94799e-05
0.000113301
0.000277092
0.000274264
0.000187037
0.000127537
0
0
0
0
0
0
0
0
0
0
0
0
0
0
0
0
3.00036e-09
0
0
0
0
0
0
0
3.61348e-05
3.26108e-05
1.72167e-05
0
3.78986e-05
5.61854e-05
4.75372e-05
8.78335e-05
9.00952e-05
7.54649e-05
0.000116116
0.000120034
0.00017112
0.000136691
0.000210888
0.000163098
0.000212658
0.000224065
0.000177423
0.000193888
0.000199078
0.000231199
0.000286337
0.000205958
0.00016162
0.000180467
0.000204804
0.000233113
0.000204954
0.000237915
0.000312142
0.000209926
0.000337819
0.000313891
0.000341776
0.000321701
0.00035868
0.000318551
0.000364958
0.000325225
0.000354422
0.00037771
0.000345477
0.000377174
0.000333143
0.000281591
0.00015123
0.000209679
1.26838e-05
0.000201575
6.30635e-05
0.00024654
0.000232175
0.000135719
0.000102771
0
0
3.62259e-06
4.22814e-11
0
0
0
0
0
0
0
1.03358e-09
2.86657e-09
1.32619e-09
3.53761e-09
2.29247e-09
5.28344e-10
0
3.55184e-09
2.6211e-06
0
0
0
9.23654e-10
0
9.55749e-10
2.14971e-09
0
0
0
0
0
0
0
0
1.42611e-12
0
0
0
0
0
0
1.63065e-06
0
0
0
0
0
0
0
0
0
0
0
0
0
0
0
0
0
0
0
0
0
0
0
0
0
0
0
0
0
0
0
0
0
0
0
0
0
0
0
0
0
0
0
0
0
0
0
0
0
0
0
0
0
0
0
0
0
0
0
0
0
0
0
0
0
0
0
0
0
3.31963e-11
0
0
0
0
8.39588e-05
0.000120712
4.39721e-05
0.000182156
0.000120478
7.58833e-05
0.000435353
0.000176876
0.000207165
0.000325585
0.000110699
6.28331e-05
0.000427075
0.000173783
0.000340937
7.71202e-05
5.27787e-05
6.09042e-05
2.78188e-05
3.12347e-05
6.31552e-06
2.46531e-05
2.34648e-05
3.2817e-05
6.34019e-05
1.48145e-05
2.02925e-05
4.14633e-05
1.48625e-05
0
0
0
0
0
3.95232e-05
0
0
0
0
0
0
0
0
0
0
0
3.00854e-09
1.83979e-09
0
2.00872e-09
0
0
0
4.08346e-05
8.27867e-05
4.89355e-05
3.55095e-05
2.86235e-05
4.67318e-05
6.07042e-05
3.22164e-05
4.52404e-05
3.59129e-05
4.60719e-05
3.04898e-05
6.33026e-05
4.40079e-05
5.50407e-05
1.24287e-05
0
8.75321e-10
0
0
0
0
0
3.30893e-11
0
0
3.67458e-11
0
0
0
3.72602e-10
0
0
0
0
0
0
0
0
0
0
0
0
0
0
0
0
0
0
0
0
0
1.02852e-09
0
2.39387e-09
0
0
0
0
0
0
0
0
0
0
0
0
0
0
0
0
0
0
3.1854e-05
0
0
0
0
0
0
0
0
0
0
0
0
0
0
0
0
0
0
0
0
0
0
0
0
0
0
0
0
0
0
0
0
2.08024e-08
2.72483e-08
0
0
0
0
0
0
0.000288628
0.000274653
0.000323926
0.000365456
0.000486585
0.000333335
6.01465e-05
0.000588323
0.000382412
0.000274462
8.4664e-05
0.000189776
0.000174068
0.000367892
0.000358829
0.000346325
0.000371026
0.000327473
0.00035205
0.000166297
0.000276502
0.000446396
0.000438801
0.000415673
0.000363093
0.00036991
0.000352884
0.000150646
6.75708e-05
0.000139247
0.000164741
7.85738e-05
6.00692e-05
0.000224405
4.50654e-05
0.000324875
0.000322649
0.000268399
0.000221763
0.000360442
0.000356763
0.000313929
0.00035821
0.000379122
0.000347727
0.000362978
0.000422794
0.000432038
0.000317996
0.00042641
0.000241926
0.00034706
0.000463014
0.000464086
0.000496115
0.000360833
0.000507641
6.29643e-05
4.7721e-05
8.40045e-05
9.75045e-05
4.14617e-05
0.000113026
4.09814e-05
5.87349e-05
4.46899e-05
2.13995e-05
4.17591e-05
0
0
0
0
0.000215956
0.000100128
0.000104031
0.000127791
0.000149566
0.000241774
0.000183943
0.00021812
0.000280177
0.000245075
0.000275859
0.00025691
0.000213146
0.000227473
0.000175811
0.00026947
0.000180021
9.56287e-05
0.000256661
0.00010992
0.000120919
0.000106759
0.000269083
0.000273954
9.98943e-05
0.000190497
0
0
0
0
0
1.74488e-09
3.62141e-09
0
0
0
0
3.79726e-09
1.35086e-09
0
0
0
0
0
0
0
0
0
0
0
0
3.08895e-06
1.96915e-05
0
7.91474e-05
5.43123e-05
6.51048e-05
0.000100844
1.31414e-05
9.24286e-05
0.000210384
0.000133727
0.000187668
0.000237522
0.000281993
0.000276955
0.00028791
0.000306959
0.000275729
0.000217061
0.000233914
0.000237947
0.000324313
0.000268927
0.000241149
0.00026251
0.000288355
0.000250405
0.000310224
0.000311822
0.000350065
0.00034079
0.000394824
0.000366762
0.00041439
0.000369016
0.000440526
0.000354767
0.000425171
0.000397076
0.000398276
0.000410778
0.000314927
0.00033115
0.000162622
0.00016855
0.000103439
0.000125872
0.000160955
0.000111728
9.77868e-05
0.000160494
0.000105528
0.000150652
0
0
0
0
0
0
0
0
0
1.54697e-09
0
0
0
8.9447e-09
1.20862e-09
2.86599e-09
2.23312e-09
1.69554e-09
3.60778e-09
0
0
0
0
0
0
0
0
0
0
0
0
0
0
0
0
4.43352e-11
0
0
0
7.39411e-07
0
0
0
0
0
0
0
0
0
0
0
0
0
0
0
0
0
0
1.23381e-06
0
0
0
0
0
7.98985e-10
5.85756e-10
1.42164e-09
0
0
0
0
0
0
0
0
0
0
0
0
0
0
0
0
0
0
0
0
0
0
0
0
0
0
0
0
0
0
0
0
0
0
0
0
0
0
0
0
0
2.64701e-09
0
7.36556e-10
0
0
9.69683e-10
0
0
5.46746e-05
0.000120512
9.915e-05
4.0591e-05
0.000123851
0.000288699
3.87776e-05
0.000530428
0.000237091
0.000238764
0.000741476
0.000330137
0.000117652
5.49662e-05
0.000494302
0.000263283
2.95808e-05
0.000105483
0.000162765
5.82427e-05
1.74103e-05
5.71181e-05
8.3516e-05
5.30135e-06
1.2149e-05
2.3326e-05
3.60357e-05
1.1153e-05
2.07545e-05
1.75257e-05
3.5749e-05
1.94956e-05
3.78943e-05
0
0
0
1.42657e-05
0
0
0
3.1539e-09
0
0
0
0
0
0
0
0
0
0
0
0
3.34308e-09
0
0
0
8.0281e-05
4.88623e-05
5.04591e-05
3.44819e-05
4.64606e-05
2.97106e-05
1.55737e-05
1.57994e-05
4.29136e-05
5.32815e-05
7.55382e-05
5.57292e-05
7.36386e-05
0
0
0
0
0
0
5.27525e-09
9.38021e-10
0
0
0
0
0
0
0
0
0
8.12784e-08
0
0
0
0
0
0
0
5.14766e-10
0
0
4.44746e-09
0
0
0
0
0
0
0
0
0
0
0
0
0
0
0
0
0
0
0
0
0
0
2.21562e-09
0
0
0
0
0
0
0
0
0
0
0
0
0
0
0
5.10743e-11
0
0
0
1.69007e-09
0
0
0
0
0
0
0
0
0
0
0
0
0
0
0
0
0
0
0
0
0
0
0
0
0
1.38068e-09
0
0
0
0
0
0
0
0
0.000461787
0.000354849
0.000536888
0.000482435
0.000811085
0.000428294
0.000297089
0.000111786
0.000150502
0.000125734
0.000144879
7.48645e-05
3.72081e-05
0.000117135
0.000334502
0.000321891
0.000370543
0.000339759
0.000308737
0.000300037
0.000421756
0.000412293
0.000488028
0.000401164
0.000281449
0.000390847
0.000331323
0.000312309
0.000226696
9.86902e-05
0.000132372
0.000113235
5.46577e-05
0.000123119
0.00010733
0.000259514
0.000275497
0.000344481
0.000246719
0.000211609
0.000244596
0.000288682
0.000240506
0.000244219
0.000241726
0.000234587
0.000327885
0.000154444
0.000437116
0.000212586
0.000405533
0.000487693
0.000382297
0.00016377
0.00036641
0.000432515
0.000226921
0.000302426
6.0275e-05
1.87222e-05
7.91984e-05
8.49393e-05
6.15863e-05
0.000129353
7.16777e-05
8.04209e-05
3.62318e-05
6.3588e-05
7.1589e-05
1.30618e-05
0
2.97254e-05
0.000157048
6.12311e-05
0.00011178
0.000288245
0.000251265
0.000306851
0.000280511
0.000319839
0.000302615
0.000300295
0.000257598
0.000187499
0.000208815
0.000198965
0.000257827
0.00016101
0.000186616
0.000255209
0.000155322
0.000162079
0.000133936
0.000259522
0.000272071
8.05754e-05
7.61119e-05
0
0
0
0
0
0
0
0
0
4.18667e-09
0
0
0
0
0
3.18655e-11
3.9455e-11
0
0
0
0
0
0
0
0
8.22851e-06
2.0627e-06
8.13193e-05
2.99345e-05
8.69127e-05
7.56046e-05
4.76754e-05
0.000127072
0.000174231
0.00023811
0.000191603
0.000255921
0.000229226
0.00035676
0.000291213
0.000329963
0.000362876
0.000308577
0.000314833
0.000295904
0.000311244
0.000391502
0.000348981
0.000353665
0.000365991
0.000370926
0.000362356
0.000391219
0.000387931
0.000412147
0.000463726
0.00046377
0.000487458
0.000457427
0.000534622
0.000444452
0.000545055
0.000502352
0.000443426
0.00040346
0.000325774
0.00020049
0.000148553
6.65763e-05
8.96818e-05
4.99759e-05
0.00017928
0.000214955
0.000132691
0.000136016
0.000228411
0.000224312
0.000146803
0
0
0
0
0
0
0
0
0
1.40942e-10
0
0
0
0
0
0
0
8.5454e-09
0
0
2.12779e-08
0
0
0
6.30987e-10
0
0
0
0
0
6.97316e-10
0
0
0
0
0
0
0
0
0
0
0
0
0
0
0
1.11952e-09
1.83979e-09
1.84961e-09
0
0
0
0
1.01769e-09
0
0
1.21016e-09
0
0
0
0
2.55685e-09
0
1.42113e-09
0
0
0
0
0
0
0
0
0
0
0
0
0
0
0
0
0
0
0
0
0
0
0
0
0
0
0
0
0
0
0
0
0
0
0
0
0
0
0
0
0
0
0
0
0
0
0
0
0
0
0
0
0
8.18711e-10
0
0
0
3.79191e-09
0
0
0.000167876
4.28686e-05
9.81137e-05
0.000243362
9.31792e-05
0.000196662
0.000167274
0.00016816
9.36216e-05
0.000370726
0.000185509
0.000231494
0.000193799
0.000267241
0.000143822
0.000104978
5.19614e-05
0.00028283
0.000185087
0.000314843
0.000170815
3.44e-05
0.000199382
0.000104621
7.27911e-05
1.1207e-05
1.91071e-05
3.43616e-05
1.92268e-05
5.20926e-05
6.85785e-05
5.66737e-05
4.776e-06
1.82121e-05
1.90093e-05
2.41897e-05
5.53724e-06
0
0
1.36993e-05
3.25639e-05
0
0
1.20514e-09
0
0
0
0
5.21323e-11
0
0
0
3.92218e-11
0
0
0
4.23074e-10
0
0
0
0
5.63377e-05
3.60121e-05
3.5547e-05
7.06022e-05
2.7536e-05
7.18988e-05
6.29402e-05
2.83481e-05
5.59561e-05
6.78557e-05
1.65378e-05
2.3255e-10
0
0
1.99623e-10
0
0
3.25269e-10
2.89928e-10
0
0
0
0
0
0
0
0
4.33013e-08
6.86582e-08
0
0
2.54517e-09
0
2.1169e-09
0
0
0
0
6.62482e-09
0
1.92215e-09
8.14725e-09
0
0
0
0
0
0
0
0
0
0
0
0
0
0
0
0
0
0
5.57518e-09
0
0
0
3.07772e-09
0
0
0
0
0
0
0
0
0
0
0
0
0
0
0
0
0
0
0
0
0
0
4.43094e-10
1.04617e-09
0
0
0
0
0
0
0
0
9.81572e-10
0
0
0
0
0
0
6.66315e-10
0
0
0
0
0
0
0
0
0
0
0
0
0
0
0
0
0
0
0
0
0
0
0
0
8.37818e-05
0.000401187
0.000303388
0.000157113
0.000249564
0.00018193
4.83194e-05
0.000168607
7.92135e-05
1.59695e-05
7.89774e-05
0.000148764
0.000161189
0.000101954
0.000198894
0.000296068
0.000298233
0.000356322
0.000316629
0.00032781
0.000328411
0.000296288
0.000263202
0.000365168
0.000335916
0.000289029
0.000276115
0.000314918
0.000275964
0.000262258
0.000311004
0.000142826
0.000124965
0.000161047
0.000178647
0.000259034
0.000259764
0.000220108
0.000178355
0.000275384
0.000273097
0.000119734
6.90536e-05
0.000117776
9.33461e-05
0.000113807
0.000102695
0.000217477
0.000175232
0.0004715
0.000276659
0.000457485
0.00066029
2.90917e-05
0.000110383
0.000325153
0.000269398
4.48358e-05
0.000113149
1.16427e-05
0.000141752
0.000173834
7.90371e-05
0.000160394
0.00010022
0.000176235
9.24016e-05
5.50095e-05
0.0001191
6.39052e-05
5.11291e-05
0.000122365
0.00025503
0.000170541
0.000298058
0.000274854
0.00032055
0.000288812
0.000343136
0.000295117
0.000271915
0.000245182
0.000231937
0.000257513
0.000245289
0.000260116
0.000232156
0.000161431
0.000131979
0.000111426
8.99337e-05
0.000117094
0.000292084
0.000268503
0.000211224
4.00685e-05
1.73057e-09
2.23688e-09
3.45286e-09
0
0
0
0
0
0
0
0
0
0
0
0
0
0
0
0
0
0
0
0
0
8.28611e-07
2.93068e-05
2.2522e-05
6.30961e-05
0.000159769
0.000169847
8.05781e-05
1.71067e-05
0.000250245
0.000217234
0.000227852
0.000242234
0.000320472
0.000313891
0.00041928
0.000409926
0.000404454
0.000437158
0.0003823
0.000362621
0.000401927
0.000361957
0.000484799
0.000396256