/*--------------------------------*- C++ -*----------------------------------*\
  =========                 |
  \\      /  F ield         | OpenFOAM: The Open Source CFD Toolbox
   \\    /   O peration     | Website:  https://openfoam.org
    \\  /    A nd           | Version:  8
     \\/     M anipulation  |
\*---------------------------------------------------------------------------*/
FoamFile
{
    version     2.0;
    format      ascii;
    class       volScalarField;
    location    "14880";
    object      Hclip;
}
// * * * * * * * * * * * * * * * * * * * * * * * * * * * * * * * * * * * * * //

dimensions      [0 1 0 0 0 0 0];

internalField   nonuniform List<scalar> 
526318
(
0.896629
0.859489
0.936975
0.836084
0.916808
0.860562
0.882895
0.80294
0.861351
0.741307
0.718223
0.839817
0.787596
0.827379
0.790776
0.814314
0.791391
0.985175
0.900819
0.938555
0.940131
0.893244
0.647748
0.885559
0.778567
0.641777
0.913273
0.910252
0.914315
0.925966
0.954664
1.00112
0.985738
0.868044
0.858057
0.831204
0.831259
0.93494
0.860135
0.801023
0.879075
0.84185
0.497535
0.556192
0.461422
0.505323
0.485412
0.604398
0.786337
0.688623
0.770871
0.765334
0.725806
0.682699
0.178848
0.430462
0.422425
0.226078
0.940834
0.956007
0.96763
0.929682
0.874703
0.99157
0.995792
0.952366
0.942653
0.941267
0.843672
0.843831
0.95219
0.728844
0.789916
0.67702
0.632652
0.621902
0.720448
0.716767
0.630298
0.668606
0.753234
0.754397
0.707227
0.661298
0.692539
0.755344
0.752897
0.735427
0.686162
0.760596
0.662774
0.609479
0.606338
0.538516
0.53271
0.536555
0.536852
0.532945
0.530977
0.532104
0.001
0.001
0.001
0.0361083
0.0927147
0.001
0.439175
0.254999
0.563905
0.531814
0.574284
0.680162
0.914569
0.803757
0.912687
0.925367
0.992799
0.963862
1.00665
0.528325
0.528358
0.531385
0.534596
0.489193
0.529606
0.440978
0.48318
0.392777
0.441733
0.391469
0.391597
0.38099
0.356261
0.34897
0.374756
0.317579
0.370963
0.321159
0.339955
0.284563
0.291434
0.312531
0.340468
0.326577
0.286156
0.283157
0.301385
0.28863
0.284503
0.293121
0.304624
0.291131
0.296146
0.296418
0.298304
0.259452
0.297082
0.295307
0.261754
0.220984
0.296625
0.243954
0.302391
0.796954
0.88635
0.836046
0.809219
0.620815
0.685597
0.62715
0.623921
0.626619
0.623479
0.641977
0.622637
0.556942
0.528299
0.494262
0.434507
0.493942
0.536852
0.537056
0.537001
0.42435
0.477086
0.364373
0.372859
0.381369
0.371663
0.374301
0.375941
0.366643
0.368285
0.365017
0.353706
0.337186
0.358521
0.352473
0.323906
0.300931
0.330884
0.312753
0.305648
0.325614
0.313582
0.31826
0.281505
0.301492
0.328869
0.330084
0.775761
0.795927
0.816072
0.813955
0.784676
0.774351
0.784657
0.658431
0.680861
0.442869
0.423036
0.423311
0.544827
0.684455
0.550846
0.591955
0.593939
0.537644
0.520211
0.0243083
0.001
0.162575
0.36644
0.001
0.001
0.001
0.001
0.001
0.001
0.992265
0.97356
1.02419
1.02005
0.988755
0.969969
0.877994
0.969291
0.814597
0.763551
0.760585
0.757212
0.760903
0.761613
0.741944
0.744494
0.660635
0.728375
0.54336
0.599495
0.527855
0.542495
0.00100536
0.001
0.001
0.00100202
0.001
0.001
0.001
0.15606
0.536925
0.353501
0.589974
0.589778
0.698083
0.809284
0.920303
0.929911
0.963804
0.93915
1.00677
1.03828
0.507562
0.509372
0.469304
0.439578
0.338277
0.374817
0.301751
0.311252
0.300913
0.29527
0.285026
0.291758
0.217909
0.239604
0.272993
0.312311
0.365521
0.336242
0.297328
0.294502
0.227282
0.219629
0.267878
0.32454
0.243638
0.285961
0.2851
0.253881
0.250042
0.216544
0.215387
0.172887
0.177183
0.181611
0.165851
0.292907
0.331588
0.292293
0.332285
0.684668
0.656847
0.550731
0.646237
0.556431
0.609988
0.620402
0.609468
0.623881
0.62182
0.535871
0.448743
0.37847
0.357925
0.437745
0.374245
0.364988
0.475934
0.36391
0.416308
0.35508
0.354304
0.363389
0.354755
0.369359
0.362641
0.362377
0.366751
0.364775
0.364598
0.373003
0.367874
0.378991
0.377795
0.378637
0.357072
0.370231
0.356576
0.328952
0.329956
0.356918
0.384572
0.37819
0.355875
0.337976
0.361785
0.403667
0.404919
0.418979
0.377343
0.409725
0.424653
0.467678
0.417535
0.420107
0.447777
0.478682
0.604461
0.687371
0.595529
0.615114
0.711774
0.769497
0.672389
0.546314
0.659381
0.558544
0.577421
0.311635
0.259837
0.287425
0.270207
0.397056
0.513646
0.442769
0.512282
0.514148
0.532677
0.514272
0.001
0.001
0.0864451
0.001
0.163876
0.0537682
0.001
0.00100998
0.001
0.00100962
0.001
0.00100889
0.001
0.001
0.001
0.001
1.02232
1.00665
1.04104
1.03886
1.01067
0.983914
0.905889
0.824807
0.751886
0.770243
0.749472
0.743916
0.722386
0.728941
0.707134
0.707107
0.655688
0.697482
0.622253
0.565393
0.509936
0.467555
0.001
0.00107371
0.00107371
0.001
0.001
0.001
0.001
0.00107372
0.00107377
0.00107371
0.00100999
0.00100984
0.001
0.00100942
0.001
0.001
0.001
0.001
0.001
0.001
0.001
0.001
0.0730194
0.0496268
0.241799
0.0895467
0.452889
0.609331
0.628749
0.71425
0.939566
0.835243
0.948856
0.950382
0.96391
0.999426
1.01993
1.04601
0.427898
0.425899
0.380446
0.407313
0.346304
0.311365
0.300871
0.300826
0.294881
0.30085
0.253405
0.247538
0.195052
0.210222
0.261494
0.232251
0.210451
0.256287
0.252098
0.271043
0.172289
0.167781
0.1958
0.203036
0.205569
0.162273
0.167791
0.161929
0.17065
0.153222
0.147211
0.44966
0.423324
0.422389
0.421113
0.442521
0.549878
0.509716
0.485718
0.369445
0.414669
0.401681
0.400754
0.307449
0.236324
0.413696
0.535221
0.419422
0.42476
0.403417
0.484447
0.467457
0.538942
0.573257
0.496399
0.477468
0.511496
0.390538
0.360314
0.359032
0.359512
0.27742
0.329401
0.256522
0.206231
0.187063
0.30594
0.305847
0.35426
0.35554
0.35409
0.358852
0.353933
0.361218
0.35621
0.367531
0.360599
0.378868
0.372538
0.379429
0.378047
0.405234
0.390458
0.416943
0.416874
0.367767
0.35112
0.413129
0.399961
0.38702
0.403283
0.386623
0.375347
0.427111
0.402338
0.505661
0.514601
0.463119
0.509621
0.517057
0.480799
0.572948
0.545248
0.614457
0.634913
0.657941
0.575334
0.570312
0.579194
0.537825
0.518336
0.489771
0.582428
0.429786
0.406872
0.456093
0.476386
0.154806
0.20753
0.288277
0.409482
0.441408
0.477893
0.382978
0.344201
0.309383
0.247414
0.001
0.001
0.001
0.001
0.0902356
0.150688
0.001
0.001
0.00100979
0.001
0.001
0.001
0.001
0.001
0.001
0.001
0.001
0.001
0.001
0.001
0.001
0.00101
0.001
0.001
0.001
0.001
0.00119126
0.001
0.001
0.001
0.00119103
0.00119119
0.001
0.001
0.001
0.001
0.001
0.001
0.001
0.001
0.00100959
0.001
0.00100965
0.001
0.001
0.001
1.01343
1.02044
1.03728
1.03455
1.00845
0.94603
0.752392
0.846368
0.732584
0.727287
0.70792
0.704228
0.698711
0.698887
0.69262
0.693225
0.635955
0.609592
0.509983
0.550585
0.406209
0.446397
0.001
0.001
0.001
0.001
0.001
0.001
0.001
0.001
0.00101
0.001
0.001
0.001
0.001
0.001
0.001
0.001
0.001
0.00100737
0.001
0.001
0.001
0.001
0.001
0.001
0.001
0.001
0.00101
0.001
0.001
0.001
0.112226
0.001
0.13104
0.132648
0.427605
0.257983
0.637823
0.592415
0.654888
0.764287
0.873609
0.948751
0.966422
0.950272
0.991304
1.02817
1.00756
1.00542
0.00115372
0.001
0.001
0.001
0.001
0.00104833
0.001
0.001
0.001
0.001
0.001
0.001
0.001
0.001
0.001
0.00101
0.001
0.406478
0.40651
0.406894
0.372747
0.293047
0.327748
0.253466
0.244275
0.211187
0.203009
0.159999
0.15872
0.191955
0.187387
0.149835
0.180956
0.17598
0.225416
0.207208
0.208624
0.132545
0.0995552
0.101605
0.135696
0.149586
0.150946
0.125854
0.129086
0.0880573
0.0793204
0.043782
0.0497857
0.644913
0.617043
0.650071
0.665631
0.610991
0.570723
0.74062
0.763036
0.825454
0.830783
0.382057
0.422562
0.472291
0.556265
0.382756
0.321869
0.35693
0.35924
0.194903
0.254608
0.298078
0.190275
0.405117
0.400149
0.402738
0.39965
0.424412
0.402792
0.415701
0.435076
0.313384
0.303479
0.205319
0.288889
0.282215
0.240029
0.191404
0.212286
0.153914
0.173741
0.154791
0.240037
0.303043
0.234322
0.303389
0.355789
0.355546
0.354496
0.355007
0.359728
0.379513
0.371699
0.388746
0.384501
0.405708
0.399873
0.421417
0.41979
0.421265
0.421619
0.429775
0.424654
0.465111
0.434919
0.402469
0.402857
0.470132
0.437357
0.442584
0.484884
0.523761
0.525493
0.524079
0.527112
0.55815
0.60939
0.674163
0.69295
0.703241
0.679097
0.819497
0.763051
0.889846
0.929002
0.918332
0.953267
1.01481
0.878256
0.961102
0.98976
1.05918
1.108
1.13599
1.15627
1.18779
1.13087
1.18334
1.14228
1.22297
1.22514
1.2699
1.23913
1.30172
1.33108
1.32286
1.26875
1.33628
1.35894
1.32516
1.32125
1.38724
1.36282
1.39438
1.33635
1.33414
1.40263
1.37352
1.32185
1.32163
1.35217
1.3833
0.375012
0.341486
0.516736
0.510336
0.473038
0.469589
0.475235
0.241269
0.371089
0.0740012
0.101008
0.206031
0.188346
0.063232
0.144906
0.137085
0.308135
0.213736
0.214484
0.118079
0.118481
0.127403
0.151101
0.001
0.00101
0.001
0.001
0.001
0.001
0.00101
0.001
0.001
0.001
0.001
0.0016977
0.001
0.001
0.001
0.001
0.001
0.001
0.001
0.001
0.00137291
0.001
0.001
0.001
0.001
0.001
0.001
0.001
0.001
0.001
0.00100829
0.001
0.001
0.001
0.00100928
0.001
0.001
0.00104659
0.001
0.00100665
0.001
0.001
0.00101
0.001
0.0010439
0.001
0.0010439
0.001
0.00100234
0.001
0.00101
0.00101
0.001
0.001
0.001
0.001
0.001
0.001
0.001
0.001
0.0010078
0.001
0.001
0.001
0.001
0.001
0.001
0.001
0.001
0.00101
0.001
0.001
0.999705
0.98886
0.961823
0.962451
0.877731
0.954315
0.771656
0.710783
0.702994
0.694476
0.700023
0.698249
0.637411
0.642571
0.489544
0.44661
0.407463
0.580353
0.581026
0.530491
0.529803
0.52843
0.001
0.001
0.00108934
0.00108929
0.001
0.001
0.001
0.001
0.00108919
0.001
0.001
0.00100893
0.001
0.001
0.001
0.001
0.001
0.001
0.001
0.001
0.001
0.001
0.0014028
0.00140292
0.001
0.001
0.001
0.131163
0.26038
0.133765
0.423402
0.593512
0.624619
0.654957
0.734374
0.855757
0.913527
0.88728
0.939731
0.875718
0.920843
0.960748
0.925418
0.917487
0.00102092
0.001
0.00101
0.001
0.001
0.00119329
0.001
0.001
0.00119329
0.001
0.001
0.001
0.001
0.001
0.001
0.001
0.001
0.001
0.00101
0.001
0.001
0.001
0.001
0.001
0.00205658
0.0010107
0.38191
0.380333
0.300553
0.31841
0.194709
0.217432
0.154945
0.154756
0.152882
0.155053
0.128243
0.131701
0.103303
0.10415
0.08063
0.118845
0.195326
0.164754
0.202955
0.196974
0.0186354
0.0402752
0.0822899
0.0619614
0.0696039
0.0714728
0.0205945
0.0115266
0.001
0.00936425
0.0189356
0.0147783
0.869488
0.86949
0.693887
0.61328
0.596219
0.585433
0.866715
0.779602
1.02766
1.09729
0.992823
0.924399
1.11228
1.09629
1.16136
1.20942
1.23875
1.23894
1.26539
1.23903
1.29447
1.32148
1.315
1.31779
1.33811
1.32131
1.32332
1.36832
1.31214
1.30584
0.435402
0.357969
0.500934
0.571567
0.359949
0.303225
0.357293
0.357967
0.189278
0.237512
0.0772808
0.241778
0.127251
0.404016
0.341968
0.401816
0.399179
0.402638
0.293599
0.199297
0.120495
0.105622
0.121376
0.156797
0.0848636
0.071094
0.001
0.0867479
0.16629
0.161813
0.0807914
0.180375
0.249101
0.195736
0.302062
0.250178
0.290186
0.346633
0.383913
0.357249
0.391847
0.39468
0.404355
0.394516
0.428637
0.437575
0.438298
0.45313
0.455547
0.458043
0.490035
0.503147
0.493349
0.487769
0.489066
0.485146
0.501628
0.518103
0.565664
0.556243
0.522893
0.556322
0.552634
0.58574
0.619998
0.682999
0.715284
0.712186
0.723785
0.793428
0.874508
0.9499
0.958399
1.08679
0.964494
1.01027
1.16485
1.18233
1.18861
1.21959
1.27315
1.31887
1.33381
1.33355
1.36517
1.39192
1.41953
1.42533
1.41069
1.41342
1.42225
1.40868
1.33562
1.39686
1.36603
1.32309
1.32125
1.35423
1.38404
1.39363
1.32298
1.3843
1.34072
0.169581
0.160692
0.233054
0.308207
0.196905
0.25979
0.398874
0.338303
0.361738
0.195293
0.102867
0.0683917
0.0650136
0.164983
0.161501
0.001
0.001
0.11767
0.00800203
0.118273
0.115158
0.123877
0.119267
0.132082
0.148701
0.001
0.001
0.001
0.001
0.00149056
0.0014914
0.001
0.001
0.001
0.00169757
0.001
0.001
0.001
0.001
0.001
0.00101
0.001
0.00137255
0.001
0.00101
0.001
0.001
0.001
0.001
0.001
0.001
0.00105197
0.001
0.001
0.001
0.001
0.001
0.001
0.001
0.001
0.001
0.001
0.001
0.001
0.001
0.001
0.00102286
0.001
0.001
0.001
0.001
0.001
0.001
0.001
0.00101
0.001
0.00100962
0.001
0.001
0.001
0.001
0.001
0.001
0.001
0.001
0.914237
0.902706
0.895704
0.895734
0.826628
0.891381
0.696866
0.757276
0.662747
0.655754
0.605945
0.585033
0.530734
0.530182
0.446968
0.340001
0.318572
0.485552
0.532919
0.531063
0.531355
0.530608
0.0010893
0.001
0.00108947
0.001
0.001
0.001
0.001
0.001
0.00100548
0.001
0.001
0.001
0.001
0.001
0.001
0.00100999
0.001
0.001
0.001
0.001
0.001
0.001
0.001
0.00101
0.001
0.001
0.0957918
0.12823
0.325435
0.15763
0.462004
0.598907
0.56946
0.677631
0.853406
0.752945
0.827056
0.821528
0.826937
0.850771
0.906416
0.908496
0.904197
0.872075
0.001
0.001
0.001
0.001
0.001
0.001
0.001
0.001
0.001
0.001
0.001
0.001
0.001
0.001
0.001
0.001
0.001
0.001
0.001
0.00100999
0.001
0.001
0.00193404
0.001
0.00101
0.001
0.001
0.001
0.001
0.001
0.001
0.256046
0.256756
0.220217
0.197528
0.156123
0.179168
0.142987
0.143499
0.299618
0.240717
0.219999
0.0695294
0.0806266
0.0118283
0.0134255
0.0807952
0.082859
0.0745504
0.110682
0.177662
0.115128
0.164142
0.154783
0.0393196
0.0194196
0.0306727
0.0545545
0.001
0.001
0.001
0.001
0.00590888
0.001
0.001
0.001
1.4429
1.45316
1.47594
1.46045
1.49791
1.48264
1.50414
1.50063
1.55459
1.54326
1.50415
1.55724
1.52434
1.57924
1.41053
1.36133
1.38102
1.42903
1.41453
1.38278
1.38445
1.43833
1.4461
1.42066
1.39929
1.45248
1.43598
1.4421
1.46842
1.32273
1.3237
1.32342
1.32181
1.3403
1.35975
0.9135
0.861664
0.75581
0.657904
0.573163
0.64579
0.850697
0.83108
1.07466
1.09248
0.985554
1.06076
1.10193
1.14968
1.19766
1.23892
1.23731
1.23867
1.23416
1.26541
1.27852
1.30402
1.29098
1.29425
1.29801
1.30948
1.28287
1.28718
0.482417
0.409306
0.351846
0.342757
0.39967
0.571535
0.551733
0.277945
0.337435
0.214649
0.14382
1.42717
1.44734
1.46598
1.47352
1.47578
1.48823
1.49179
1.51888
1.5038
1.52028
1.52183
1.56513
1.59026
1.61346
1.61428
1.62091
1.63387
1.6577
0.118447
0.069877
0.0655317
0.326542
0.214846
0.386414
0.288226
0.209873
0.108365
0.105369
0.105343
0.10772
0.001
0.0348186
0.001
0.001
0.001
0.001
0.172795
0.109456
0.001
0.197696
0.19528
0.199275
0.253082
0.210783
0.336412
0.283467
0.369897
0.333159
0.3678
0.394118
0.417012
0.440872
0.463548
0.4653
0.469242
0.465987
0.520832
0.512202
0.503978
0.50132
0.554194
0.527203
0.59725
0.561607
0.542576
0.58279
0.630607
0.617698
0.643205
0.680571
0.680204
0.628185
0.734735
0.761282
0.730369
0.723344
0.802006
0.89124
0.95764
1.02738
0.976705
0.991107
1.12372
1.17608
1.22595
1.20026
1.26973
1.29865
1.3411
1.3573
1.35204
1.37106
1.43081
1.40939
1.41349
1.42308
1.42652
1.43248
1.40487
1.40678
1.42258
1.42303
1.4158
0.156627
0.143947
0.164779
0.091984
0.107902
0.127248
0.0602099
0.210356
0.106362
0.0425514
0.0639193
0.0409113
0.001
0.0415991
0.0659964
0.001
0.001
0.001
0.001
0.118836
0.00920613
0.0122697
0.0148294
0.001
0.001
0.001
0.001
0.001
0.0011266
0.00112658
0.00148967
0.001
0.00101
0.001
0.001
0.001
0.001
0.001
0.001
0.001
0.00100984
0.001
0.00112652
0.001
0.001
0.001
0.00101
0.001
0.001
0.001
0.001
0.00239346
0.001
0.001
0.001
0.001
0.001
0.001
0.00100993
0.001
0.001
0.001
0.001
0.001
0.00101249
0.001
0.001
0.001
0.001
0.0010121
0.001
0.001
0.001
0.001
0.001
0.001
0.001
0.001
0.00101
0.001
0.001
0.001
0.001
0.001
0.001
0.001
0.001
0.001
0.001
0.00209797
0.001
0.001
0.001
0.001
0.00209793
1.60741
1.57818
1.55561
1.65296
1.68614
1.6838
0.89059
0.889078
0.871312
0.875368
0.806739
0.863779
0.700147
0.615811
0.547888
0.556919
0.531514
0.531957
0.529418
0.530515
0.409693
0.325252
0.415384
0.496282
0.49495
0.001
0.001
0.001
0.001
0.001
0.001
0.001
0.001
0.001
0.001
0.00100943
0.001
0.001
0.0941671
0.127729
0.154461
0.00100998
0.001
0.001
0.001
0.001
0.001
0.001
0.001
0.001
0.001
0.001
0.297128
0.439086
0.553176
0.550789
0.867069
0.788055
0.800578
0.590227
0.674225
0.771639
0.815311
0.816435
0.822812
0.836199
0.868011
0.855302
0.001
0.00116106
0.001
0.001
0.001
0.001
0.00100904
0.001
0.001
0.001
0.001
0.001
0.001
0.001
0.001
0.001
0.001
0.00100504
0.001
0.001
0.001
0.001
0.001
0.001
0.001
0.001
0.001
0.001
0.001
0.001
0.00101
0.001
0.001
0.001
0.001
0.001
0.001
0.254456
0.29067
0.278941
0.220079
0.221265
0.193292
0.213835
0.0810638
0.107763
0.0200516
0.0203162
0.228001
0.212834
0.001
0.001
0.001
0.001
0.0335563
0.0113915
0.0540762
0.001
0.115495
0.0732265
0.113019
0.133178
0.001
0.001
0.001
0.001
0.001
0.001
0.001
0.001
0.001
0.001
0.001
0.001
1.44303
1.45544
1.48018
1.50134
1.51105
1.51053
1.54671
1.51807
1.37352
1.37393
1.35596
1.3765
1.40941
1.37348
1.41972
1.39221
1.31151
1.29672
1.29773
1.32837
1.35599
1.33079
0.91993
0.843556
0.733228
0.825469
0.669073
0.587585
0.836085
0.839827
1.07965
1.08018
1.09545
0.994936
1.07017
1.1835
1.1276
1.07111
1.11372
1.21392
1.22911
1.2184
1.22472
1.23374
1.25615
1.28399
1.27202
1.27878
1.28177
1.28452
1.28094
1.28314
1.2792
0.325116
0.330772
0.466987
0.552192
0.329354
0.411371
0.566552
0.578546
0.320722
0.258178
0.181994
0.236945
1.4626
1.41006
1.43938
1.48399
1.47997
1.48252
1.49264
1.51443
1.53465
1.545
1.54602
1.55041
1.57332
1.61515
1.59662
1.61551
1.63382
1.68023
1.65871
1.48907
1.49801
1.51281
1.68516
1.68814
1.6844
0.0662893
0.0670272
0.0675925
0.0371596
0.136576
0.148714
0.001
0.001
0.0266231
0.001
0.001
0.001
0.001
0.00101
0.001
0.00100987
0.001
0.001
0.0489712
0.001
0.001885
0.125758
0.205886
0.112863
0.271239
0.301189
0.231345
0.274764
0.333098
0.298392
0.425376
0.366857
0.438248
0.453917
0.461296
0.451395
0.502195
0.53938
0.581325
0.575396
0.582353
0.568742
0.593022
0.576898
0.627957
0.628547
0.652368
0.655179
0.633232
0.631192
0.752637
0.799777
0.700553
0.760078
0.808438
0.770318
0.872035
0.917128
1.01457
1.0544
1.03068
1.12419
1.17396
1.27894
1.25934
1.32059
1.29556
1.3901
1.3965
1.39028
1.41943
1.44563
1.44717
1.49685
1.4657
1.49401
1.46715
1.43299
1.47727
1.43883
1.47379
1.41356
0.001
0.001
0.001
0.001
0.0792032
0.0616537
0.0630406
0.0407996
0.062038
0.001
0.001
0.001
0.001
0.001
0.001
0.001
0.001
0.001
0.001
0.001
0.001
0.001
0.001
0.001
0.001
0.00102972
0.001
0.001
0.00112658
0.00112658
0.001
0.001
0.001
0.001
0.00101
0.001
0.0010004
0.001
0.001
0.001
0.001
0.001
0.00218716
0.001
0.001
0.001
0.001
0.001
0.00101
0.001
0.001
0.00221832
0.001
0.001
0.001
0.00100982
0.00130892
0.001
0.00100983
0.001
0.001
0.001
0.00101
0.001
0.00101229
0.00101209
0.001
0.001
0.00101213
0.001012
0.001
0.001
0.001
0.001
0.00160568
0.001
0.00160556
0.001
0.001
0.001
0.001
0.00100984
0.00101
0.00100994
0.001
0.001
0.001
0.001
0.001
0.001
0.001
0.001
0.001
0.001
0.00130886
0.001
0.00100958
0.00100997
0.001
0.001
0.001
0.001
0.00101
1.55283
1.58465
1.58094
1.58329
1.61537
1.7274
1.70293
1.70587
1.72509
1.67383
0.805428
0.786401
0.720254
0.731386
0.681578
0.702816
0.628207
0.581556
0.562273
0.53095
0.50648
0.50388
0.415217
0.425244
0.29369
0.337746
0.335949
0.001
0.001
0.001
0.00101
0.001
0.001
0.001
0.126281
0.268438
0.128151
0.001
0.001
0.001
0.001
0.001
0.001
0.00101
0.001
0.001
0.00102149
0.001
0.001
0.001
0.001
0.001
0.669311
0.65937
0.716806
0.409468
0.551983
0.549975
0.585206
0.716194
0.774384
0.742706
0.651202
0.732188
0.75379
0.76649
0.68364
0.715468
0.001
0.001
0.00116109
0.00101
0.001
0.001
0.00101
0.00117451
0.001
0.001
0.001
0.001
0.001
0.001
0.001
0.00102848
0.001
0.00102859
0.00102851
0.00101
0.001
0.001
0.001
0.001
0.001
0.00100577
0.001
0.001
0.001
0.001
0.00109018
0.001
0.00100563
0.001
0.001
0.001
0.001
0.001
0.001
0.001
0.001
0.001
0.001
0.001
0.00102854
0.2714
0.282721
0.294646
0.157995
0.183568
0.136753
0.140914
0.0709109
0.0605244
0.001
0.001
0.001
0.00123275
0.0749693
0.0695731
0.001
0.001
0.001
0.001
0.001
0.0010239
0.001
0.0334828
0.115819
0.0817396
0.138046
0.0954018
0.001
0.00120102
0.001
0.00102387
0.001
0.001
0.001
0.001
0.00101
0.001
0.001
0.00120101
1.44607
1.40489
1.47147
1.44058
1.44882
1.48591
1.49145
1.53028
1.52622
1.5663
1.54062
1.49352
1.56002
1.5279
1.34095
1.33863
1.33138
1.34205
1.35686
1.3668
1.36945
1.3743
1.28677
1.28276
1.3095
1.29251
1.3253
1.33078
0.922399
0.843353
0.760778
0.837153
0.635248
0.722032
0.839404
0.844664
1.07095
1.06984
1.07311
0.999961
1.15694
1.20575
1.11688
1.07077
1.21172
1.21151
1.22534
1.2105
1.2484
1.26895
1.28175
1.28213
1.2884
1.27486
1.28143
1.28329
1.28283
1.27164
0.326424
0.318721
0.487267
0.562001
0.463521
0.382562
0.616078
0.561747
0.295962
0.319965
0.286066
0.215505
1.44263
1.50554
1.49205
1.50068
1.5182
1.51162
1.54854
1.55641
1.52978
1.54321
1.5368
1.54622
1.5504
1.57416
1.59724
1.61665
1.61687
1.66879
1.64566
1.69358
1.70228
1.56708
1.58236
1.70336
1.7101
0.001
0.001
0.001
0.001
0.001
0.001
0.001
0.001
0.00101
0.001
0.001
0.001
0.001
0.001
0.001
0.001
0.00188496
0.001
0.001
0.001
0.001
0.0538607
0.198915
0.101881
0.288054
0.288152
0.252714
0.206818
0.325679
0.368729
0.424762
0.415656
0.439285
0.425977
0.546078
0.493919
0.594662
0.586879
0.609869
0.617646
0.590627
0.647129
0.693532
0.666343
0.650945
0.679196
0.726944
0.716313
0.699988
0.737119
0.822285
0.821573
0.819192
0.835087
0.967096
0.881802
1.05245
1.07815
1.0787
1.14294
1.22224
1.29496
1.30588
1.31738
1.36538
1.41392
1.44946
1.44905
1.48658
1.46129
1.5101
1.52965
1.52336
1.52743
1.52082
1.52047
1.51422
1.53846
1.47635
0.001
0.001
0.00819245
0.00102494
0.001
0.001
0.001
0.001
0.001
0.001
0.001
0.00145639
0.001
0.00145804
0.00145631
0.00145714
0.00145683
0.001
0.00145681
0.00641361
0.00108319
0.001
0.001
0.00102986
0.001
0.00102972
0.00102972
0.001
0.001
0.00100217
0.001
0.001
0.001
0.001
0.00101
0.00141091
0.001
0.001
0.00100986
0.001
0.001
0.001
0.00187274
0.001
0.001
0.001
0.001
0.001
0.001
0.001
0.001
0.001
0.00100941
0.001
0.001
0.001
0.00100992
0.001
0.001
0.001
0.00101
0.001
0.001
0.001
0.001
0.001
0.001
0.0010008
0.001
0.001
0.001
0.00100949
0.001
0.001
0.001
0.001
0.001
0.001
0.001
0.001
0.001
0.001
0.00101
0.001
0.001
0.001
0.001
0.001
0.001
0.001
0.001
0.001
0.001
0.001
0.001
0.001
0.001
0.001
0.001
0.001
0.001
0.001
0.001
0.001
0.001
0.001
0.001
0.001
0.001
0.001
0.001
0.001
0.00106365
0.001
0.001
0.001
0.001
1.75756
1.73944
1.75801
1.75211
1.76086
1.7633
1.59785
1.60917
1.6657
1.64007
1.71733
1.74111
1.72996
1.60107
1.54825
0.661867
0.66895
0.660942
0.650424
0.663108
0.598261
0.641102
0.427652
0.480176
0.347465
0.34515
0.292678
0.293653
0.295435
0.001
0.001
0.001
0.001
0.100913
0.296443
0.123531
0.001
0.001
0.0801834
0.001
0.001
0.001
0.001
0.001
0.001
0.001
0.00103484
0.00103494
0.001
0.00103486
0.001
0.001
0.001
0.663711
0.663548
0.66921
0.669337
0.66755
0.378502
0.493652
0.436923
0.554018
0.616752
0.634707
0.575308
0.653492
0.608686
0.604107
0.590896
0.001
0.00109552
0.001
0.001
0.001
0.001
0.001
0.00101457
0.001
0.001
0.00101252
0.001
0.001
0.001
0.00102002
0.001
0.001
0.001
0.001
0.001
0.001
0.001
0.001
0.001
0.001
0.00100955
0.001
0.001
0.001
0.001
0.001
0.001
0.001
0.001
0.001
0.001
0.00109096
0.001
0.00109103
0.001
0.001
0.001
0.001
0.001
0.00100037
0.001
0.001
0.001
0.001
0.001
0.00101
0.001
0.001
0.001
0.001
0.001
0.001
0.271336
0.201994
0.191739
0.116108
0.110958
0.0294182
0.0151033
0.002395
0.001
0.001
0.00100966
0.001
0.001
0.001
0.001
0.00267863
0.00885688
0.001
0.001
0.001
0.001
0.0766816
0.137018
0.0566285
0.001
0.001
0.0135133
0.001
0.0290938
0.001
0.001
0.001
0.001
0.00184329
0.00184203
0.001
0.001
0.001
0.001
0.00100972
0.001
1.42482
1.39169
1.4307
1.43046
1.41812
1.4561
1.43806
1.46114
1.47766
1.49423
1.56646
1.52633
1.47745
1.33152
1.33108
1.3556
1.34554
1.36899
1.36867
1.39276
1.37566
1.28235
1.29171
1.31791
1.29728
1.31134
1.32225
0.960366
0.881858
0.805682
0.838393
0.785376
0.695377
0.87599
0.841341
1.07593
1.07518
1.03431
1.08147
1.16671
1.21352
1.0798
1.12407
1.21666
1.21266
1.23609
1.21823
1.25609
1.27613
1.27304
1.26338
1.28547
1.26775
1.28061
1.27712
1.27887
1.27746
0.314475
0.377298
0.561001
0.541746
0.459638
0.547545
0.566427
0.637872
0.310496
0.303417
0.298964
0.221472
0.055236
0.0921682
0.182899
1.51625
1.54284
1.55353
1.55452
1.57325
1.58061
1.58918
1.58722
1.62071
1.60153
1.61338
1.5788
1.61166
1.623
1.64818
1.66466
1.67823
1.67641
1.72862
1.72859
1.75026
1.72844
1.64278
1.64491
1.7635
1.76395
0.001
0.001
0.00101
0.001
0.001
0.00124523
0.00124522
0.001
0.001
0.001
0.001
0.0020813
0.00102084
0.001
0.001
0.001
0.00100232
0.001
0.041727
0.001
0.001
0.0887065
0.135521
0.150473
0.133507
0.238032
0.303737
0.18407
0.408728
0.347342
0.4186
0.424383
0.512387
0.45182
0.5727
0.606633
0.602198
0.604059
0.732942
0.694477
0.662657
0.716549
0.74567
0.739643
0.733511
0.72298
0.732485
0.740543
0.82092
0.861325
0.897926
0.85315
0.89805
0.925458
1.06401
0.996805
1.08995
1.07622
1.15834
1.23291
1.32142
1.31693
1.35327
1.39122
1.46617
1.45723
1.47704
1.4841
1.50992
1.51975
1.53546
1.53252
1.54183
1.54135
1.5278
1.54005
1.53175
1.52966
0.001
0.001
0.00101
0.001
0.001
0.001
0.001
0.001
0.001
0.00145551
0.001
0.001
0.001
0.00145515
0.00145713
0.00145619
0.00145656
0.00145602
0.00145678
0.001
0.001
0.00100982
0.001
0.001
0.001
0.00100179
0.001
0.001
0.001
0.001
0.001
0.00101
0.001
0.001
0.00100863
0.00133932
0.001
0.001
0.001
0.00357988
0.001
0.001
0.001
0.00100989
0.001
0.001
0.001
0.00100983
0.001
0.001
0.00100647
0.001
0.00100976
0.001
0.001
0.001
0.001
0.001
0.00357509
0.001
0.001
0.001
0.001
0.001
0.00125921
0.00125912
0.00125914
0.001
0.001
0.001
0.001
0.001
0.001
0.001
0.001
0.001
0.001
0.001
0.001
0.001
0.001
0.001
0.001
0.001
0.001
0.001
0.001
0.001
0.001
0.001
0.001
0.001
0.001
0.001
0.001
0.001
0.001
0.001
0.001
0.001
0.001
0.001
0.001
0.001
0.001
0.001
0.00101
0.001
0.00145127
0.001
0.00110956
0.001
0.00110313
0.001
0.001
0.001
1.77379
1.79251
1.80587
1.76149
1.76397
1.75535
1.75681
1.64348
1.66039
1.68617
1.71785
1.68581
1.72965
1.76888
1.61926
1.65678
1.56384
1.58691
1.57935
0.661262
0.658838
0.560583
0.521728
0.624413
0.552538
0.560845
0.431402
0.458765
0.320906
0.294602
0.294355
0.292524
0.274096
0.001
0.001
0.211823
0.323285
0.101629
0.001
0.001
0.0542148
0.0485546
0.001
0.001
0.001
0.001
0.001
0.001
0.001
0.001
0.00101
0.001
0.001
0.001
0.001
0.001
0.001
0.619914
0.668561
0.639168
0.620494
0.385227
0.38105
0.405456
0.47486
0.592703
0.595057
0.546888
0.592421
0.591086
0.00100999
0.001
0.001
0.001
0.001
0.001
0.001133
0.0011328
0.001
0.001
0.00101
0.00100946
0.001
0.001
0.00100846
0.001
0.0010099
0.0038557
0.001
0.001
0.001
0.001
0.001
0.001
0.001
0.00109094
0.001
0.001
0.00104489
0.001
0.001
0.001
0.001
0.001
0.001
0.001
0.001
0.001
0.001
0.001
0.001
0.001
0.001
0.001
0.001
0.001
0.001
0.001
0.001
0.001
0.001
0.00203823
0.001
0.001
0.001
0.001
0.001
0.001
0.001
0.001
0.001
0.001
0.001
0.185784
0.106996
0.104058
0.0469499
0.0442832
0.0199416
0.0359092
0.00764566
0.0443036
0.001
0.001
0.001
0.001
0.001
0.001
0.001
0.001
0.001
0.001
0.001
0.001
0.001
0.001
0.001
0.0447972
0.001
0.001
0.001
0.0442528
0.0964424
0.0653675
0.001
0.001
0.001
0.00121837
0.00101
0.001
0.001
0.001
0.001
0.00100999
0.001
0.001
1.39339
1.41827
1.38658
1.44654
1.44164
1.44911
1.47803
1.44981
1.46292
1.52393
1.47376
1.55311
1.51625
1.5905
1.31536
1.33627
1.33137
1.35095
1.33349
1.35803
1.39299
1.3481
1.27576
1.2854
1.29625
1.30622
1.29857
1.30377
1.01519
0.931863
0.823399
0.839895
0.743708
0.835772
0.845249
0.903315
1.08387
1.08125
1.08356
1.05527
1.17537
1.21829
1.13964
1.09585
1.22281
1.21888
1.22332
1.24106
1.28421
1.27148
1.29166
1.26511
1.26125
1.28219
1.27737
1.27245
1.27585
1.27979
0.398033
0.302563
0.567909
0.577783
0.4859
0.578299
0.576308
0.67584
0.294214
0.302186
0.282008
0.260848
0.210104
0.301294
1.54166
1.55859
1.57846
1.61219
1.61011
1.6295
1.64329
1.65001
1.662
1.64767
1.65617
1.67711
1.69981
1.71154
1.71056
1.72005
1.74122
1.76297
1.77134
1.77076
1.78301
1.65995
1.64972
1.8003
1.8193
0.001
0.001
0.001
0.001
0.001
0.001
0.001
0.001
0.001
0.00208122
0.001
0.001
0.001
0.001
0.001
0.00105213
0.00105213
0.001
0.001
0.001
0.001
0.0873294
0.172225
0.166411
0.0786715
0.230178
0.24197
0.326413
0.391623
0.356443
0.437612
0.379975
0.574749
0.492459
0.605119
0.604236
0.620313
0.681431
0.809336
0.817884
0.755312
0.783744
0.81749
0.762702
0.874343
0.795883
0.771386
0.812427
0.945109
0.957358
1.0177
1.07089
0.956513
1.04575
1.18969
1.13803
1.20738
1.17703
1.37319
1.3367
1.40809
1.42067
1.49287
1.50413
1.56521
1.53061
1.57696
1.56046
1.58017
1.61221
1.58512
1.61563
1.62565
1.58187
1.57032
1.61631
1.61217
1.58283
0.001
0.001
0.00101
0.001
0.001
0.001
0.001
0.001
0.001
0.00107506
0.001
0.001
0.001
0.001
0.001
0.001
0.001
0.00146795
0.001
0.001
0.00143241
0.00100976
0.001
0.001
0.0011707
0.001
0.001
0.001
0.001
0.001
0.0014854
0.00101996
0.001
0.001
0.001
0.001
0.001
0.001
0.001
0.001
0.001
0.001
0.001
0.001
0.001
0.001
0.00101383
0.00101387
0.00101398
0.001
0.001
0.001
0.001
0.00121494
0.001
0.001
0.00121486
0.001
0.001
0.001
0.00100996
0.0014512
0.001
0.00116435
0.001
0.001
0.001
0.001
0.00101
0.001
0.001
0.001
0.001
0.001
0.001
0.001
0.001
0.001
0.001
0.001
0.001
0.001
0.001
0.001
0.001
0.001
0.001
0.001
0.001
0.001
0.001
0.001
0.001
0.001
0.001
0.001
0.001
0.001
0.001
0.001
0.001
0.001
0.001
0.001
0.001
0.001
0.001
0.001
0.001
0.001
0.001
0.001
0.001
0.001
0.001
0.001
0.001
0.00110956
0.001
0.001
0.001
0.00116436
0.001
0.001
1.82411
1.80976
1.82462
1.79773
1.7833
1.81475
1.79822
1.78026
1.79643
1.65922
1.68928
1.68877
1.67437
1.75793
1.79563
1.81976
1.7215
1.59076
1.62212
1.60267
1.60917
1.5893
1.63018
1.52194
0.424567
0.522722
0.425776
0.464645
0.466659
0.374117
0.369056
0.375316
0.375298
0.376465
0.348495
0.269032
0.244182
0.159939
0.16073
0.27163
0.38677
0.001
0.001
0.0508925
0.0496436
0.001
0.00100999
0.001
0.001
0.00100155
0.001
0.00104465
0.001
0.001
0.001
0.001
0.0010275
0.001
0.00101996
0.001
0.00102049
0.53239
0.455416
0.428995
0.520623
0.382053
0.407996
0.541993
0.472899
0.515534
0.593982
0.590309
0.00110012
0.001
0.001
0.00114981
0.001
0.001
0.00113319
0.001
0.001
0.001
0.00100995
0.001
0.001
0.001
0.001
0.001
0.00385464
0.00385494
0.001
0.001
0.00385501
0.001
0.00203825
0.001
0.001
0.001
0.001
0.00353881
0.001
0.00104498
0.00369353
0.001
0.001
0.001
0.001
0.001
0.001
0.001
0.001
0.001
0.001
0.001
0.001
0.00101
0.001
0.001
0.001
0.001
0.001
0.00118737
0.001
0.001
0.001
0.00101
0.001
0.001
0.001
0.001
0.001
0.001
0.001
0.001
0.001
0.001
0.001
0.001
0.001
0.001
0.001
0.001
0.001
0.001
0.001
0.0445594
0.0441723
0.0769883
0.0432353
0.0448248
0.0430654
0.0414976
0.001
0.001
0.001
0.001
0.001
0.001
0.00162405
0.001
0.001
0.001
0.001
0.001
0.001
0.00162405
0.001
0.001
0.001
0.001
0.001
0.001
0.001
0.0490643
0.001
0.084404
0.182559
0.0989089
0.001
0.00101
0.00101
0.001
0.00101
0.001
0.001
0.001
0.001
0.001