/*--------------------------------*- C++ -*----------------------------------*\
  =========                 |
  \\      /  F ield         | OpenFOAM: The Open Source CFD Toolbox
   \\    /   O peration     | Website:  https://openfoam.org
    \\  /    A nd           | Version:  8
     \\/     M anipulation  |
\*---------------------------------------------------------------------------*/
FoamFile
{
    version     2.0;
    format      ascii;
    class       volScalarField;
    location    "21600";
    object      alpha;
}
// * * * * * * * * * * * * * * * * * * * * * * * * * * * * * * * * * * * * * //

dimensions      [0 0 -1 0 0 0 0];

internalField   nonuniform List<scalar> 
526318
(
0.000212286
0.000294707
0.000230034
0.000398259
0.000220293
5.3158e-05
0.000294856
0.000210637
0.00021428
5.51044e-05
0.00020691
0.000163556
0.000307695
0.000174209
9.90227e-05
8.88861e-05
0.000191675
5.27649e-05
0.00015712
0.000110622
0.000312171
0.000186726
0.000256398
0.00013464
4.09498e-05
0.000180023
3.44903e-05
0.000286491
0.000215277
9.68803e-05
0.000136872
8.26333e-05
0.000312406
0.000150048
0.000231953
0.00042183
5.12407e-05
6.36894e-05
0.000231013
0.000409608
0.000316525
0.000153068
0.00021031
8.2945e-05
0.000174959
0.000211887
0.000313588
0.000379055
0.00016002
0.000154475
0.000306562
0.000389549
0.000316645
0.000224492
0.000225417
0.000194291
0.00019497
0.000109941
0.000104934
0.000199001
0.000240151
0.000223965
0.000243051
6.80209e-05
0.000100354
0.000144214
4.03048e-05
0.000128298
4.60123e-05
7.82626e-05
0.000157463
9.86661e-05
0.000187288
0.000188007
0.000202287
0.000136474
0.000118199
0.000104829
0.000258598
0.00023397
0.000274397
0.000173729
9.86681e-05
0.000180344
0.000294548
0.000165143
0.000129598
0.000197174
0.000301884
0.000130339
0.000300186
0.000144024
0.00010601
0.000362151
0.000161779
0.00019736
0.000306537
0.000257716
0.000128767
0.000308251
0.000338066
0.000387126
0.00031781
0.000209171
0.000254509
0.00049884
0.000197991
0.00020723
0.000158695
0.000238709
0.000357606
0.000174881
9.68345e-05
0.000126925
8.87704e-05
0.000241289
0.000150413
0.000154726
6.65912e-05
0.000186526
0.000173249
0.000278157
0.000201285
0.000170071
0.000178334
9.63847e-05
0.000108951
0.000121725
0.000125495
0.000116404
0.000140535
9.5853e-05
4.22731e-05
8.79309e-05
1.00636e-05
2.84264e-05
8.6158e-05
4.5106e-05
7.53187e-05
4.66085e-05
5.47652e-05
0.000100628
1.91116e-05
6.88896e-05
7.40823e-05
6.71053e-05
0.00013584
0.00016371
2.31641e-05
0.000182999
7.9079e-05
0.000215594
0.000357085
5.65176e-05
0.000137851
0.000507945
0.000424194
0.000535284
4.99146e-05
0.00025391
0.000225402
0.000366475
0.000525811
6.60228e-05
0.000150934
0.000186146
9.91129e-05
0.00030256
0.000201068
0.000317038
0.000167805
0.00034614
0.00021994
8.52309e-05
0.000291588
0.00026756
0.000152895
0.000150496
0.000379694
0.000344334
0.000143681
0.000200645
0.000144245
0.000159743
0.000163324
0.000133046
0.000166521
7.08327e-06
7.42869e-05
5.07804e-05
0.000108204
0.000139077
4.35664e-05
5.34007e-05
0.000196746
0.000177916
0.000122308
6.43786e-05
0.000185023
8.9138e-05
0.000120528
0.000222634
8.41437e-05
0.000297905
5.4338e-05
0.000381071
0.000289194
0.000294571
0.00031091
0.000209837
9.3529e-05
0.000232687
0.000228657
0.000107155
0.000245739
0.000201573
1.11778e-05
0.000252022
0.000183323
0.000226705
6.03679e-05
0.000131121
0.000164124
0.000288507
0.000394031
0.000203813
0.000135008
0.00027804
0.000426295
0.000450462
0.000373604
0.000147726
0.000272399
0.00111
0.00283925
0.000530574
0.000397579
0.000653229
0.000481341
5.89962e-05
6.95754e-05
5.08151e-05
7.73824e-05
0.000119258
0.000160286
0.000103813
0.000150634
7.17815e-05
0.000236873
0.000154257
0.000285414
0.000118896
0.000236566
0.000222659
0.000161202
0.000152803
0.000137886
0.000209002
0.000177359
0.000193446
0.000203265
0.0036079
0.00257243
0.000450191
0.00117588
0.000234553
0.000484409
0.000407569
0.000212386
0.000183613
0.000234437
0.000163141
0.000146694
0.000170785
0.000123262
0.000242565
0.0001836
8.69282e-05
9.7921e-05
0.000272437
3.01788e-05
0.000119145
0.000209937
9.71396e-05
0.000175243
0.000125308
9.07584e-05
8.25147e-05
6.96133e-05
6.04538e-05
5.50879e-05
3.8762e-05
4.88367e-05
0.000203508
0.000169208
0.000170615
0.000191126
0.000127732
0.000186751
0.000164292
0.000205643
0.000135463
0.000156329
0.000192803
0.000206439
0.00015262
8.00263e-05
9.50681e-05
0.000207798
4.9679e-05
0.000325397
0.000180401
2.69169e-05
0.000101754
0.0001964
0.000115703
0.000200994
0.000180903
0.000186748
0.000192093
0.000204752
0.000120665
0.000376866
0.000241685
0.000218416
0.000269841
0.00015049
0.000154346
0.000189101
0.000235246
0.000374476
0.000273033
0.000184292
0.000453584
0.000143297
0.000402926
8.97968e-05
0.000247472
0.000353621
0.000116873
0.000175387
6.43443e-05
6.94768e-05
0.000116708
2.55526e-05
0.000148463
0.000102178
0.000132864
0.000193012
3.77327e-05
0.000181507
5.12441e-05
0.000151883
0.000105786
9.54713e-05
0.000107624
7.25617e-05
0.000113392
0.000181831
0.000273611
0.000140658
7.13744e-05
0.000200816
0.000150508
0.000199635
0.000240156
0.000133195
0.000175838
0.000147247
0.000137532
0.000107735
9.15282e-05
0.000122957
0.000157583
0.0001478
0.000147356
0.000114573
0.000363854
0.000406716
0.00037874
0.000323944
0.000506277
0.000357657
0.000297733
0.00033967
0.000360536
0.000285156
0.00026708
0.000391162
0.000231255
0.000278569
0.000233316
0.000349786
0.000313449
0.000217778
0.000344936
0.000450783
0.000244746
0.000220963
0.000300229
0.000563168
0.000340006
0.00019279
0.000327914
8.73875e-05
0.0128738
0.00138772
0.00397324
0.00980836
0.962167
0.00799135
0.00236616
0.000650533
0.000738942
0.000178496
0.000121621
0.000120448
0.00011926
7.3549e-05
0.000143823
0.00014625
9.78294e-05
0.000135397
0.000182642
0.000166601
0.000124764
0.000153897
0.000140134
0.000111922
0.000174721
0.000178556
0.000123421
0.000117205
0.000197567
0.000125277
0.000140604
0.000194271
0
0.000192564
0.000476112
0
0
0
0
0.00035907
0.000405855
0.000627391
0.0217251
0
0
0
0.0913686
0
0.00934758
0.00199541
0.00212389
0.000656028
0.000141157
0.000521322
0.00040362
0.000248286
0.000196815
0.000360441
0.000159919
0.000139322
0.000182512
0.000188796
0.000208123
0.000209947
0.00017544
0.000107566
0.000243975
0.000112964
0.000153473
0.000156602
0.000161025
0.000139355
0.000135132
0.000109697
9.44012e-05
0.000115672
0.000100153
8.74328e-05
8.15099e-05
7.26979e-05
5.20675e-05
7.52622e-05
0.000143359
0.000222981
0.00015485
0.000210822
0.000155122
0.00012759
0.000241115
0.000196968
0.000103761
0.000256137
0.000133358
0.000136097
0.000138349
0.000119947
0.000107101
0.000167798
0.000168399
0.000157991
0.000191499
0.000171215
0.000171273
0.000185856
0.000183942
0.000199624
0.000200469
0.000210568
0.0002235
0.000188589
0.00013975
0.000198055
0.000149233
0.00017945
0.000180439
0.000282403
0.000486534
0.000434384
0.000241666
0.000331142
0.000281453
0.000261653
0.000180908
0.000140939
0.00034225
0.000112341
0.000330694
0.000358549
0.000168962
0.000393228
0.000137752
0.000119528
0.000405739
0.000283808
0.000352767
9.25455e-05
3.84906e-05
0.00019589
0.000151388
0.000123955
0.000135462
9.59811e-06
0.000177987
0.000168396
0.000104025
0.00016686
2.46282e-05
0.000107677
3.66848e-05
6.95371e-05
0.000121569
9.44346e-05
8.60241e-05
7.62708e-05
0.000121905
0.000133006
0.000215462
8.33536e-05
0.000168268
0.000209519
0.000180366
0.000222097
0.000159875
0.000139204
0.000111463
8.29306e-05
0.000123102
9.32101e-05
0.000122055
0.000132781
0.000179332
0.000197223
0.000189387
0.000220047
0.000203691
0.000205004
0.000107683
8.12011e-05
0.000200918
0.000173458
0.000585989
0.000294713
0.000366008
0.000189197
0.00044596
0.000474053
0.000345549
0.00014271
0.000352828
0.000214703
0.000249554
0.000159574
0.00020482
0.000223622
0.000334601
0.000257051
0.000416069
0.000415474
0.00058932
0.000378334
3.32736e-05
0.000167466
0.000378117
0.551094
0
0.568305
0.435962
0.0138952
0
0.00110458
0.00192923
0.000387606
0.000638772
0
0
0
0
0
0
0
0
0
0
0.00580812
0
0.000623906
0
0.00190088
0.00622182
0
0
0
0
0
0
0
0
0
0
0
0
0
0
6.20297e-05
2.29095e-05
4.56256e-05
3.76549e-05
7.65197e-05
0.000120256
0.000116445
0.000100338
0.000179475
0.000101293
0.000127855
0.000215415
0.000194789
0.000163607
0.000141632
0.000169368
0.000176906
0.000170621
0.000189933
0.000188567
0.000168308
0.000170049
0
0
0
0
0
0
0
0
0
0
0
0
0
0
0
0
0
0
0
0
0
0
0
0
0.10299
0.00429229
0.00016502
0.00111651
0.000738942
0.000256911
0.000219356
0.000438839
0.000356657
0.000275503
0.000225642
0.000287515
0.000157862
0.000234258
0.000220586
0.000124968
4.76404e-05
0.000127349
0.00011837
7.84359e-05
0.000153527
0.000117164
9.20839e-05
8.22955e-05
0.00309867
0
0
0
0
0
0
0
0
0
0
0
0
0
0
0
0
0.000151491
0.000161782
0.000129728
0.000130631
0.000118419
0.000103641
0.000123805
9.68564e-05
0.000144248
9.15584e-05
0.000104159
0.00011388
0.000224317
0.000173447
0.000292988
7.40479e-05
0.000139859
0.000249923
0.000213829
0.000134763
0.000135616
7.2907e-05
0.000119599
0.000236213
0.000128382
0.0001444
0.000178114
9.49084e-05
3.62045e-05
0.000208246
0.00015606
8.64857e-05
0.000225359
0.000216674
0.000226272
0.000198503
0.000221569
0.00020893
0.000187686
0.000195457
0.00018292
0.000168726
0.000225985
0.000177053
0.000232432
0.000199329
0.000163852
0.000195962
0.000177842
0.000238381
0.000185917
0.000198076
0.000446023
0.000289323
0.000221768
0.000303981
0.000486617
0.000250998
0.000148287
0.000502359
0.000407515
0.00017884
0.000427023
0.00021841
0.000458181
0.000178397
0.000152993
0.000457993
0.00010212
0.000429148
0.000373359
0.000314044
0.000293719
0.000264911
0.00022038
0.000131074
0.000226333
0.000205626
0.000149762
0.000177964
0.000111505
9.35045e-05
0.000134637
9.45884e-05
4.67229e-05
9.59164e-05
7.04958e-05
4.69102e-05
0.000105646
0.000101288
0.000111991
8.54354e-05
0.000126448
0.000159795
0.000114507
0.00011467
0.000137102
0.000151651
0.000121285
0.000142208
0.000122241
0.000122345
0.000119137
0.000156273
0.000124563
0.000159512
0.000165103
0.000178881
0.000181133
0.000176769
0.0001975
0.00018678
0.000159155
0.000195329
0.000167171
0.000157507
0.00016052
0.000170079
0.000171432
0.000179422
0.000157876
0.000158267
0.000150282
0.000151164
0.000150229
0.000155928
0.000138865
0.000167572
0.000153637
0.000178398
0.000159598
0.000141245
0.000147738
0.000167959
0.000155805
0.000147125
0.000136794
0.000174255
0.000146219
0.000158683
0.000166104
0.000176495
0.000160373
0.000174995
0.00016513
0.00017957
0.000170927
0.000172363
0.000172344
0.000172526
0.000165639
0.000169205
0.000174501
0.000444421
0.000483624
0.000326041
0.000485233
9.8538e-05
0.000260439
0.000558508
0.000563564
0.000312298
0.000638721
0.000466432
0.000227956
0.000419955
0.00012231
0.000297305
0.000121897
0.000207929
0.000264227
0.000253064
0.000284033
0.0003759
0.000416433
0.000279814
0.000564708
0.000235645
0.000456337
0.000479016
0.00047962
0.000370937
0
0
0
0
0
0
0.00653701
0.00143293
0.0016677
0.0012035
0
0
0
0
0.0115012
0
0
0
0
0
0
0
0
0
0
0
0
0
0
0
0
0.000315202
0
0.000309674
0
0
0
0
0.00831355
0
0.00766284
0.00496321
0
0.00567613
0.00642378
0.00836697
0
0
0
0
0
0
0
0
0
0
0
0
0
0
0
0
0
0
0
0
7.98862e-05
0.000119315
0.000170957
0.000117571
0.000141796
0.000192719
2.46566e-05
0.000240522
0.000194081
0.000182024
0.000133329
0.000100484
0.000141361
0.000168247
0.00016125
0.000184197
0.000175216
0.000241028
0.000156228
0.000174669
0.000180624
0.000167776
0
0
0.00486093
0.0041496
0
0
0
0
0.0120262
0
0
0
0
0
0
0
0
0
0
0.341977
0.00110886
0.00548729
0.000730119
0.000282597
0.000235527
0.000818805
0.000380973
0.000264538
0.000182762
0.000338981
0.000174566
4.64896e-05
4.6866e-05
0.000201369
0.000146181
6.80916e-05
0.000160566
0.00016415
0.000172691
7.82891e-05
0.000144816
8.26631e-05
0.000154398
8.36847e-05
0
0
0
0
0
5.37141e-05
0
0
3.47384e-05
0
0
0
0
0
0
0
0
0
0
0
0
0
0
0
0.53989
0
0.000164982
0.000187994
0.000164555
0.000147722
0.000165166
0.000109855
8.8951e-05
0.000172161
0.000156613
8.19571e-05
0.000130131
0.000102516
0.000234818
0.000209725
0.000256641
0.000237376
0.000215008
0.000194526
0.000174979
0.000202266
9.48668e-05
0.000136441
0.000170736
0.000172629
0.000156713
0.000171046
0.00014433
0.000243391
0.000232828
0.000141409
0.000135464
0.000150782
0.000175174
0.000161322
0.000220949
0.00021854
0.000230162
0.000214022
0.000181011
0.000179297
0.000175583
0.000162407
0.000169365
0.000168502
0.000178459
0.000184325
0.000189615
0.000179671
0.000181974
0.000183499
0.000188123
0.00019007
0.000178041
0.000176848
0.00016124
0.000164179
0.000163271
0.000159122
0.000162686
0.000167
0.000157341
0.000156785
0.000192481
0.000258353
0.000232123
0.00020511
0.000185335
0.000207973
0.000194267
0.000233263
0.000196802
0.000206641
0.000547125
0.000631795
0.000420203
0.000166105
0.000249014
0.000183551
0.000134753
0.000335904
0.000439431
0.000182852
0.000231786
0.000546345
0.000547692
0.000211242
0.000245726
0.000610599
0.000605606
0.000319976
0.000177386
0.000417827
0.000242504
0.000326658
0.0002891
0.000220284
0.000206543
0.000243974
0.000213422
5.74647e-05
0.000111244
0.000102972
9.23271e-05
4.30367e-05
7.41241e-05
6.97349e-05
2.57764e-05
7.06511e-05
4.07659e-05
8.64252e-05
7.82882e-05
0.000108641
6.42712e-05
0.000114263
7.96179e-05
6.33736e-05
0.000126692
0.00010116
8.71567e-05
0.00010673
0.000120521
0.000140718
0.000165669
0.000186972
0.000185331
0.000140421
0.000176522
0.00016718
0.000165564
0.000178366
0.000190231
0.000157515
0.000170112
0.000139575
0.000154238
0.000141421
0.000146747
0.000154453
0.000133635
0.000132636
0.000131206
0.000136818
0.000131412
0.00013229
0.000135398
0.000145699
0.000150101
0.000155423
0.000160907
0.00016377
0.000169188
0.000169716
0.000167386
0.000167029
0.000161098
0.000161652
0.000165319
0.000161602
0.00015738
0.000161734
0.000155705
0.000150479
0.000157822
0.000153143
0.000152537
0.000382918
0.000249513
0.000561278
0.00018791
0.00057793
0.000123994
0.000239306
0.00048161
0.000159243
0.000254935
0.000813607
0.000499929
0.000674007
0.000321022
0.000368631
0.000320601
0.000244882
0.000157151
0.000123738
0.000242664
0.000233182
0.000204719
0.000310004
0.000282443
0.000224877
0.00507763
0.00103043
0.0016215
0.000443074
0.000440836
0.000688908
0
0
0
0
0
0
0.019811
0
0.00685494
0
0
0.0171427
0
0
0
0
0
0
0
0
6.12588e-05
0
0
0
0
0
0
0
0
0
0
0
0
0
0
0
0
0
0
0
0
0
0
0
0
0
0
0
0
0
0
0
0
0
0.0001427
0.000210887
0.000208774
0.000119505
0.000101527
0.00019373
7.30214e-05
0.000135505
0.000184885
0.000214071
0.000182687
0.000232868
0.000144217
0.000215823
0.000134905
0.000234927
0.000193033
0.000182662
0.000227028
0.000163026
0.000193452
0.000163095
0.00256107
0
0.00496664
0
0
0
0
0
0
0
0
0
0
0
0
0
0
0
0
0.00890496
0.000375099
0.000262488
0.000563249
0.000764164
0.000352234
0.000281607
0.000283812
0.000299543
0.000245063
0.00032493
0.000316637
0.000226462
0.000297911
0.000126744
0.000225921
0.000205187
0.000236416
8.28113e-05
0.000160304
0.000148001
0.000244369
0.000175199
0.000169307
0.000184018
0
0
0
0
0
0
0
0
0
0
0
0
0
0
0
0
0
0
0
0
0
0
0.500492
0
0
0
0
0
0
0
0
0.00022002
0.000229366
0.000149237
0.000220437
0.000211244
0.000110835
0.000115298
0.000167881
0.000212282
0.000247036
0.000210655
0.000152065
0.000135501
0.000166547
0.000157278
0.000197197
0.000216876
0.000265122
0.000244929
0.000223145
0.000260025
0.000258079
0.000267493
0.000150349
0.000119273
0.000184708
0.00019259
0.000169667
0.00018076
0.000217902
0.000168216
0.000158747
0.000200339
0.000170518
0.00019399
7.68259e-05
0.000135702
0.000101625
0.000124594
0.000118832
0.000124364
0.000122759
0.000130813
0.000109463
0.000111794
0.000116676
0.000124839
9.84839e-05
0.00011877
0.00014475
0.000145908
0.000143666
0.000143888
0.00014052
0.000146875
0.000139783
0.000140053
0.00014338
0.000136199
0.000121439
0.000136275
0.000141774
0.000139854
0.000117727
0.000158955
0.000158633
0.000155205
0.00015813
0.000149792
0.000144524
0.00017587
0.000163961
0.000211366
0.000210103
0.000221844
0.000227503
0.000193348
0.000175366
0.000170825
0.000173309
0.000162728
0.000170329
0.00020419
0.000193789
0.000202588
0.000193639
0.000201699
0.000197771
0.000192934
0.000184805
0.000169879
0.000161096
0.000156992
0.000151272
0.000160547
0.000159044
0.000160138
0.000155573
0.000198814
0.000216933
0.000185516
0.000205694
0.000212255
0.000209893
0.000193309
0.000230579
0.000250555
0.000274625
0.000325139
0.000152856
0.000144136
0.000144251
0.00014055
0.00013788
0.00013291
0.000136499
0.000130439
0.000129281
0.000118445
0.000129319
0.000120705
0.000123762
0.000135011
0.000129848
0.000138503
0.00013027
0.000109124
0.000576803
0.000365365
0.00079473
0.000643614
0.000184392
9.59513e-05
0.000553883
0.000132637
0.000176509
0.000573156
0.000204344
0.00055705
0.000306745
0.000614883
0.000826341
0.000462354
0.000555383
0.000521913
0.000224679
0.000558907
0.000284027
0.000349702
0.000145586
0.000315935
0.000153531
0.000240481
0.000127776
0.000315181
6.47398e-05
0.000131675
0.00011857
3.27839e-05
5.70847e-05
3.52128e-05
5.52184e-05
2.0658e-05
5.25609e-05
1.34363e-05
8.99665e-05
4.03339e-05
6.86917e-05
9.81794e-05
1.84716e-05
6.77344e-05
0.000134367
0.000114222
9.10262e-05
0.000114395
0.000117783
0.00015041
0.000154236
0.000159948
0.000137946
0.000135452
0.000150207
0.000149694
0.000168539
0.000166233
0.000174933
0.000146177
0.000158279
0.000140674
0.000137867
0.000157761
0.0001388
0.000121252
0.000120604
0.000124598
0.000123484
0.000124314
0.00012998
0.000128335
0.000142594
0.000141766
0.000147448
0.000150796
0.000160588
0.000159353
0.000167567
0.00016644
0.000166191
0.000166192
0.000159258
0.000158986
0.00015285
0.000236056
0.000320149
0.000346644
0.000827923
0.000334048
0.00042071
0.000807115
0.000627703
0.000258139
0.000515269
0.000956971
0.000971921
0.000578748
0.000687403
0.000607396
0.000374494
0.000521126
0.000448393
0.000283476
0.000298556
0.000744128
0.000343577
0.000245023
0.000484554
0.00057705
0.00148836
0.000237522
0.00183844
0.00402205
0.013676
0.000452182
0.0012288
0.000902988
0.00103181
0
0
0
0
0
0
0
0
0.00208729
0
0
0
0
0
0
0
0
0.20103
0
0
0
0
0
0
0
0
0
0
0
0
0.00461854
0
0
0
0
0.0136724
0
0
0
0
0
0
0
0
0
0
0
0
0
0
0
0
0
0
0
0.00190387
0
0
0
0
0.00207228
0.00012986
0.000170112
0.000101764
0.000117195
0.000131895
0.000119426
9.6441e-05
0.000268123
0.000228378
9.55117e-05
0.000165162
9.38043e-05
0.000166718
0.000239052
0.000263733
0.000129618
0.000162352
0.000219903
0.000175906
0.000335848
0.000213255
0.000219084
0.000185232
0.00013663
0.000174469
0
0
0
0
0
0
0
0
0
0
0
0
0
0.000245821
0.000222804
0.000273887
0
0
0
0
0.00127587
0.00980966
0.000896828
0.000723747
0.000417578
0.000401663
0.000198725
0.000234289
8.58083e-05
7.453e-05
0.000102249
0.000115557
0.000253993
0.000210223
6.33375e-05
0.000225453
0.000132491
0.00013325
0.00016054
0.000128024
0.000222276
0.000166752
4.3778e-05
0
0.000954754
0
0
0
0
0
0
0
0
0
0
0
0
0
0
0
0
0
0
0
0
0
0
0
0
0
0
0
0
0
0
0
0
0
0
0
0.000224397
0.000260777
0.000199914
0.00021748
0.000205353
0.000212939
0.000138183
0.000218161
0.000111486
9.04023e-05
0.000201088
0.00022938
0.000188312
0.000221541
6.68783e-05
0.000126549
0.000253195
0.000259099
0.000221256
0.000282419
0.00030555
0.000264704
0.000364223
0.000340893
0.000277041
0.00016526
0.000261884
0.000194938
0.000194131
0.000236768
0.000294731
0.000291224
0.000239513
0.000146554
0.000208324
0.000151048
0.000164829
0.000133361
0.000111292
0.000111257
0.000102494
0.000154172
7.66371e-05
0.000139196
0.000154665
0.000140005
0.000136197
0.000145162
0.000135491
0.000136399
0.000134844
0.000115428
0.000121045
0.000158754
0.000163331
0.000157148
0.000150166
0.000141693
0.000148049
0.00018978
0.000174337
0.000201439
0.000200668
0.000224199
0.000209159
0.000178138
0.000196637
0.000176865
0.000213227
0.000196009
0.000174542
0.000192384
0.00021113
0.000217684
0.000213378
0.000229103
0.000215827
0.000212345
0.000206923
0.000199731
0.00018341
0.000172834
0.000156061
0.000164442
0.000155247
0.000162347
0.000158276
0.000162147
0.000161954
0.000156161
0.000248218
0.000244
0.000181588
0.000190411
0.000227837
0.000231897
0.000180625
0.000204423
0.000245472
0.000300433
0.000325154
0.000249265
0.000150532
0.00016144
0.000149762
0.000142022
0.000139596
0.000134596
0.000137393
0.000129718
0.000130063
0.000128626
0.000120424
0.000139567
0.000128299
0.00012755
0.000134802
0.000130565
0.000135886
0.000136818
0.000148278
0.000141911
0.000131348
0.00013183
0.000118663
0.000158156
0.000112293
0.00094784
0.000840524
0.000370287
0.000195697
0.000728158
6.0022e-05
0.000923589
0.000126241
0.000204192
0.000869799
0.000753385
0.000316798
0.000736031
0.000518025
0.000709575
0.000599724
0.000300722
0.000633576
0.000431406
0.00063025
0.000433623
0.000451938
0.00015298
0.000145824
0.000446972
0.000253012
0.000181433
0.000186011
3.10139e-05
0.000119557
6.71637e-05
0.00010457
5.99294e-05
4.93272e-05
4.75898e-05
3.80049e-05
4.43725e-05
6.98374e-05
3.85363e-05
0.000145371
0.000101486
4.2678e-05
3.14892e-05
0.000196279
0.000111438
0.000129983
9.49422e-05
8.48925e-05
0.000123675
0.00012079
0.000132684
0.000118118
0.000131572
0.000104471
0.000141188
0.000141628
0.000150774
0.000146748
0.000121841
0.000137733
0.000134788
0.000135183
0.000117851
0.000115659
0.000109576
0.000112765
0.000117
0.000121253
0.000114618
0.000127362
0.00013211
0.000140134
0.000131184
0.000140588
0.000138652
0.000148145
0.000153181
0.000158084
0.000153451
0.000162282
0.000156655
0.000157306
0.00216664
0.00102351
0.000375471
0.000612488
0.000500275
0.000666076
0.000692886
0.00138362
0.00138213
0.000639905
0.00157621
0.00173122
0.00101849
0.00106252
0.00116039
0.00132588
0.000618218
0.0121978
0.00701314
0.00340912
0.00178427
0.00105678
0.000608683
0.00237487
0.00293178
0.0102865
0.00516452
0.0175279
0.00509421
0.00908477
0.0229065
0.00300034
0.0186583
0.0020914
0.0123712
0.0568601
0
0
0
0
0
0
0.288979
0
0
0.222797
0
0
0
0
0
0.109382
0
0
0
0
0.00301238
0
0
0
0
0
0
0
0.00490509
0.00819352
0
0
0.00910751
0.0069015
0
0
0
0
0.00486841
0
0.00626207
0
0
0
0
0
0
0
0
0
0
0
0
0
0
0
0
0
0.00326293
0
0
0
0
0
0
0
0
9.04044e-05
0.000151048
0.000191112
0.000180043
9.01047e-05
8.06213e-05
0.0001395
0.000159258
0.00014445
0.000126771
0.000232044
0.000205429
0.000195192
0.000105678
0.000211323
0.000143489
0.000203945
0.000141311
0.00014798
0.00033044
0.000131897
0.000202611
0.000296352
0.000225702
0.00018764
0.00028413
0.000194234
0
0
0
0
0
0
0
0.000280993
0.000267881
0.000193206
0
0
0
0
0.000128684
0.000408287
0.0400304
0
0.0325519
0.00519937
0.0011574
0.00201622
0.000305561
0.000125745
0.000300475
0.000185619
0.000318966
0.00017598
0.000212096
0.000244866
0.000206533
0.000207487
0.000132459
0.000132077
5.96622e-05
0.000188243
0.000319971
0.000256106
9.84442e-05
0.000226187
0.000311468
0
0
0.000904075
0
0
0
0
0.00276923
0
0
0
0
0
0
0
0
0
0
0
0
0
0
0
0
0
0
0
0
0
0
0
0
0
0
0
0
0
0
0
0
0
0
0
0
0
0.000269199
0.00017201
0.000314869
0.000245494
0.000213504
0.000223614
0.000197284
0.000147106
0.000257909
0.000283862
9.81887e-05
0.000250859
3.99656e-05
0.000265849
0.0002309
0.000264271
9.05883e-05
0.000319273
0.000220146
0.000259816
0.000227946
0.00028849
0.000291093
0.000285011
0.000313774
0.000285788
0.000328595
0.000219959
0.000268549
0.000262953
0.000221438
0.000344527
0.000330742
0.000341742
0.000230348
8.57249e-05
0.000255998
0.000217586
8.72059e-05
0.000102057
0.000149135
0.000118657
0.000204268
0.000163057
0.000117637
0.00034807
0.00029985
0.000235384
0.000223361
0.00020431
0.000152699
0.00015656
0.00017671
0.000138223
0.00013912
0.000141274
0.000133272
0.000147772
0.00012722
0.000166317
0.000137483
0.000153338
0.000158534
0.00014891
0.000155454
0.000145412
0.000139393
0.000197188
0.000176472
0.000185473
0.000191527
0.000191271
0.000196932
0.000166182
0.000186043
0.00019655
0.000224633
0.000204946
0.000194662
0.000226915
0.00022427
0.000242014
0.000237204
0.000212498
0.000214069
0.000187022
0.000192434
0.000174167
0.000167108
0.000171995
0.000165119
0.000163654
0.000172027
0.000153877
0.000148969
0.000153617
0.000156732
0.00026671
0.000275331
0.000199303
0.000195363
0.000232582
0.000244185
0.000201182
0.000192443
0.000249506
0.000223792
0.000216581
0.000270725
0.000159432
0.000146065
0.000152071
0.000145986
0.000139448
0.000130964
0.000138613
0.000129172
0.000138313
0.000130443
0.000130163
0.000133263
0.00012896
0.000130344
0.000128739
0.000148977
0.000137559
0.000131189
0.000147246
0.000146737
0.000138212
0.000128105
0.000125412
0.000133837
0.000152347
0.00155949
0.0011875
0.000690953
0.00128844
0.000465069
0.000115272
0.000602034
0.00160024
0.00124641
0.00062928
0.000915789
0.000675152
0.000759071
0.000977037
0.000947487
0.00174571
0.0003379
0.00120042
0.000247643
0.000193097
0.000303985
0.000179548
0.000323816
0.000417257
0.000141493
0.000206046
0.000167195
0.000456719
9.95109e-05
5.10451e-05
7.05282e-05
7.29187e-05
5.01102e-05
6.10609e-05
1.72024e-05
4.98541e-05
3.72138e-05
3.48373e-05
0.000222685
0.000143042
4.38437e-05
6.92951e-05
5.59267e-05
1.53718e-05
0.000100866
0.000104163
6.42996e-05
6.91359e-05
0.000112407
9.39076e-05
0.00012393
0.000112411
0.000109565
9.64764e-05
0.000112684
0.000135121
0.000126363
0.000112872
0.000134715
0.000112373
0.000119513
9.73677e-05
0.000113458
0.000104917
0.000121458
0.000105239
0.000123876
0.000110736
0.000115501
0.000129896
0.000128957
0.000116555
0.000130396
0.000127024
0.000136109
0.000138516
0.000157403
0.00014108
0.000140233
0.0173592
0.0183162
0.0192493
0.0349835
0.00319062
0.00210065
0.00156717
0.000578949
0.00218924
0.00193015
0.00135638
0.00262768
0.00119782
0.00200385
0.00161852
0.00231806
0.00145925
0.00129158
0.00251486
0.0074027
0.0105264
0
0.351524
0.0370314
1.08453
0.0363199
0.022711
0.127821
0.107432
0
0
0
0
0
0
0.233723
0
0
0
0
0
0
0.817611
0
0
0
0
0
0
0
0
0
0
0
0
0
0
0
0
0
0
0
0
0
0
0
0
0
0
0
0
0
0
0
0
0
0
0
0
0
0
0
0
0
0
0
0
0
0
0
0
0
0
0
0
0
0
0
0
0
0
0
0
0
0
0
0
0
0
0
0
0
6.00468e-05
0
0
0
0
0.000102262
0.00015928
0.000121887
8.67001e-05
0.00020568
0.000167996
0.000127437
0.000113234
0.000253249
0.000105822
0.000219198
0.000185473
4.68487e-05
7.54549e-05
0.000130082
0.000226879
0.000300616
0.000269063
0.000179589
0.000163413
0.00019133
0.000155093
0.000283147
0.00024524
0.000298687
0.000208651
0.000209207
0.00031541
0.000181791
0
0
0
0
0.000311654
0.00019823
0.00021667
0
0
8.83853e-05
0.000358501
0
0.0752971
0
0
0.000320503
0.000190228
0.0166871
0.00132716
0.00219817
0.0113418
0.000206046
0.00106693
0.000663632
0.000196544
0.000330151
0.000334146
0.000152245
0.0001392
0.000188113
9.86299e-05
0.000158505
0.000231319
0.000285069
0.000172451
0.000186979
0.000232202
0.000178872
0.000183863
0.000103913
0
0
0
0
0
0
0
0
0
0
0
1.24291
0
0
0
0.0197392
0.00771892
0.0453086
0
0
0.0920977
0
0
0
0
0
0
0
0
0
0
0
0
0
0
0
0.00957251
0
0.00374463
0
0
0
0
0
0
0
0
0
0
0
0.0281768
0
0
0
0
0
0
0.000312911
0.00034715
0.000197159
0.000201006
0.000316964
0.000212043
0.000298482
0.000257279
0.000250874
0.000233933
0.000210382
0.000227423
0.000168548
0.000126934
0.000238476
0.00024533
0.000173062
0.000268521
0.000309542
0.000345579
0.000314347
0.000286182
0.00028852
0.000312496
0.00022383
0.000235546
0.000276891
0.000253224
0.000318605
0.000215157
0.000325793
0.000281917
0.000415158
0.000312827
0.000244628
0.000326721
0.000308923
0.000179033
0.00052023
0.000214499
0.000545516
0.000149587
3.0001e-05
0.000208257
0.000253728
0.000342449
0.000249694
0.00032249
0.000189441
0.000175956
0.000282329
0.000165559
9.30976e-05
0.000131597
0.000134686
0.00014094
0.000130797
0.000141998
0.000129952
0.000131207
0.000133379
0.000161763
0.000152024
0.00014782
0.000142553
0.000147433
0.00014213
0.000137506
0.000198888
0.000163112
0.000169642
0.000173374
0.00017398
0.000186872
0.000165411
0.000162332
0.000223702
0.000236228
0.000211211
0.000219458
0.000233177
0.000218701
0.000261998
0.000239614
0.000201833
0.000196455
0.000181179
0.00018401
0.000181323
0.000176631
0.000179001
0.000174854
0.000168977
0.000163014
0.000148226
0.000150359
0.000164431
0.000157067
0.000270962
0.000246404
0.000202345
0.000200311
0.000235324
0.000199985
0.00020157
0.000196234
0.000212343
0.000226515
0.000227147
0.000273686
0.000307295
0.000268682
0.000294414
0.000148742
0.00014696
0.000144835
0.000137486
0.000125109
0.000135452
0.000132027
0.000122936
0.00012108
0.000117552
0.000127442
0.00012455
0.000133641
0.000138968
0.000126078
0.000136096
0.000135912
0.000135072
0.000139217
0.000140063
0.000151514
0.000127379
0.000122536
0.000119398
0.000147353
0.000122882
0.00318257
0.0027604
0.00230136
0.00201651
0.000964285
0.000834371
0.0017493
0.00126708
0.00125735
0.00183161
0.000598701
0.00102077
0.00123226
0.00207605
0.00198038
0.00214725
0.001615
0.000516667
0.000391087
0.00049421
0.000510232
0.00013821
0.000497335
0.000554136
0.000219575
0.000146833
9.62148e-05
0.000299346
8.06473e-05
0.000144636
9.85172e-05
8.17734e-05
5.57004e-05
0.000103712
2.51368e-05
1.64804e-05
4.93144e-05
3.09001e-05
5.76176e-05
8.24653e-05
1.89631e-05
6.37456e-05
2.05741e-05
3.25626e-05
8.00722e-05
6.90006e-05
3.46604e-05
5.00504e-05
8.06674e-05
8.18539e-05
0.000114268
0.000120962
9.98806e-05
9.15188e-05
0.000103091
0.00012427
0.000122643
0.000107896
0.000123782
9.44463e-05
0.000108521
9.60781e-05
0.00011618
0.000101552
0.000101207
0.00011808
0.000106685
0.000119157
0.000119714
0.000107039
0.000119
0.0001104
0.000121823
0.000121385
0.000139104
0.000127225
0.000145623
0.000132738
0.115089
0
0.0313337
0.165867
0.115016
0.0431711
0.205641
0.0132123
0.372872
0.00360673
0.00188138
0.0467234
0.006813
0.00139269
0.00224677
0.00134927
0.00198487
0.00224593
0.00273891
0.00393048
0.00493936
0
0
0
0
0
0.165697
0
0
0
0
0
0
0
0
0.562503
0
0
0
0.177064
0
0
0
0
0
0
0
0
0
0
0
0
0
0
0
0
0
0
0.684776
0
0
0
0
0
0.00166418
0.00251217
0.00376214
0
0
0
0
0
0
0
0
0
0
0
0
0
0
0
0
0
0
0
0
0
0
0
0
0
0
0
0
0
0
0
0
0
0
0
0
0
0
0
0
0
0.00508299
0
0.00288303
0
0.0100625
0
0
0
0.000118367
0.000151361
0.000137515
0.000178194
0.00014069
0.000159086
0.00013644
1.5914e-05
0.000167489
0.000292135
0.000135235
0.000223692
0.000197092
0.000185834
0.000172244
0.000219112
0.000162849
8.91155e-05
0.00014421
0.000167803
0.000322053
0.000201187
0.000234463
0.000233513
0.000145556
0.000280511
0.000245147
0.000147025
0.000256794
0.000309182
0.000294752
0.000196055
0.000192185
0
0
0.000218712
0.000224505
0.000268875
0
0
0.000277208