/*--------------------------------*- C++ -*----------------------------------*\
  =========                 |
  \\      /  F ield         | OpenFOAM: The Open Source CFD Toolbox
   \\    /   O peration     | Website:  https://openfoam.org
    \\  /    A nd           | Version:  8
     \\/     M anipulation  |
\*---------------------------------------------------------------------------*/
FoamFile
{
    version     2.0;
    format      ascii;
    class       volScalarField;
    location    "4560";
    object      Hclip;
}
// * * * * * * * * * * * * * * * * * * * * * * * * * * * * * * * * * * * * * //

dimensions      [0 1 0 0 0 0 0];

internalField   nonuniform List<scalar> 
526318
(
0.803316
0.755602
0.832186
0.749187
0.820555
0.768627
0.787846
0.705122
0.76471
0.652204
0.620108
0.741947
0.689039
0.731139
0.684212
0.710101
0.691272
0.890944
0.800343
0.843124
0.838188
0.794408
0.562213
0.800041
0.680369
0.535118
0.813871
0.8147
0.819105
0.832541
0.859217
0.906895
0.889487
0.768484
0.774769
0.737693
0.749603
0.836621
0.756486
0.715166
0.765531
0.746564
0.416505
0.455704
0.34424
0.427951
0.375976
0.515113
0.688308
0.587632
0.6664
0.677837
0.622882
0.592686
0.0888323
0.318553
0.322812
0.0935835
0.848163
0.858744
0.880297
0.826991
0.780276
0.906331
0.901827
0.858481
0.846937
0.842854
0.750373
0.742634
0.851673
0.632102
0.690106
0.581414
0.539054
0.530354
0.632406
0.617621
0.538458
0.578759
0.652789
0.660725
0.614162
0.564256
0.589956
0.664223
0.661238
0.640603
0.591152
0.660707
0.565258
0.514963
0.507624
0.438737
0.441809
0.441414
0.443578
0.438983
0.434288
0.432968
0.001
0.001
0.00100063
0.001
0.0010332
0.001
0.348965
0.170566
0.48024
0.437387
0.485914
0.595941
0.815762
0.715828
0.824839
0.82812
0.894713
0.872485
0.916037
0.430619
0.431224
0.43614
0.434707
0.393957
0.431591
0.34345
0.383099
0.297548
0.343125
0.294644
0.292885
0.285729
0.258783
0.255267
0.279808
0.220639
0.276976
0.22443
0.244916
0.190895
0.198628
0.217947
0.24624
0.230698
0.189145
0.189597
0.199511
0.193855
0.184661
0.19384
0.20493
0.191723
0.19741
0.197807
0.198275
0.162539
0.198636
0.193735
0.166283
0.124488
0.196846
0.146033
0.205819
0.697723
0.794751
0.736704
0.721583
0.526215
0.599247
0.532119
0.523579
0.532431
0.524823
0.553493
0.525231
0.458561
0.436003
0.398222
0.340624
0.401005
0.439182
0.440414
0.442298
0.328006
0.379019
0.267975
0.274953
0.287775
0.277249
0.278769
0.28123
0.268186
0.270471
0.268528
0.257386
0.24116
0.263494
0.257571
0.230199
0.207728
0.236203
0.217515
0.210396
0.232406
0.221005
0.230343
0.185036
0.213735
0.235895
0.235413
0.686664
0.700951
0.728579
0.701673
0.686449
0.683144
0.68537
0.565217
0.603906
0.356032
0.320462
0.314727
0.447214
0.576252
0.460248
0.496351
0.487885
0.441393
0.42459
0.001
0.001
0.0535928
0.283536
0.001
0.001
0.001
0.001
0.001
0.001
0.897824
0.878363
0.926369
0.919657
0.8843
0.879632
0.789012
0.870201
0.719332
0.66059
0.665693
0.660114
0.664564
0.661063
0.652351
0.646532
0.571377
0.62678
0.449929
0.502354
0.433002
0.447623
0.00100536
0.001
0.001
0.00100202
0.001
0.001
0.001
0.0589854
0.444328
0.256258
0.490526
0.497568
0.61482
0.702637
0.83628
0.826584
0.864436
0.850146
0.913996
0.942581
0.412642
0.413839
0.373046
0.343613
0.241353
0.281046
0.203971
0.216397
0.204414
0.197507
0.189918
0.194223
0.114584
0.143483
0.178074
0.211474
0.271148
0.229988
0.206459
0.193381
0.136962
0.119236
0.172829
0.232522
0.159437
0.189691
0.190679
0.158849
0.152406
0.121359
0.116638
0.0808514
0.0836289
0.0866793
0.0715824
0.19977
0.226421
0.193635
0.236415
0.59729
0.554163
0.458647
0.544319
0.46682
0.51245
0.517799
0.522257
0.526225
0.532131
0.437553
0.355939
0.27778
0.265512
0.337494
0.284548
0.264487
0.378906
0.268669
0.319879
0.256654
0.259637
0.26832
0.25834
0.273034
0.270257
0.26383
0.267778
0.267393
0.266107
0.277321
0.276138
0.285167
0.27873
0.284691
0.262939
0.278141
0.257044
0.231551
0.240049
0.261304
0.292395
0.274902
0.262858
0.23965
0.26505
0.304731
0.306094
0.326174
0.28336
0.321428
0.333352
0.370159
0.326887
0.333371
0.346185
0.384231
0.507818
0.582939
0.508902
0.544866
0.603298
0.67353
0.5826
0.451108
0.560229
0.463344
0.487767
0.222651
0.155127
0.225824
0.175776
0.290349
0.41312
0.34621
0.416981
0.418303
0.443972
0.420806
0.001
0.001
0.001
0.001
0.0592373
0.001
0.001
0.00100998
0.001
0.00100962
0.001
0.00100889
0.001
0.001
0.001
0.001
0.918408
0.911994
0.945723
0.936157
0.912046
0.887922
0.811212
0.728967
0.661734
0.673006
0.653031
0.650901
0.631477
0.629527
0.608673
0.612837
0.563818
0.603166
0.527733
0.470946
0.414672
0.371995
0.001
0.00112137
0.00112177
0.001
0.001
0.001
0.001
0.001
0.00112106
0.00112076
0.001
0.00100984
0.001
0.00100942
0.00128562
0.001
0.001
0.001
0.001
0.001
0.001
0.001
0.00101628
0.001
0.137182
0.00120214
0.355017
0.512869
0.532294
0.61857
0.837141
0.741066
0.861052
0.850343
0.872319
0.896551
0.93044
0.947299
0.330545
0.329627
0.283596
0.314414
0.252698
0.212477
0.204104
0.20684
0.197387
0.206044
0.156476
0.150951
0.101804
0.10641
0.168299
0.13655
0.110939
0.167618
0.152887
0.169315
0.084412
0.0781515
0.096134
0.111399
0.110045
0.0643768
0.0703588
0.0635636
0.0679204
0.051326
0.0513476
0.352455
0.331173
0.321453
0.33718
0.348994
0.452029
0.413554
0.390005
0.276125
0.310542
0.308004
0.302267
0.197223
0.132779
0.322627
0.437398
0.325601
0.331808
0.311274
0.39149
0.366167
0.433716
0.469328
0.405595
0.384745
0.419066
0.292013
0.260721
0.263962
0.262511
0.177532
0.23453
0.15462
0.110083
0.0925702
0.215298
0.206926
0.257437
0.259017
0.257803
0.260613
0.259629
0.265565
0.258813
0.271273
0.268518
0.284104
0.277263
0.286162
0.288066
0.307779
0.289005
0.316191
0.318249
0.269875
0.250053
0.317145
0.298484
0.28095
0.304034
0.28804
0.273901
0.332843
0.307452
0.406679
0.4171
0.367801
0.418597
0.423585
0.381558
0.473232
0.451472
0.51125
0.537304
0.556763
0.473685
0.48899
0.479801
0.44967
0.416422
0.391673
0.481927
0.323606
0.314907
0.358473
0.391436
0.0612188
0.100495
0.19756
0.314354
0.347526
0.37966
0.282316
0.254405
0.222283
0.157009
0.001
0.001
0.001
0.001
0.0019423
0.0614306
0.001
0.001
0.00100979
0.001
0.001
0.001
0.001
0.001
0.001
0.001
0.001
0.001
0.001
0.001
0.001
0.00101
0.001
0.00100053
0.001
0.001
0.00118811
0.001
0.001
0.00118807
0.00118809
0.0011881
0.001
0.001
0.001
0.001
0.001
0.001
0.001
0.001
0.00100959
0.001
0.0010078
0.00100281
0.001
0.001
0.916119
0.922384
0.943651
0.936041
0.913698
0.843144
0.664859
0.745377
0.631759
0.631916
0.610289
0.610708
0.602459
0.603244
0.59736
0.598172
0.543152
0.51379
0.415679
0.455066
0.309088
0.350431
0.001
0.001
0.001
0.001
0.001
0.001
0.001
0.001
0.001
0.001
0.001
0.001
0.001
0.001
0.001
0.001
0.001
0.00100737
0.001
0.001
0.001
0.001
0.001
0.001
0.001
0.001
0.00105337
0.001
0.001
0.001
0.0136222
0.001
0.0375479
0.034295
0.329598
0.16579
0.537447
0.492524
0.564346
0.668107
0.778275
0.852406
0.864187
0.858926
0.89832
0.926164
0.91355
0.908683
0.00101
0.001
0.001
0.001
0.001
0.001
0.001
0.001
0.001
0.001
0.001
0.001
0.001
0.001
0.001
0.00101
0.001
0.31375
0.310869
0.314317
0.278288
0.199472
0.228031
0.15675
0.1529
0.114967
0.106649
0.0646127
0.0612448
0.0988731
0.0922291
0.0583577
0.0811565
0.0816312
0.126643
0.115225
0.110743
0.0295558
0.0036674
0.00308973
0.0441368
0.0521204
0.0525493
0.0315835
0.0335664
0.001
0.001
0.001
0.001
0.543055
0.512622
0.551986
0.566577
0.512453
0.472647
0.642279
0.672734
0.734489
0.736634
0.293549
0.329635
0.381081
0.46458
0.275889
0.224735
0.260524
0.263182
0.110618
0.149644
0.201646
0.097616
0.308095
0.307259
0.303731
0.307306
0.324676
0.300336
0.323061
0.336263
0.217884
0.206928
0.10752
0.194689
0.186706
0.146351
0.0982471
0.113539
0.0574817
0.0758418
0.0587686
0.143103
0.204105
0.138058
0.208226
0.257651
0.257586
0.260577
0.263536
0.264969
0.282866
0.277994
0.294129
0.287895
0.304402
0.296587
0.320078
0.323151
0.322615
0.324957
0.336565
0.326601
0.371885
0.340293
0.310842
0.309657
0.379104
0.342892
0.346777
0.392517
0.431863
0.426986
0.427277
0.428706
0.452307
0.502044
0.570126
0.591766
0.600526
0.58229
0.725006
0.669539
0.791202
0.82819
0.824749
0.861123
0.920194
0.78057
0.863717
0.894186
0.962312
1.01201
1.03897
1.05558
1.08464
1.03343
1.08511
1.04243
1.11894
1.12052
1.16944
1.13795
1.20112
1.23671
1.22297
1.17268
1.23951
1.26537
1.22688
1.23111
1.29048
1.26702
1.30414
1.24032
1.2432
1.30228
1.27053
1.22663
1.22613
1.25892
1.28605
0.285318
0.244602
0.413052
0.404192
0.38762
0.379176
0.375514
0.151705
0.267149
0.001
0.00658988
0.100185
0.0910882
0.001
0.0485815
0.0405996
0.217192
0.116972
0.1146
0.0232255
0.0210834
0.0337073
0.0499993
0.001
0.00103709
0.001
0.001
0.001
0.001
0.00101
0.001
0.001
0.001
0.001
0.00138287
0.001
0.001
0.001
0.001
0.001
0.001
0.001
0.001
0.00119078
0.001
0.001
0.001
0.001
0.001
0.001
0.001
0.001
0.001
0.00100231
0.001
0.001
0.001
0.001
0.00105415
0.001
0.001
0.001
0.00105618
0.00100986
0.001
0.0011539
0.001
0.001
0.00115776
0.00105911
0.001
0.00115824
0.001
0.00111106
0.0011106
0.001
0.001
0.00101924
0.001
0.001
0.001
0.001
0.001
0.00100983
0.00100977
0.001
0.001
0.001
0.001
0.001
0.001
0.001
0.0012372
0.001
0.001
0.901195
0.894749
0.86645
0.860298
0.783714
0.851452
0.674198
0.615062
0.602218
0.601056
0.599671
0.604163
0.537897
0.550471
0.393107
0.351511
0.309369
0.483736
0.486288
0.435411
0.433455
0.429717
0.001
0.001
0.00112221
0.00112264
0.001
0.001
0.001
0.001
0.001
0.001
0.001
0.00100893
0.001
0.001
0.001
0.001
0.001
0.001
0.001
0.001
0.001
0.001
0.00120253
0.00120281
0.001
0.001
0.001
0.0361865
0.171835
0.0376
0.322408
0.502509
0.521902
0.558655
0.635599
0.751623
0.816732
0.797435
0.837028
0.775725
0.82272
0.865096
0.815869
0.818304
0.00123946
0.001
0.00101
0.001
0.001
0.0012021
0.001
0.001
0.00120209
0.001
0.00100237
0.001
0.001
0.001
0.001
0.001
0.001
0.001
0.001
0.001
0.001
0.001
0.001
0.001
0.0017751
0.00100984
0.286705
0.2876
0.209393
0.220233
0.101284
0.118805
0.0615767
0.0594221
0.0598646
0.0610867
0.0347566
0.0333331
0.00686077
0.00699729
0.001
0.0283424
0.101257
0.0703673
0.0973481
0.101886
0.001
0.001
0.001
0.001
0.001
0.001
0.001
0.001
0.001
0.001
0.00124871
0.001
0.775563
0.772266
0.59486
0.508677
0.497866
0.489049
0.773666
0.684202
0.930537
1.00535
0.904311
0.822217
1.01505
1.0001
1.06009
1.10802
1.1393
1.13729
1.16891
1.14028
1.19733
1.22342
1.22141
1.22169
1.23704
1.22748
1.2269
1.27112
1.21731
1.20926
0.342648
0.268673
0.406412
0.48005
0.257751
0.199731
0.267174
0.256592
0.0934236
0.162001
0.001
0.148793
0.030735
0.30298
0.247466
0.31012
0.300965
0.300669
0.203572
0.101901
0.0247577
0.0110343
0.0242633
0.0607392
0.001
0.001
0.001
0.001
0.07006
0.0647291
0.001
0.0868258
0.152194
0.10012
0.206213
0.153773
0.196015
0.2484
0.287801
0.265427
0.295257
0.296096
0.30614
0.293925
0.329093
0.343504
0.344404
0.352018
0.360795
0.367823
0.398383
0.408885
0.402126
0.391338
0.398523
0.387238
0.407597
0.419521
0.462408
0.459043
0.426988
0.458702
0.455284
0.487232
0.518745
0.586172
0.617699
0.616134
0.627551
0.697229
0.775326
0.854867
0.861575
0.987694
0.867829
0.916115
1.06227
1.08289
1.08605
1.12353
1.17454
1.22675
1.23846
1.24131
1.26845
1.29814
1.31935
1.31461
1.32546
1.31844
1.32076
1.29462
1.23778
1.30271
1.26967
1.22059
1.22596
1.25615
1.28929
1.30151
1.22516
1.28909
1.24766
0.070847
0.0609016
0.136552
0.209425
0.0981305
0.171217
0.307552
0.244831
0.262205
0.103309
0.00793085
0.001
0.001
0.0724104
0.0600658
0.001
0.001
0.0191637
0.001
0.0213212
0.0196305
0.0273762
0.0195073
0.0355472
0.0539142
0.001
0.001
0.001
0.001
0.00126586
0.00126579
0.001
0.001
0.001
0.00138247
0.001
0.001
0.001
0.001
0.001
0.00101
0.001
0.00119026
0.001
0.001
0.001
0.001
0.001
0.001
0.00100779
0.001
0.00105285
0.001
0.001
0.001
0.00111742
0.001
0.001
0.001
0.001
0.001
0.001
0.001
0.001
0.001
0.001
0.001
0.001
0.001
0.001
0.001
0.001
0.00136795
0.001
0.00104567
0.001
0.00100962
0.001
0.001
0.001
0.001
0.001
0.001
0.001
0.001
0.813116
0.815461
0.796355
0.801025
0.732632
0.794124
0.601864
0.670833
0.55892
0.565647
0.509717
0.48493
0.436822
0.432991
0.346594
0.248002
0.221593
0.391084
0.434483
0.438075
0.433654
0.432327
0.00112197
0.001
0.00112162
0.001
0.001
0.001
0.001
0.001
0.001
0.001
0.001
0.001
0.001
0.001
0.001
0.00100999
0.001
0.001
0.001
0.001
0.001
0.001
0.001
0.00101
0.001
0.001
0.00116512
0.0343414
0.232241
0.0604846
0.362644
0.505065
0.468777
0.586649
0.749293
0.649677
0.730821
0.729145
0.722143
0.750377
0.80853
0.802454
0.808465
0.778781
0.001
0.001
0.001
0.001
0.001
0.001
0.001
0.001
0.001
0.001
0.001
0.001
0.001
0.001
0.001
0.001
0.001
0.001
0.001
0.00124215
0.001
0.00123783
0.001357
0.001
0.00101
0.001
0.001
0.001
0.001
0.001
0.001
0.158679
0.157716
0.125308
0.104692
0.0626391
0.0837105
0.046591
0.0472555
0.207376
0.146603
0.126381
0.001
0.001
0.001
0.001
0.00143844
0.00147635
0.001
0.0157954
0.0836458
0.0271896
0.0628233
0.0522105
0.001
0.001
0.001
0.001
0.001
0.00101582
0.001
0.001
0.001
0.001
0.001
0.001
1.34156
1.35443
1.37993
1.35671
1.40224
1.3838
1.41703
1.40267
1.46011
1.44933
1.41706
1.4667
1.42983
1.4874
1.31608
1.26445
1.2903
1.34016
1.3191
1.28695
1.2963
1.34539
1.34429
1.32455
1.30364
1.35712
1.33876
1.35266
1.36903
1.22436
1.22436
1.22388
1.22223
1.23787
1.26487
0.820884
0.764444
0.657055
0.557932
0.479682
0.547829
0.755069
0.736979
0.975299
1.00279
0.883547
0.972922
1.01028
1.05204
1.09926
1.13995
1.13524
1.13843
1.13495
1.16586
1.1773
1.20539
1.19133
1.197
1.20384
1.21547
1.18815
1.18709
0.389444
0.316066
0.250088
0.240519
0.311636
0.481142
0.458518
0.171824
0.238789
0.113509
0.050249
1.33326
1.35424
1.36847
1.377
1.38213
1.38826
1.39476
1.41674
1.40806
1.42064
1.42659
1.47137
1.49718
1.522
1.51995
1.52785
1.53997
1.56019
0.0228294
0.001
0.00155855
0.228748
0.123805
0.29617
0.191981
0.108351
0.0121139
0.012037
0.0121963
0.0129958
0.001
0.001
0.001
0.001
0.001
0.001
0.0748244
0.00785567
0.001
0.10228
0.101272
0.10507
0.153682
0.109251
0.237094
0.184886
0.269336
0.236098
0.266483
0.296761
0.320484
0.344714
0.369542
0.36539
0.378953
0.371509
0.431073
0.413091
0.409001
0.409141
0.462072
0.43786
0.504157
0.468382
0.448793
0.488539
0.533393
0.521455
0.542971
0.588686
0.587024
0.524866
0.638922
0.670992
0.640231
0.627489
0.710051
0.794155
0.866013
0.929243
0.883226
0.898482
1.02271
1.07721
1.12456
1.10647
1.17375
1.20659
1.24718
1.26505
1.2573
1.27539
1.32664
1.31192
1.32625
1.329
1.32345
1.30789
1.32753
1.31861
1.31671
1.32276
1.32409
0.0534631
0.0468584
0.0730059
0.001
0.00992364
0.0315572
0.00102076
0.109324
0.0128908
0.001
0.00107402
0.001
0.001
0.001
0.00155139
0.001
0.001
0.001
0.001
0.0178257
0.001
0.001
0.001
0.001
0.001
0.001
0.001
0.001
0.00116536
0.0011653
0.00126483
0.001
0.00108372
0.001
0.001
0.001
0.001
0.001
0.001
0.001
0.00100984
0.001
0.00116506
0.001
0.001
0.001
0.00100238
0.001
0.001
0.001
0.001
0.00240966
0.001
0.00100904
0.001
0.001
0.001
0.001
0.00100993
0.001
0.001
0.001
0.001
0.001
0.00107823
0.001
0.001
0.001
0.001
0.001
0.001
0.001
0.001
0.001
0.001
0.001
0.001
0.001
0.00101
0.001
0.001
0.001
0.001
0.001
0.001
0.001
0.001
0.001
0.001
0.0017674
0.001
0.001
0.001
0.001
0.00177118
1.51723
1.47896
1.44245
1.55518
1.58474
1.58265
0.795927
0.796873
0.788732
0.777845
0.702791
0.773972
0.601772
0.520222
0.447461
0.467616
0.434104
0.43477
0.434133
0.43727
0.308646
0.233971
0.318178
0.399969
0.398555
0.001
0.001
0.001
0.001
0.001
0.001
0.001
0.001
0.001
0.001
0.00100943
0.001
0.001
0.001
0.0339369
0.057386
0.00100998
0.001
0.001
0.001
0.001
0.001
0.001
0.001
0.001
0.001
0.001
0.205128
0.3404
0.454997
0.453342
0.774341
0.699226
0.70735
0.487757
0.580814
0.668612
0.721085
0.723272
0.72088
0.74125
0.770603
0.763774
0.001
0.00111843
0.001
0.001
0.001
0.001
0.00100904
0.001
0.001
0.001
0.001
0.001
0.001
0.001
0.00100996
0.001
0.001
0.00101778
0.001
0.001
0.001
0.001
0.001
0.001
0.00102505
0.001
0.001
0.001
0.001
0.001
0.00103117
0.001
0.001
0.00100967
0.001
0.0010519
0.00105226
0.161881
0.196377
0.186172
0.124793
0.126548
0.0952581
0.123027
0.001
0.0139398
0.001
0.001
0.129335
0.119441
0.001
0.001
0.001
0.001
0.001
0.001
0.001
0.001
0.0224955
0.00100271
0.0238064
0.0326881
0.001
0.001
0.001
0.001
0.001
0.001
0.001
0.001
0.001
0.001
0.001
0.001
1.34338
1.35192
1.38002
1.39798
1.40862
1.40937
1.45939
1.42707
1.28283
1.27335
1.25897
1.28574
1.31993
1.27643
1.3176
1.29791
1.21245
1.19766
1.19791
1.22985
1.25735
1.22846
0.825574
0.748777
0.632433
0.72807
0.571422
0.492865
0.739291
0.746175
0.982119
0.990211
1.00299
0.896647
0.979263
1.08808
1.03536
0.979009
1.02392
1.12166
1.13138
1.12548
1.1275
1.13773
1.15682
1.18177
1.17821
1.186
1.18805
1.18843
1.19094
1.18199
1.18867
0.226925
0.22372
0.368298
0.457976
0.224525
0.320131
0.472257
0.488736
0.212401
0.181276
0.0747696
0.144904
1.3596
1.32842
1.3397
1.38435
1.37987
1.38275
1.39343
1.413
1.43744
1.44986
1.44502
1.45271
1.47968
1.5223
1.5039
1.52008
1.5367
1.58509
1.5626
1.38823
1.39887
1.41598
1.59114
1.59314
1.59146
0.00154759
0.00154859
0.0015705
0.001
0.0401857
0.0564197
0.001
0.001
0.001
0.001
0.001
0.001
0.001
0.0012732
0.001
0.00127317
0.001
0.001
0.001
0.001
0.00176553
0.0299481
0.104792
0.0216798
0.17698
0.201778
0.133136
0.175415
0.234603
0.203395
0.33015
0.270032
0.344332
0.36077
0.369832
0.363688
0.408486
0.448116
0.48213
0.484248
0.489483
0.475235
0.497572
0.480343
0.531381
0.533136
0.552724
0.549966
0.536289
0.538948
0.663683
0.705836
0.609551
0.664681
0.714966
0.683467
0.779356
0.828013
0.923133
0.961053
0.935036
1.02486
1.07526
1.17866
1.16404
1.2269
1.20101
1.29817
1.30446
1.29376
1.32534
1.34934
1.34607
1.40288
1.37061
1.39447
1.34723
1.3773
1.39514
1.3057
1.36233
1.3224
0.001
0.001
0.001
0.001
0.001
0.00102295
0.001
0.001
0.00102034
0.001
0.001
0.001
0.001
0.001
0.001
0.001
0.001
0.001
0.001
0.001
0.001
0.001
0.001
0.001
0.001
0.001
0.001
0.001
0.00116524
0.00116525
0.001
0.001
0.001
0.001
0.00101
0.001
0.0010004
0.001
0.001
0.001
0.001
0.001
0.00181009
0.001
0.001
0.001
0.001
0.001
0.001
0.001
0.001
0.00219976
0.001
0.001
0.001
0.0012567
0.0011461
0.001
0.00100983
0.001
0.001
0.001
0.001
0.001
0.00107838
0.00107845
0.001
0.001
0.00107865
0.00107855
0.001
0.001
0.001
0.001
0.0013198
0.001
0.00131952
0.001
0.001
0.001
0.001
0.00101819
0.001047
0.00104702
0.001
0.001
0.001
0.001
0.001
0.001
0.001
0.001
0.001
0.001
0.001146
0.001
0.00100958
0.00100998
0.001
0.001
0.001
0.001
0.00101
1.5019
1.47903
1.48537
1.49059
1.52091
1.63614
1.60483
1.60694
1.63034
1.56588
0.710521
0.690882
0.626428
0.633999
0.58678
0.621572
0.527134
0.484497
0.465877
0.436988
0.413527
0.407859
0.32162
0.328969
0.199031
0.240532
0.239238
0.001
0.001
0.001
0.00101
0.001
0.001
0.001
0.0307962
0.169267
0.0320636
0.001
0.001
0.001
0.001
0.001
0.001
0.00101
0.001
0.001
0.00102249
0.001
0.001
0.001
0.001
0.001
0.56803
0.576854
0.614396
0.324944
0.450807
0.453862
0.489909
0.616758
0.686945
0.643736
0.548877
0.631996
0.663852
0.668694
0.583693
0.612432
0.001
0.001
0.00111851
0.00104829
0.001
0.001
0.00104326
0.00121553
0.001
0.001
0.001
0.0019633
0.001
0.001
0.001
0.00296015
0.00297266
0.00296822
0.001
0.001
0.001
0.0010289
0.001
0.001
0.001
0.00103464
0.001
0.001
0.001
0.001
0.001
0.001
0.00100136
0.001
0.001
0.001
0.001
0.001
0.001
0.001
0.001
0.001
0.001
0.001
0.001
0.177887
0.186137
0.197832
0.0640213
0.0872051
0.0453462
0.0471634
0.001
0.001
0.001
0.001
0.00110631
0.0021063
0.001
0.001
0.001
0.001
0.001
0.001
0.001
0.001
0.001
0.001
0.0163633
0.00100124
0.0465235
0.0016258
0.001
0.001
0.001
0.00120595
0.001
0.001
0.001
0.001
0.00101
0.001
0.001
0.00131602
1.35291
1.30162
1.38325
1.34099
1.35277
1.38848
1.37677
1.44614
1.38456
1.46167
1.41162
1.4119
1.46938
1.44892
1.24156
1.24395
1.23198
1.24919
1.26076
1.27527
1.2731
1.28689
1.18888
1.19009
1.21134
1.19259
1.22119
1.23635
0.829576
0.748321
0.659527
0.740312
0.541682
0.62371
0.737794
0.751195
0.974075
0.980419
0.979593
0.904895
1.06826
1.11523
1.02737
0.974079
1.1183
1.1209
1.13116
1.1245
1.15924
1.1759
1.18269
1.18008
1.17506
1.1829
1.18528
1.19042
1.18075
1.18844
0.221024
0.220825
0.391691
0.46817
0.377897
0.282646
0.526285
0.462966
0.203125
0.217083
0.204053
0.11064
1.38071
1.39853
1.36559
1.404
1.41828
1.40972
1.44222
1.45435
1.4372
1.45084
1.43616
1.45026
1.45995
1.47639
1.501
1.51648
1.52124
1.57387
1.55158
1.59634
1.60187
1.47233
1.48726
1.61392
1.61656
0.001
0.001
0.001
0.001
0.001
0.001
0.001
0.001
0.00101
0.001
0.001
0.001
0.001
0.001
0.001
0.001
0.001766
0.001
0.001
0.001
0.001
0.001
0.0958953
0.00949794
0.189342
0.197569
0.162387
0.108345
0.231515
0.272908
0.334207
0.32178
0.342893
0.339771
0.447357
0.398194
0.503207
0.490314
0.508212
0.515758
0.487183
0.546058
0.590912
0.563379
0.553605
0.580579
0.629295
0.613723
0.600762
0.640623
0.727997
0.732713
0.719833
0.74286
0.875885
0.78611
0.956649
0.983954
0.978869
1.04573
1.12318
1.19858
1.21238
1.22313
1.27147
1.31932
1.35295
1.35182
1.39029
1.36151
1.41595
1.43104
1.42959
1.43274
1.43105
1.4392
1.37312
1.42867
1.40122
0.001
0.001
0.00603999
0.00102573
0.001
0.001
0.001
0.001
0.001
0.001
0.00104876
0.00126632
0.001
0.00126629
0.00126635
0.00126666
0.00126598
0.001
0.00126664
0.0061379
0.001
0.001
0.001
0.00212591
0.001
0.00212585
0.00212581
0.001
0.001
0.00100217
0.001
0.001
0.001
0.001
0.00104442
0.00104844
0.001
0.001
0.00100986
0.001
0.001
0.001
0.00169419
0.001
0.001
0.001
0.001
0.001
0.001
0.001
0.001
0.001
0.00100941
0.001
0.001
0.001
0.00100992
0.001
0.001
0.001
0.00101
0.001
0.001
0.001
0.001
0.001
0.001
0.00100223
0.001
0.001
0.001
0.00100949
0.001
0.001
0.001
0.001
0.001
0.001
0.001
0.001
0.001
0.001
0.00119443
0.001
0.001
0.001
0.001
0.001
0.001
0.001
0.001
0.001
0.001
0.001
0.001
0.001
0.001
0.001
0.001
0.001
0.001
0.001
0.001
0.001
0.001
0.001
0.001
0.001
0.001
0.001
0.001
0.001
0.00110102
0.001
0.001
0.001
0.001
1.67081
1.64889
1.66264
1.65269
1.66513
1.66659
1.4975
1.49646
1.56599
1.53639
1.62699
1.65627
1.6299
1.52206
1.49344
0.568811
0.567021
0.572533
0.556781
0.567848
0.501196
0.539906
0.33065
0.38489
0.252147
0.249245
0.193075
0.200979
0.200112
0.001
0.001
0.001
0.00125585
0.00640453
0.190544
0.0318606
0.001
0.001
0.001
0.001
0.00105015
0.001
0.001
0.001
0.001
0.001
0.001
0.00101579
0.001
0.00101596
0.001
0.001
0.001
0.569325
0.566545
0.571543
0.571207
0.573931
0.293662
0.394715
0.340679
0.463243
0.528948
0.546571
0.475451
0.564697
0.509661
0.518329
0.495044
0.001
0.00114417
0.001
0.001
0.001
0.001
0.001
0.00101755
0.001
0.001
0.00101588
0.001
0.001
0.001
0.001
0.001
0.001
0.001
0.001
0.00101586
0.001
0.001
0.001
0.001
0.001
0.00100951
0.001
0.001
0.001
0.001
0.001
0.001
0.001
0.001
0.001
0.001
0.001
0.001
0.00117083
0.00101
0.001
0.001
0.001
0.001
0.00100983
0.001
0.001
0.001
0.001
0.001
0.001
0.001
0.001
0.001
0.001
0.001
0.001
0.172992
0.106668
0.090064
0.0220575
0.0136872
0.001
0.001
0.00102354
0.001
0.001
0.00102006
0.001
0.001
0.001
0.001
0.001
0.001
0.001
0.001
0.001
0.001
0.001
0.0399089
0.001
0.001
0.001
0.001
0.001
0.001
0.001
0.001
0.001
0.001
0.00183445
0.00183072
0.001
0.001
0.001
0.001
0.00100972
0.001
1.28997
1.29694
1.31696
1.31941
1.32249
1.33036
1.40413
1.38967
1.38531
1.35568
1.46063
1.41328
1.40013
1.23145
1.23197
1.26377
1.24852
1.27515
1.27234
1.30225
1.28252
1.19067
1.20062
1.21996
1.20589
1.21952
1.22868
0.866804
0.784467
0.706937
0.739143
0.689072
0.603027
0.778694
0.742694
0.980027
0.981535
0.941001
0.984472
1.07226
1.12259
0.977735
1.02993
1.12035
1.12279
1.14313
1.12213
1.16816
1.18287
1.18658
1.18847
1.16373
1.18518
1.18907
1.18384
1.16837
1.17793
0.21343
0.282279
0.465824
0.450523
0.366309
0.453244
0.467417
0.545233
0.213193
0.20421
0.212779
0.117639
0.001
0.00327595
0.075171
1.44445
1.42694
1.46094
1.43661
1.47874
1.4912
1.48503
1.48369
1.52531
1.51112
1.51784
1.48466
1.51414
1.52572
1.55101
1.56711
1.57883
1.57966
1.63465
1.63484
1.65695
1.63655
1.54622
1.55064
1.66978
1.67222
0.001
0.001
0.00101
0.001
0.001
0.00123095
0.00123084
0.001
0.001
0.001
0.001
0.00189432
0.00126682
0.001
0.001
0.001
0.00100232
0.001
0.001
0.001
0.001
0.001
0.0364513
0.054186
0.0352199
0.142304
0.212279
0.100942
0.315551
0.254212
0.325342
0.325121
0.416798
0.354364
0.478606
0.505849
0.502139
0.50545
0.633925
0.598209
0.568126
0.621722
0.649852
0.641987
0.633075
0.623117
0.640173
0.640466
0.718783
0.766511
0.801242
0.759113
0.801107
0.83052
0.962835
0.900067
0.991321
0.976664
1.06169
1.13396
1.22962
1.22036
1.26105
1.29356
1.3695
1.36039
1.3823
1.3851
1.41523
1.42756
1.44214
1.43633
1.44775
1.44244
1.43014
1.44673
1.42736
1.42151
0.001
0.001
0.00102125
0.001
0.001
0.001
0.001
0.001
0.001
0.00126489
0.001
0.001
0.001
0.00126618
0.00126704
0.00126753
0.00126847
0.00126893
0.00126799
0.001
0.001
0.00100989
0.001
0.001
0.001
0.00100179
0.001
0.001
0.001
0.001
0.001
0.00101
0.001
0.001
0.00100863
0.00104846
0.001
0.001
0.001
0.00359727
0.001
0.001
0.001
0.00100996
0.001
0.001
0.001
0.00100983
0.001
0.001
0.00100647
0.001
0.00100976
0.001
0.001
0.001
0.001
0.001
0.00360794
0.001
0.001
0.001
0.001
0.001
0.00113787
0.00113776
0.00113778
0.001
0.001
0.001
0.001
0.001
0.001
0.001
0.001
0.001
0.001
0.001
0.001
0.001
0.001
0.001
0.001
0.001
0.001
0.001
0.001
0.001
0.001
0.001
0.001
0.001
0.001
0.001
0.001
0.001
0.001
0.001
0.001
0.001
0.001
0.001
0.001
0.001
0.001
0.001
0.00101
0.001
0.00105313
0.001
0.00117858
0.001
0.001
0.00112232
0.00104952
0.001
1.68493
1.69619
1.71109
1.66711
1.67412
1.65661
1.66314
1.55329
1.57008
1.58155
1.60696
1.60977
1.64547
1.66682
1.49257
1.52969
1.45787
1.50692
1.50548
0.561408
0.559478
0.46246
0.426663
0.520211
0.457968
0.461958
0.335039
0.358274
0.22426
0.194369
0.195966
0.199525
0.179174
0.001
0.001
0.114819
0.219194
0.00430011
0.001
0.001
0.001
0.001
0.001
0.001
0.001
0.00119591
0.001
0.001
0.001
0.001
0.00111916
0.001
0.001
0.001
0.001
0.001
0.001
0.526084
0.567746
0.544802
0.523358
0.293788
0.290007
0.314298
0.385906
0.494332
0.504529
0.450942
0.505018
0.493371
0.00100999
0.001
0.001
0.001
0.001
0.001
0.00131737
0.00131644
0.001
0.001
0.00102614
0.00100946
0.001
0.001
0.00100978
0.001
0.001
0.0018108
0.001
0.001
0.001
0.001
0.001
0.001
0.001
0.001
0.001
0.001
0.0013541
0.001
0.001
0.001
0.001
0.001
0.001
0.001
0.001
0.001
0.001
0.001
0.001
0.001
0.001
0.001
0.001
0.001
0.001
0.001
0.001
0.001
0.001
0.00172744
0.001
0.001
0.001
0.001
0.001
0.001
0.001
0.001
0.001
0.001
0.001
0.0921498
0.00963519
0.0107585
0.001
0.001
0.001
0.001
0.001
0.00135113
0.001
0.001
0.001
0.001
0.001
0.001
0.001
0.001
0.001
0.001
0.001
0.001
0.001
0.001
0.001
0.001
0.001
0.001
0.001
0.001
0.00624959
0.001
0.001
0.001
0.001
0.00141712
0.00101
0.001
0.001
0.001
0.001
0.00100999
0.001
0.001
1.36484
1.31802
1.32181
1.33991
1.27949
1.35163
1.35775
1.3655
1.37394
1.42295
1.36482
1.45641
1.42816
1.49786
1.2118
1.23648
1.22918
1.25618
1.2323
1.26897
1.27301
1.25195
1.18458
1.1984
1.19758
1.21354
1.21807
1.20938
0.917542
0.838003
0.730134
0.740744
0.653945
0.737267
0.747589
0.803466
0.98633
0.988646
0.984887
0.965115
1.07432
1.12492
1.04342
0.998963
1.12
1.12605
1.13657
1.15126
1.17159
1.16204
1.16882
1.19284
1.19565
1.16959
1.18038
1.18572
1.17233
1.16834
0.299377
0.201412
0.470174
0.486865
0.382387
0.486102
0.486237
0.578521
0.2053
0.20167
0.194631
0.175449
0.0959517
0.205161
1.44216
1.45912
1.48136
1.51943
1.51622
1.53677
1.54764
1.55778
1.5684
1.553
1.55795
1.58056
1.59896
1.61332
1.6134
1.62762
1.64491
1.67089
1.67658
1.67866
1.68665
1.56241
1.55362
1.70747
1.72491
0.001
0.001
0.001
0.001
0.001
0.001
0.001
0.001
0.001
0.00189417
0.001
0.001
0.001
0.001
0.001
0.00108251
0.00107555
0.001
0.001
0.001
0.001
0.00100053
0.0752537
0.0688084
0.001
0.133257
0.139736
0.232391
0.290662
0.262305
0.339417
0.283138
0.469507
0.406025
0.509676
0.50743
0.524596
0.582816
0.712369
0.715393
0.6624
0.687805
0.720182
0.66763
0.777609
0.70176
0.681358
0.716615
0.851586
0.860791
0.923942
0.968261
0.862268
0.947055
1.09303
1.03699
1.10922
1.08078
1.27527
1.24582
1.30628
1.33114
1.39963
1.40777
1.46722
1.43663
1.48196
1.46898
1.4866
1.52
1.49028
1.52284
1.53082
1.48388
1.4685
1.51661
1.51419
1.48225
0.001
0.001
0.00101
0.001
0.001
0.001
0.001
0.001
0.001
0.001
0.001
0.001
0.001
0.001
0.001
0.001
0.00100968
0.00127014
0.001
0.001
0.00126315
0.00101184
0.001
0.001
0.00137722
0.001
0.001
0.001
0.001
0.001
0.00111215
0.001013
0.001
0.001
0.001
0.001
0.001
0.00100967
0.001
0.001
0.001
0.001
0.001
0.001
0.001
0.001
0.00102597
0.0010261
0.00102638
0.001
0.001
0.001
0.001
0.00106633
0.001
0.001
0.00106621
0.001
0.001
0.001
0.00100996
0.00105311
0.001
0.00112238
0.001
0.001
0.001
0.001
0.00101
0.001
0.001
0.001
0.001
0.001
0.001
0.001
0.001
0.001
0.001
0.001
0.001
0.001
0.001
0.001
0.001
0.001
0.001
0.001
0.001
0.001
0.001
0.001
0.001
0.001
0.001
0.001
0.001
0.001
0.001
0.001
0.001
0.001
0.001
0.001
0.001
0.001
0.001
0.001
0.001
0.001
0.001
0.001
0.001
0.001
0.001
0.001
0.001
0.00117858
0.001
0.001
0.001
0.00112384
0.001
0.001
1.72795
1.7163
1.72534
1.70861
1.69439
1.72296
1.70699
1.68343
1.70344
1.56102
1.5852
1.58717
1.59053
1.65681
1.70135
1.72822
1.62101
1.50641
1.53628
1.49037
1.4935
1.49473
1.52847
1.42407
0.330185
0.419161
0.324908
0.365785
0.371529
0.279265
0.275612
0.275545
0.283707
0.278623
0.255671
0.169942
0.148557
0.0639949
0.0648683
0.171393
0.282593
0.001
0.001
0.00133931
0.001
0.001
0.00101
0.001
0.001
0.001
0.00101211
0.001
0.00115031
0.001
0.001
0.001
0.00114846
0.001
0.00111759
0.001
0.001
0.428777
0.36128
0.333929
0.421005
0.290048
0.309621
0.44927
0.379097
0.416988
0.50092
0.490619
0.00114018
0.001
0.001
0.00117056
0.001
0.001
0.00131764
0.00131653
0.001
0.001
0.00100995
0.001
0.001
0.001
0.001
0.001
0.00197763
0.00203433
0.001
0.001
0.00201882
0.001
0.00172781
0.001
0.001
0.001
0.001
0.00284866
0.001
0.00135416
0.00282901
0.001
0.001
0.001
0.001
0.001
0.001
0.001
0.001
0.001
0.001
0.001
0.001
0.00101
0.001
0.001
0.001
0.001
0.001
0.00110869
0.001
0.001
0.001
0.00138556
0.001
0.001
0.001
0.001
0.001
0.001
0.001
0.001
0.001
0.001
0.001
0.001
0.001
0.001
0.001
0.001
0.001
0.001
0.001
0.001
0.001
0.001
0.00128506
0.00128616
0.001
0.001
0.001
0.001
0.001
0.001
0.001
0.001
0.00152326
0.001
0.001
0.001
0.001
0.001
0.001
0.00152325
0.001
0.001
0.001
0.001
0.001
0.001
0.001
0.001
0.001
0.001
0.0845875
0.00967559
0.001
0.00101
0.00109607
0.001
0.00101443
0.001
0.001
0.001
0.001
0.001
0.001
0.001
1.27674
1.2931
1.28459
1.29869
1.28943
1.32283