/*--------------------------------*- C++ -*----------------------------------*\
  =========                 |
  \\      /  F ield         | OpenFOAM: The Open Source CFD Toolbox
   \\    /   O peration     | Website:  https://openfoam.org
    \\  /    A nd           | Version:  8
     \\/     M anipulation  |
\*---------------------------------------------------------------------------*/
FoamFile
{
    version     2.0;
    format      ascii;
    class       volScalarField;
    location    "4560";
    object      nut;
}
// * * * * * * * * * * * * * * * * * * * * * * * * * * * * * * * * * * * * * //

dimensions      [0 2 -1 0 0 0 0];

internalField   nonuniform List<scalar> 
526318
(
0.000323579
0.000315661
0.000254816
0.000271408
0.000233936
0.000175747
0.00033945
0.000332397
0.000210223
0.000441705
0.000232992
0.000518241
0.000484852
0.000206481
0.000327579
0.000201927
0.000397399
0.000169054
0.000152063
0.000160708
0.000155333
0.000167425
0.000263497
0.000246284
0.000528846
0.000307653
0.000236164
0.00022589
0.000347873
0.000208857
0.000127709
0.000107499
6.20198e-05
0.000164965
0.000180968
0.000271249
0.000203387
0.000217706
0.000269644
0.000275528
0.000151422
0.000259488
0.000644775
0.000909087
0.000518069
0.000332491
0.000272021
0.000467502
0.000242904
0.000271754
0.000258779
0.000327105
0.000153566
0.000307185
0.000418304
0.00100419
0.000823951
0.00029576
0.000267988
0.00029404
0.000208772
0.000234664
0.000299542
9.36959e-05
0.000191535
0.000235086
0.000226364
0.000205916
0.00015668
0.000169987
0.000236294
0.000175313
0.000152461
0.000158784
0.000128387
0.000158829
0.000125057
9.19896e-05
7.85075e-05
9.5406e-05
7.55702e-05
8.31325e-05
7.84011e-05
4.90259e-05
0.000123049
4.20018e-05
0.000117138
9.86345e-05
0.000150948
4.0407e-05
0.000113367
7.71198e-05
8.24052e-05
0.000116441
0.000165079
0.000116506
0.000116665
3.47565e-05
6.27457e-05
5.40394e-05
0
0
0
0
1.24398e-06
0
0.000457509
0.000207904
0.000502077
0.000247886
0.000661257
0.000529117
0.000215928
0.000539198
0.00028822
0.000151694
0.000201026
0.000103449
8.37618e-05
6.49742e-05
4.11563e-05
3.10838e-05
0.000102385
4.67057e-05
5.60211e-05
5.13167e-05
5.86201e-05
4.38405e-05
5.95432e-05
7.92509e-05
4.29629e-05
7.04037e-05
5.97298e-05
7.43305e-05
6.2583e-05
5.91032e-05
9.20091e-05
5.43391e-05
6.10287e-05
4.03595e-05
3.68709e-05
8.72327e-05
3.9755e-05
6.29763e-05
4.50144e-05
3.23666e-05
8.98264e-05
4.4384e-05
3.07101e-05
6.77124e-05
8.97572e-05
2.85639e-05
4.64322e-05
9.99613e-05
5.42007e-05
6.68381e-05
6.36312e-05
7.73168e-05
1.75032e-05
3.01347e-05
4.98504e-05
9.36608e-05
3.98178e-05
0.000175723
0.000248755
0.000232781
0.000266852
0.00011321
0.000137659
0.000120723
7.06151e-05
2.54068e-05
6.11824e-05
8.34845e-05
6.49057e-05
5.53166e-05
4.81595e-05
4.41853e-05
4.3578e-05
9.79051e-05
5.55059e-05
8.6031e-05
6.65365e-05
5.35853e-05
7.0144e-05
6.44159e-05
6.19838e-05
6.03998e-05
7.33803e-05
7.93647e-05
8.32651e-05
9.97666e-05
8.01771e-05
6.62345e-05
8.65842e-05
4.24012e-05
8.68627e-05
5.03748e-05
3.35671e-05
1.49271e-05
5.73875e-05
2.1886e-05
5.80967e-05
3.46788e-05
3.7679e-05
2.59965e-05
6.35119e-05
3.8372e-05
1.90325e-05
3.2706e-05
0.000209139
0.000110437
0.000149749
0.000260005
0.000308894
0.000212879
0.0003157
0.000130351
6.77073e-05
0.000827344
0.000350228
0.000545061
0.000209917
0.00021243
4.41046e-05
0.000161273
0.000223695
0.00013855
0.000123872
0
0
0.000164218
0.000447592
0
0
0
0
0
0
0.000249613
0.000277977
0.000350115
0.000338987
0.000294081
0.000224718
0.000173357
0.000195756
0.000159566
0.000144077
0.000104566
6.09968e-05
3.28197e-05
3.74598e-05
2.77744e-05
3.3625e-05
5.49671e-05
4.13421e-05
5.25405e-05
4.81256e-05
6.33693e-05
3.43661e-05
0
0
0
0
0
0
0
0.000129146
0.000354318
5.08854e-05
0.00046643
0.000163591
0.000642363
0.000589788
0.00064556
0.000463074
0.000465154
0.000476509
0.000445185
0.000487084
2.80851e-05
3.76203e-05
4.25459e-05
3.31189e-05
4.12243e-05
2.5794e-05
5.31531e-05
2.96817e-05
5.83542e-05
4.25558e-05
5.05855e-05
4.62155e-05
5.63105e-05
5.49332e-05
3.27204e-05
0.000114806
5.30258e-05
2.74323e-05
1.1256e-05
8.13018e-05
2.01264e-05
8.86869e-05
5.49162e-05
6.53757e-05
8.31789e-05
3.40208e-05
3.37979e-05
1.08783e-05
3.39495e-05
2.86366e-05
2.74191e-05
1.1924e-05
1.18408e-05
8.75664e-06
1.68946e-05
7.62276e-05
5.1789e-05
5.03118e-05
2.2161e-05
0.000124057
0.000140958
0.000136929
0.000106739
7.82031e-05
4.99348e-05
5.45771e-05
1.68512e-05
9.17878e-05
6.64556e-05
1.27326e-05
5.62085e-05
9.77075e-05
4.8658e-05
8.90086e-05
8.63973e-05
7.84913e-06
9.04714e-05
0.000121721
9.7357e-06
6.50417e-05
2.15071e-05
6.09342e-05
6.2188e-05
7.11992e-05
7.74318e-05
8.08886e-05
4.36905e-05
5.74984e-05
4.03581e-05
5.27168e-05
8.14193e-05
3.15701e-05
7.25563e-05
2.90932e-05
5.00611e-05
6.1668e-05
3.82209e-05
3.86736e-05
3.63296e-05
5.99649e-05
5.54256e-05
7.94947e-05
6.24878e-05
8.27025e-05
7.4023e-05
6.86229e-05
3.04847e-05
0.00013676
5.07326e-05
2.41439e-05
6.05316e-05
0.000106467
0.000171152
7.23203e-05
0.000109147
5.15769e-05
0.000116228
0.000137851
0.000113215
0.000222142
0.000186724
0.000253486
0.00014463
9.23602e-05
9.83775e-05
0.00010407
8.56517e-05
0.000213296
0.000268054
0.000344907
0.000151998
0.000166504
0.000329515
0.000200755
0.000221382
0.00020959
0.000146098
0.000200337
0
0
0
0
7.48491e-05
0
0
0
0
0
0
0
0
0
0
0
0.000347175
0.000326751
0.00041526
0.000450656
0.00026025
0.000210345
0.000159412
0.000153796
0.000118443
0.000144864
0.000127351
4.11118e-05
3.51031e-05
9.1447e-05
6.70558e-05
3.54719e-05
7.32474e-05
3.49963e-05
4.35895e-05
6.242e-05
4.97169e-05
1.93365e-05
0
1.35309e-09
2.26453e-09
0
0
0
0
0
3.67868e-10
1.51526e-09
0
0
0
0
2.41902e-09
0
0
0
0
0
0
0
8.82366e-07
0
0.000346061
8.04388e-07
0.000121046
0.000369823
0.000128483
0.000331944
0.000543086
0.000533015
0.000599867
0.000561004
0.000568582
0.000521678
0.000487012
0.000506313
3.68133e-05
2.69685e-05
5.1249e-05
2.71906e-05
2.25149e-05
6.2251e-05
5.74113e-05
3.91059e-05
5.28997e-05
7.85701e-05
2.12634e-05
7.31072e-05
4.84875e-05
3.89828e-05
7.36792e-05
4.05642e-05
4.85363e-05
5.22001e-05
7.48723e-05
7.20121e-05
9.95858e-06
3.19295e-05
2.83002e-05
1.88623e-05
2.92489e-05
6.49243e-06
1.64825e-05
6.40901e-06
2.99487e-05
2.50071e-05
5.53417e-06
0.000189491
8.79238e-05
8.25378e-05
0.000100546
0.000118099
0.000219845
0.000195537
0.000229799
2.86054e-05
5.83918e-05
5.15093e-05
4.55599e-05
0.000132628
3.85223e-05
1.56216e-05
0.000195927
3.57034e-05
6.67364e-05
5.52437e-05
6.22702e-05
3.21817e-05
4.17509e-05
9.95111e-05
5.27461e-05
5.60603e-05
2.49395e-05
5.63572e-05
5.19832e-05
9.76237e-05
0.000178106
0.000130237
7.1051e-05
0.000133144
0.000181997
8.09532e-05
3.43981e-05
4.73311e-05
7.42633e-05
4.6759e-05
6.10681e-05
1.22082e-05
3.16551e-05
3.48454e-05
1.86433e-05
8.66989e-05
6.07576e-05
1.49716e-05
7.89006e-05
3.2618e-05
2.84642e-05
0.000115641
0.000120433
9.78917e-05
0.000135543
8.54873e-05
9.4824e-05
0.000122088
0.000142153
0.000122211
4.44638e-05
2.49102e-05
9.58538e-05
7.06167e-05
3.31644e-05
3.93372e-05
0.000120912
5.38329e-05
0.00010589
5.08466e-05
0.000164678
0.00020816
0.000137044
0.000313917
0.000253284
0.000216278
0.000129735
1.78437e-05
0.000137719
8.19029e-05
9.20553e-05
0.000134362
9.15367e-05
0.000111292
8.54722e-05
8.36616e-05
7.18053e-05
4.30889e-05
0.000199845
0.000128155
0.000301817
0.000195421
0.000189809
0.000211941
0.000244444
0.000165603
5.8597e-05
0
0
0
0
1.3418e-06
1.02448e-05
0
0
0
0
0
0
0
0
0
0
0
0
0
0
0
0
0
0
0
0
1.70469e-10
0
0
2.88477e-10
5.52128e-11
1.20686e-10
0
0
0
0
0
0
0
0
0
0
0
0
0
0
0.000299739
0.000315084
0.000334419
0.000404619
0.000200981
0.000169788
0.000118174
0.000162992
7.3324e-05
0.00017664
0.00012334
3.09376e-05
3.30475e-05
5.90678e-05
6.6349e-05
1.43773e-05
2.92291e-05
0.000106436
3.02357e-05
2.12157e-05
4.54533e-05
4.37442e-05
0
0
0
0
0
0
0
0
0
0
0
0
0
0
0
0
0
0
0
0
0
0
0
0
0
0
6.45733e-09
0
0
0
2.47197e-05
0
3.63996e-05
1.57354e-05
0.000344225
0.000107086
0.000320161
0.000211699
0.000200971
0.000235269
0.000324137
0.000432211
0.000375977
0.000453095
0.000434298
0.00033997
0.000347553
0.000273171
0
0
0
0
0
0
0
0
0
0
0
0
0
0
0
0
0
5.48543e-05
2.75241e-05
9.22616e-06
8.24459e-05
6.14583e-05
2.69305e-05
1.74233e-05
4.83669e-05
1.74003e-05
5.27098e-05
2.35385e-05
1.58278e-05
4.25636e-05
7.72183e-05
2.47975e-05
6.82093e-05
4.23178e-05
4.9597e-05
9.47911e-05
6.84563e-05
1.5889e-05
1.8986e-06
1.3524e-06
1.03929e-05
2.50983e-05
2.44541e-05
1.86451e-05
3.14809e-05
0
0
0
0
0.000248908
0.000263173
0.000286155
0.000169916
0.000289274
0.000258817
0.000131465
0.000232418
0.000201302
0.000262015
0.000172953
0.000100192
0.00010714
0.000198701
0.000116787
9.34181e-05
0.000107183
9.89434e-05
6.97113e-05
8.54001e-05
2.90788e-05
7.9241e-05
7.83044e-05
7.63792e-05
6.07173e-05
7.92562e-05
9.21806e-05
0.000154403
6.65004e-06
3.40713e-05
3.09198e-05
2.06944e-05
5.28115e-05
0.000104985
0.000331106
0.000100943
0.000129242
0.000280451
5.00093e-05
3.67667e-05
6.69193e-05
6.37469e-05
4.70424e-05
3.10943e-06
6.44917e-05
5.43844e-05
4.19545e-05
3.58307e-05
4.97291e-05
9.44304e-05
2.83909e-05
9.128e-05
5.44772e-05
3.99978e-05
0.000180379
0.000149184
0.000115992
0.000116169
7.11771e-05
0.000104457
8.93013e-05
7.07592e-05
9.64356e-06
4.62778e-05
1.55602e-05
0.000109242
1.54002e-05
7.12434e-05
3.58987e-05
9.35545e-05
8.8881e-05
4.26814e-05
0.000143733
0.000163928
0.000167404
0.000202943
0.000232653
0.000226845
0.000178659
0.00027398
0.000325295
0.000292663
0.000288393
0.000303815
0.000320623
0.000314782
0.000299881
0.00030553
0.000292499
0.000308551
0.000238784
0.000274093
0.000311849
0.000239598
0.000246084
0.000205514
0.000282423
0.000226668
0.000229685
0.000233214
0.000309146
0.000293611
0.000212264
0.000267923
0.000225043
0.000309435
0.000260026
0.00029116
0.000223341
0.000326368
0.000256157
0.000286572
0.000256298
0.00021241
0.000298016
0.00022795
0.000307491
0.000185652
0.000244086
0.000116015
0.000202994
0.000130888
5.80613e-05
0.000182947
0.000129326
5.58931e-05
0.000155801
5.96073e-05
0.000107199
6.17485e-05
0
4.10528e-06
5.59742e-05
2.2425e-05
0
8.3597e-05
5.95622e-05
6.63006e-05
6.45784e-05
3.498e-05
1.9321e-05
1.76747e-05
1.05183e-05
2.88449e-05
0
3.21932e-09
0
0
0
0
0
0
0
0
0
4.74672e-09
0
0
0
0
0
0
0
0
4.57596e-09
0
0
0
0
0
0
0
0
0
0
0
0
0
0
2.56449e-09
0
0
0
2.32665e-09
0
0
4.55238e-09
0
0
7.33641e-09
5.70591e-09
0
8.00043e-09
0
4.86579e-09
5.88103e-09
0
0
2.67683e-09
0
0
0
0
0
0
0
0
0
0
0
0
0
0
3.82489e-09
0
0
0.000227497
0.000232723
0.000233318
0.000158818
0.00010503
0.000169163
0.00018368
7.59802e-05
0.000120697
3.04542e-05
3.82875e-05
4.68015e-05
7.62122e-05
2.45434e-05
5.65415e-05
6.5795e-05
4.86431e-05
9.09874e-05
1.65406e-05
5.23956e-05
1.64795e-05
3.51301e-05
0
0
8.64914e-10
3.19271e-09
0
0
0
0
0
0
0
0
0
0
0
0
0
0
0
0
0
0
4.8472e-09
3.57471e-09
0
0
0
3.12121e-05
0.000123503
2.90333e-05
0.000154768
0.000217597
0.000224808
0.000266629
0.000240171
8.26499e-05
0.000196988
7.51502e-05
7.91431e-05
0.000225252
0.000152938
8.55598e-05
4.84485e-05
0.000111154
1.36511e-09
0
0
0
0
3.07256e-11
0
0
1.03321e-10
0
0
0
0
0
0
0
0
0
0
0
0
0
0
0
3.38793e-07
0
8.00974e-05
2.37477e-05
2.02276e-05
2.93912e-05
4.32655e-05
4.13273e-05
4.14404e-06
2.61058e-05
1.70211e-05
1.54428e-05
2.09483e-05
1.36925e-05
9.38295e-06
4.26346e-06
0
2.44757e-05
6.64687e-05
2.14521e-05
6.47916e-05
1.75578e-05
0
0
0
0
0
0
0
0
0
0
8.62839e-10
0
0.000258706
0.000227313
0.000340695
0.000309653
0.000235662
0.000169526
0.000252482
0.000228393
0.000228187
0.000265531
0.000268125
0.000230895
0.000214392
0.000114628
0.000202574
0.000191973
0.000214028
0.000196518
0.000230409
0.000293795
0.000317605
0.000284132
0.000292839
0.000262682
0.000104298
0.000124354
0.000110732
0.000182015
0.000220216
0.000243251
0.000162122
0.000171276
0.000107355
0.000183955
0.000155448
0.000160912
0.000152013
0.000115879
0.00010543
8.98181e-05
0
4.68803e-05
2.06666e-05
0.000151849
2.42394e-05
0.000116015
7.63051e-05
6.53127e-05
2.79775e-05
5.86796e-05
1.1694e-05
6.80208e-06
1.93321e-05
3.71275e-05
0
0
0
0
4.82688e-05
5.99045e-05
0
2.8279e-05
3.16491e-05
3.10929e-05
1.00749e-05
8.1252e-05
7.17985e-05
9.86718e-05
5.59107e-05
7.46215e-05
0.000104256
9.10759e-05
0.000168381
0.000145375
0.000141117
9.31612e-05
4.73194e-05
0.000100926
6.23375e-05
8.588e-05
2.73627e-05
1.82656e-05
5.09462e-05
4.29984e-05
5.76439e-05
4.49099e-05
7.15169e-05
0.000125561
0.000118866
0.000199117
0.000167304
0.000293338
0.000181058
6.62492e-05
0.000286215
0.000286948
0.000281536
0.000168752
0.000240679
0.000351223
0.000280764
0.000277883
0.000259218
0.00035251
0.000269644
0.000212148
0.00024851
0.000327809
0.000240159
0.000297038
0.000234726
0.000246325
0.000250352
0.000224867
0.000289405
0.000242736
0.000193715
0.000295237
0.000176985
0.00027555
0.000238339
0.000257844
5.22835e-05
0.000149018
7.97717e-05
0.000116101
2.1409e-05
4.13617e-05
4.90578e-05
0.000102018
5.32752e-05
5.38562e-05
6.00189e-05
4.49991e-05
2.13453e-05
9.7314e-05
0.000168613
4.69016e-05
6.32048e-05
0.000106634
0.000315937
0.000318881
6.83658e-05
7.35096e-06
0
0
3.73644e-05
1.09438e-05
0
0
2.62063e-05
0
2.42077e-05
1.65563e-05
1.52206e-05
1.48012e-05
1.41657e-05
2.05178e-05
0
0
0
0
5.9779e-09
2.20633e-09
0
0
0
6.40322e-09
0
0
0
0
0
0
0
5.56943e-09
0
0
0
0
0
0
0
0
8.23949e-11
0
0
0
1.56355e-09
0
0
0
0
0
0
0
0
0
0
0
0
0
0
0
0
4.71838e-09
0
1.56307e-09
0
0
0
0
0
0
0
0
0
0
0.000114514
0.000101704
5.54705e-05
4.01278e-05
0.000131748
0.000134431
0.000107116
9.84694e-05
9.84469e-05
3.53431e-05
3.06374e-05
7.93477e-05
3.95181e-05
5.56277e-05
5.81196e-05
5.52607e-05
3.55173e-05
7.15476e-05
1.70372e-05
6.49518e-05
7.02474e-05
3.79733e-05
1.24503e-10
0
4.92291e-10
0
0
0
0
0
0
0
0
0
0
0
0
0
0
0
0
0
0
0
0
0
0
0
3.26227e-07
2.65154e-05
3.90098e-05
6.22678e-05
0.000100077
0.000180176
0.000242581
0.000212093
0.000160047
0.000265516
2.80915e-05
0.000126071
6.30123e-05
9.26055e-05
5.14824e-05
4.21678e-05
4.45086e-05
3.6349e-05
0
0
0
0
0
0
0
0
0
0
0
0
0
0
0
0
0
0
0
2.08535e-08
0
7.77332e-08
1.35722e-07
0
0
0
0
0
0
0
0
4.24408e-05
3.57113e-05
3.97256e-05
3.62969e-05
2.94784e-05
3.88247e-05
4.08296e-05
4.14862e-05
5.78319e-05
2.68694e-05
2.51127e-05
0
0
0
0
1.72992e-07
3.24273e-08
0
5.86691e-06
2.56024e-05
1.39981e-05
2.08208e-05
2.095e-05
0
0
0
0
0
1.70243e-09
0
0
0
0
0
0
2.26622e-05
0.000106914
0.000138158
0.000125617
0.000120482
0.000104702
0.000139501
0.000171578
0.000163385
0.000161081
0.000252004
0.000126453
5.56553e-05
0.000104471
0.000174325
0.000140214
1.24059e-05
0.000105607
0.000176982
0.000143485
4.83117e-05
5.78125e-05
0.00013578
5.48066e-05
0.000197887
3.24306e-05
0.000159363
0.000139529
6.04121e-05
0.000127704
0.000130217
8.72359e-05
8.0493e-05
0.000136149
2.9652e-05
0.000266284
0.000220711
0.000369321
0.000306477
0.000100787
0.000221306
0.000302765
0.000312983
0.000149265
0.000266538
0.000243275
0.000256928
6.35148e-05
0.000156799
6.01879e-05
0.000206393
0.00013413
0.000218227
0.000172086
0.000324723
0.000263036
0.000333333
0.000287069
0.000312385
0.000163157
0.000168021
0.000241721
0.000195059
0.000152919
0.000193646
0.00022348
9.77757e-05
0.000106501
0.000146261
0.000150019
0.000132949
0.00014643
2.45202e-05
9.36456e-06
7.15186e-05
4.66204e-05
8.25347e-05
4.81485e-05
5.63638e-05
7.0095e-05
0.00015123
0.0001033
0.000119877
9.5581e-05
0.000129883
0.0001566
0.00016221
0.000178477
0.000161722
0.000149325
0.000241336
0.000245106
3.17002e-06
0
1.34352e-08
2.91171e-05
1.63765e-05
6.45707e-05
5.10912e-05
4.51316e-05
2.9289e-06
9.08783e-06
1.00098e-05
3.95489e-06
0
0
0
0
0
0
2.65545e-05
3.60249e-06
0
4.99617e-05
6.91873e-05
4.74773e-05
2.33563e-05
0.000108757
1.40163e-05
7.4714e-05
0.000123581
8.38918e-05
0.000124123
0.000114752
0.000130546
6.86258e-05
4.7182e-05
9.22281e-05
8.51266e-05
5.69301e-05
5.41126e-05
0.000126593
6.83103e-05
8.0926e-05
5.73685e-05
8.63995e-05
0.000155472
9.36833e-05
8.03263e-05
2.50923e-05
6.70249e-05
0.000136242
0.000203662
0.000215157
9.23718e-05
0.00012659
0.000232723
0.000172232
0.000206636
0.000270282
0.000187475
0.000253336
0.000227874
0.000361054
0.000286999
0.000262047
0.000305043
0.000359346
0.000280905
0.000247323
0.000228277
0.000172233
0.000202119
0.000284921
0.000228522
0.00020062
0.00018296
0.000176084
0.000276911
0.000206378
8.96011e-05
0.000445465
0.00023071
0.000397302
0.000143068
0.000140211
0.000185203
3.24241e-05
1.83522e-05
4.60874e-05
0
4.30458e-06
1.64814e-07
4.88472e-07
0.000102234
9.28967e-06
0
6.04982e-07
0
0
0
1.75295e-08
0
0
0
0
9.79623e-07
0
0
0
0
0
0
0
0
1.88646e-09
1.99997e-09
9.21812e-10
0
6.91564e-10
0
0
0
0
0
0
0
0
0
6.74596e-09
0
0
0
0
0
0
0
0
2.77384e-07
0
0
0
0
0
0
0
0
0
0
0
0
1.38926e-09
0
0
0
0
0
0
0
0
0
0
0
0
0
0
0
0
0
0
0
0
0
0
0
0
5.67181e-10
0
0
0
0
1.85013e-09
0.000201904
0.000125245
0.000219008
0.000171941
0.000194201
0.000160224
0.000108998
3.91907e-05
6.13596e-05
4.03468e-05
0.000114389
5.81831e-05
7.25363e-05
9.79341e-05
9.03899e-05
3.43137e-05
1.94837e-05
4.99548e-05
5.943e-05
7.90058e-05
4.72366e-06
5.66938e-05
5.97766e-05
5.96542e-05
2.33478e-05
0
0
0
0
0
0
0
0
0
0
0
0
0
0
2.16302e-05
1.40214e-05
0
0
0
0
0
0
0
0
0
0
0
6.81582e-05
6.59863e-05
0.00015163
0.000122298
3.5637e-05
4.8562e-05
1.11895e-05
0.000236683
0.000190972
0.000173964
0.000196733
0.000160834
6.59959e-05
2.09125e-05
0.000127274
2.26459e-05
0
6.52316e-10
0
0
0
0
0
0
0
0
0
0
0
0
0
0
0
1.12372e-08
0
0
0
0
0
0
4.88117e-09
0
0
0
0
0
1.17078e-09
0
0
0
0
5.88528e-09
3.96008e-09
1.76194e-05
2.20893e-05
5.40678e-05
3.38523e-05
2.39108e-05
3.26025e-05
1.64444e-05
0
1.61171e-05
0
0
1.67769e-05
3.34849e-05
0
0
0
0
0
0
0
0
1.88162e-05
0
2.06466e-05
8.59305e-06
0
0
0
0
0
0
0
0
0
0
0
0
7.70767e-05
3.26844e-05
0.000133752
0.000140524
5.87399e-05
0.000190438
0.000304283
0.000305787
5.27932e-05
5.25846e-05
0.000119483
0.000111637
0.000123361
0.000152673
0.000144833
0.000212186
0.000145194
1.85726e-05
7.69777e-05
9.4505e-05
5.15573e-05
8.02288e-05
0.000279315
0.000299552
0.000357302
0.000335268
0.000212197
0.000210748
0.000375594
0.000297714
0.000136717
0.000294596
0.000237456
0.000319957
0.000192661
7.40841e-05
0.000270804
0.000221551
0.000109027
0.000144404
0.000160055
0.000106221
0.000229429
0.000105949
0.000315045
0.000362737
0.000261973
0.000291398
0.000355666
0.000133764
0.000152547
0.000297981
0.000156967
0.000104141
0.000131787
0.000200036
0.000156142
9.06863e-05
0.00013267
0.000214397
0.000201793
0.000129167
7.05603e-05
1.91368e-05
7.0724e-05
0.00014123
0.00015965
0.000106087
9.18262e-05
8.84205e-05
9.78015e-05
9.4184e-05
0.00013998
0.000156748
0.000139351
0.000102429
0.000142797
6.24985e-05
0.000100817
0.000194671
0.000204277
6.74977e-05
0.00014921
0.000264597
9.53407e-05
0.000118867
0.000134121
0.000274974
8.24614e-05
0.000226572
5.87528e-08
4.13951e-08
4.22104e-08
0
3.31452e-05
3.15982e-05
0
0
0
0
0
0
0
3.18796e-09
0
1.46295e-09
0
0
0
0
3.22514e-09
4.9851e-05
9.56636e-05
9.37653e-05
2.62903e-05
4.69958e-05
0.000114591
0.000124579
0.000108435
3.9209e-05
4.48136e-05
6.70793e-05
7.59251e-05
4.46829e-05
4.0188e-05
1.78795e-05
0.000142897
0.000146315
0.000210232
0.000224437
7.17377e-05
4.83639e-05
0.00013513
0.000108321
0.00011289
0.000163977
0.000186115
0.000248641
9.00197e-05
0.000129026
9.93735e-05
0.000205145
0.000128932
0.000203061
0.000187186
0.000281249
0.000275874
0.000257439
0.00022357
0.000372493
0.000409781
0.000374734
0.000373325
0.000352929
0.000260179
0.00019286
0.000229875
0.000256869
0.00018591
0.000132941
0.000254621
0.000178132
0.000149375
0.000143579
0.00014682
7.23223e-05
0.000381342
0.000543035
0.000393374
0.000388568
0.000214476
0.000301186
0
0
0
0
0
4.01071e-09
0
0
3.16008e-09
0
0
0
0
0
0
0
0
0
0
0
0
0
0
0
0
0
0
0
3.38266e-09
1.0915e-09
0
0
0
0
0
0
0
0
0
0
0
0
1.33807e-07
0
0
0
0
0
0
0
0
2.09811e-07
0
0
0
1.55924e-09
1.37672e-09
0
0
0
0
0
0
0
2.32588e-09
2.61023e-09
0
0
4.79259e-09
3.60967e-09
0
0
0
0
3.47491e-09
0
5.40126e-09
0
0
0
0
1.27096e-08
1.44584e-08
5.19624e-09
0
0
0
0
0
0
0
0
0
0
1.64193e-09
0
0
0
0
0
0
0
0
0.000161593
0.000190875
0.000170754
0.000120865
0.000257418
0.000218533
0.000157292
0.000213362
0.00010177
8.30992e-05
6.73939e-05
4.81856e-05
1.43553e-05
8.99044e-05
0.000100404
7.14726e-05
8.13147e-05
8.7479e-05
2.11529e-05
8.01183e-05
3.58871e-05
3.35627e-05
7.00374e-05
3.56466e-05
3.15518e-05
6.98773e-06
5.9366e-05
0
0
0
0
0
0
0
9.17536e-06
3.38399e-05
2.62792e-05
0
0
0
0
0
0
0
0
0
7.9119e-11
0
0
0
0
0
3.49149e-05
6.02925e-05
2.99566e-05
0.00011627
8.88456e-05
0.000187216
0.000152214
4.61742e-05
8.82166e-05
0.000206204
0.000150777
8.64699e-05
0.000178035
0.000132801
4.23104e-05
1.09217e-05
0
0
6.08793e-10
2.75053e-09
0
0
2.72505e-09
5.33849e-10
0
0
0
1.21048e-09
0
0
0
8.81978e-09
5.61534e-09
8.35532e-09
0
0
0
1.13803e-08
0
0
0
8.05334e-10
0
0
0
0
0
0
0
0
0
0
0
0
0
0
0
0
0
0
0
4.12623e-05
4.62176e-05
1.54838e-05
4.16781e-05
9.63158e-06
1.24057e-05
1.73151e-05
0
0
0
0
1.09425e-09
1.35909e-09
0
0
0
0
0
0
0
0
0
0
5.53787e-06
0
3.70676e-05
5.80036e-07
0
0
0
2.68067e-09
0
0
0
0
0
0
0
2.42387e-09
0.000229321
5.74772e-05
0.000165811
0.000129438
0.000322008
0.000305696
0.000433094
0.000319721
0.000157836
0.000208031
0.000427373
0.000307095
0.00039115
0.000233257
0.000154693
9.72514e-05
5.08168e-05
0.000145293
0.000109955
0.00018221
0.000193222
0.000120032
0.000143437
0.000151569
6.12407e-05
0.000103288
6.23036e-05
4.56822e-05
0.00028576
0.00037034
0.000295282
0.000268599
0.000233321
0.000238287
0.000337976
0.000283231
0.000232257
0.000183472
0.000271681
0.000293477
7.71662e-05
0.000113557
9.18749e-05
0.000101985
6.60694e-05
9.23734e-05
0.00017189
8.87073e-05
9.49044e-05
0.000281725
0.000196607
0.000305076
0.00017856
0.000204948
7.02806e-05
0.000142416
6.38977e-05
0.000169043
0.000175718
4.6311e-05
0.000179336
0.000226623
0.000204206
5.94396e-05
0.000180087
0.000177162
0.00012898
0.000138793
8.96889e-05
2.70424e-05
0.000571812
0.000321166
0.000153986
0.000152328
6.42164e-05
0.000220417
7.41607e-05
0.000144387
0.000105153
0.000139089
0.000134773
0.000144123
0.000122654
0.000202863
0.000100395
0.000238957
0.00010458
9.55838e-05
0.000242269
4.64386e-05
0.000307891
0.000127321
0.000105329
0.000282318
0.000166477
0
0
0
0
0
0
0
0
0
0
0
0
0
0
0
0
2.86806e-09
0
0
0
0
0
6.96231e-05
3.82804e-06
3.25974e-05
4.67165e-05
1.76918e-05
9.70444e-05
2.97658e-05
5.10491e-05
0.000112034
0.000103748
8.14243e-05
8.1206e-05
7.99716e-05
0.000135734
0.000138019
7.16501e-05
0.000276588
0.000243366
0.000259118
0.000344138
0.000184015
0.000132593
8.27713e-05
0.000171137
0.000237736
9.0093e-05
0.000207728
0.000258365
0.000236484
0.000207926
0.000310659
0.000180427
0.000305461
0.000270097
0.00039459
0.000303062
0.000433094
0.000349036
0.000406629
0.000289915
0.000302765
0.000218305
0.000292416
0.000151942
0.00022121
0.00015291
0.00010178
0.000196746
0.000121588
0.000102591
8.54482e-05
0.000179541
0.000175429
0.000331118
0.000556918
0.000248625
0.000171432
0
0
1.10417e-06
7.99592e-11
0
0
0
0
0
0
7.72141e-09
4.62721e-09
0
2.30307e-09
2.6085e-09
3.29415e-09
3.44858e-09
0
6.51431e-09
3.32697e-07
0
0
0
1.674e-09
0
2.61813e-09
5.06987e-09
0
0
0
0
0
0
0
5.32983e-09
8.72851e-10
0
0
0
0
0
0
2.48707e-07
0
0
0
0
0
0
0
0
0
0
0
0
0
0
0
0
0
0
0
0
0
0
0
0
0
0
0
0
0
0
0
0
0
0
0
0
0
0
0
1.55973e-08
0
0
0
0
0
0
0
0
0
0
0
0
0
0
0
0
0
0
0
0
0
0
0
0
0
0
0
0
0
1.96692e-10
0
0
0
0
0.000161809
0.000238556
0.000126039
0.000265927
0.000129454
0.000200535
0.000297445
0.0001192
0.000271781
0.000204151
0.000214177
0.00020496
0.000214674
0.000314703
0.000342011
3.88034e-05
5.1631e-05
0.000125815
0.000113653
8.56495e-05
9.27756e-05
5.01088e-05
9.34051e-05
3.32519e-05
8.56412e-05
3.35901e-05
5.05231e-05
1.79278e-05
2.8412e-05
0
0
0
2.37856e-09
2.85698e-06
7.06519e-05
2.3645e-05
0
0
0
0
4.72429e-08
0
0
0
0
0
0
4.3792e-10
0
1.67747e-10
0
0
0
8.33844e-05
7.22842e-05
0.00011904
8.4657e-05
9.45906e-05
0.000145661
5.55837e-05
0.000106362
0.000133298
7.8816e-05
3.23506e-05
5.32371e-05
0.00015898
7.69257e-05
6.73382e-05
4.73582e-05
0
1.01088e-09
0
0
0
0
0
3.55776e-10
0
0
3.41774e-10
0
0
0
0
0
0
0
0
3.65648e-11
0
0
0
0
0
0
0
0
0
0
0
0
0
0
0
0
0
0
1.03293e-09
0
0
0
0
0
0
0
0
0
0
0
0
0
0
0
0
0
0
3.96664e-05
3.30123e-05
3.3006e-05
3.24559e-06
5.6762e-06
0
0
9.23711e-09
0
0
1.00822e-08
0
0
0
0
0
0
0
0
0
0
0
2.48015e-05
0
0
0
0
0
0
0
0
0
0
5.78154e-10
2.45873e-09
0
0
0
0
0
0
0.000184494
4.28644e-05
0.000261086
0.000243614
0.000648998
0.000326719
0.000661863
0.000229021
0.000189432
0.000416824
0.00019623
0.000233866
0.000134207
9.01648e-05
0.000148846
8.89269e-05
8.64781e-05
0.000140063
0.000127377
0.000315277
0.000129347
0.000127987
0.000148966
7.5503e-05
0.000246887
0.000144829
5.73024e-05
0.000311347
0.00029649
0.000233889
0.000296289
0.000288581
0.0002372
0.000331079
0.000296106
0.000143734
0.000165629
0.000229297
0.000236973
2.36481e-05
8.65189e-05
1.81736e-05
7.67319e-05
7.28999e-05
4.04465e-05
4.82154e-05
8.82437e-05
5.90112e-05
0.000305459
0.000297846
0.000353973
0.000379859
0.000244491
0.000179615
7.22956e-05
0.000143737
0.000205788
2.00606e-05
0.000176507
0.000138994
0.000232564
9.77747e-05
0.000209504
0.000180417
0.00022052
9.74144e-05
5.66191e-05
0.000189435
3.0669e-05
0
1.09297e-06
9.02021e-05
0.000500085
0.000146183
0.000243037
3.90803e-05
0.000290415
5.38066e-05
5.75744e-05
0.000120438
8.89941e-05
0.000179051
0.000154492
0.000172376
0.000115859
0.000164513
0.000179538
0.000167853
0.000216039
6.79425e-05
0.000236796
6.7698e-05
0.000262897
6.24814e-05
0.000200743
0.00016704
9.14218e-05
0.000259156
0
0
0
0
0
2.01508e-09
3.97409e-09
0
0
0
0
4.22402e-09
2.05984e-09
0
0
0
0
0
0
0
0
0
2.96105e-05
3.29728e-05
2.10545e-05
2.99303e-05
9.54577e-05
2.42844e-05
4.85152e-05
0.00014134
9.31417e-05
2.66487e-05
6.47526e-05
0.000145438
0.000137142
0.000150907
0.000248644
0.000193727
4.69994e-05
0.000159665
0.000128616
0.000182723
7.00442e-05
0.000109681
0.000170885
0.000225563
0.000211925
0.000127231
0.000286307
0.000238767
0.000265585
0.000304605
0.000283138
0.000321773
0.000359974
0.000363727
0.000451744
0.000435723
0.000446263
0.000357962
0.00038314
0.000295932
0.000297289
0.00023852
0.000192221
0.000331274
0.000117814
0.000251493
0.000206608
3.1652e-05
0.000113052
0.00011886
9.88714e-05
6.79023e-05
0.000319645
0.000105803
0.000118528
0.000152599
0
0
3.31459e-09
0
0
0
0
0
0
3.08749e-09
0
0
0
5.00872e-09
4.35449e-09
5.22884e-09
3.9416e-09
4.18678e-09
2.03628e-08
0
0
0
0
0
0
0
0
0
0
0
0
0
0
0
0
2.50492e-10
0
0
0
1.39424e-08
0
0
0
0
0
0
0
0
0
0
0
0
0
0
0
0
0
0
2.26431e-08
0
0
0
0
0
8.19104e-10
2.20375e-10
1.20177e-09
0
0
0
0
0
0
0
0
0
0
0
0
0
0
0
0
0
0
0
0
0
0
0
0
0
0
0
0
0
0
0
0
0
0
0
0
0
0
0
0
0
2.44108e-09
0
3.01703e-10
0
0
2.61148e-10
3.65274e-09
0
0.00012591
0.000112353
0.000286489
0.000151029
0.000215595
6.64384e-05
0.000155348
6.47923e-05
0.000182416
0.000220855
0.000131964
0.000130058
0.000136132
0.000140797
0.000474695
0.000182916
0.000207251
0.000201906
0.000174881
0.000123856
5.37871e-05
4.96075e-05
0.000128785
0.000100462
7.00634e-05
8.0492e-05
8.35419e-05
8.29539e-05
5.65112e-05
6.02341e-05
3.96341e-05
4.77994e-05
3.69037e-05
0
0
6.9638e-05
9.33744e-05
1.54319e-06
0
0
0
0
0
0
0
8.02112e-09
0
0
0
0
4.72714e-09
0
0
0
0
0
0
0.000138313
0.000119229
0.000134554
8.57359e-05
8.28356e-05
9.93005e-05
8.51606e-05
0.000129277
7.98607e-05
5.47513e-05
1.80569e-05
7.8725e-05
5.34842e-05
0
0
0
0
0
0
6.50611e-09
2.88205e-09
0
0
1.28323e-09
0
0
0
0
0
0
1.89702e-07
0
0
0
0
0
0
0
0
0
0
9.88429e-09
0
0
0
0
0
0
0
0
0
0
0
0
0
0
0
0
0
0
0
0
0
0
7.34039e-09
0
0
0
0
0
0
0
0
0
0
0
1.37631e-05
3.80291e-06
4.30084e-06
0
0
0
0
0
1.76741e-08
0
0
0
0
0
0
0
0
0
0
0
0
0
0
0
0
0
0
0
0
2.75964e-06
0
0
0
0
1.93156e-09
0
0
0
0
0
0
0
0
0.00113684
0.00013291
0.000303073
8.87817e-05
0.000834134
0.000433565
0.000156657
0.000112257
0.000204989
8.56734e-05
0.000176689
0.000105224
0.000127745
8.00058e-05
2.61711e-05
6.11159e-05
9.58016e-05
0.000142524
8.64336e-05
5.06355e-05
0.00016587
0.000146684
4.36892e-05
0.000133003
0.000115165
0.000104802
8.26436e-05
4.91061e-05
0.000344521
0.000346275
0.000285347
0.000357349
0.000273771
0.000344328
0.000319155
0.000379792
0.00014378
0.000138202
0.000245245
0.000365688
6.17525e-05
8.5208e-05
0.000125568
8.80612e-05
0.000108506
7.88622e-05
0.000100318
0.00010946
0.000188556
0.000234496
0.000197179
0.000238834
7.40436e-05
0.000116871
0.000158803
0.000103753
0.000182894
0.000197839
7.47778e-05
1.99829e-05
0.000159698
0.00028608
0.000127605
0.000147332
0.000282765
0.000309209
0.00012492
4.60455e-05
0.000100871
0.000136325
5.20667e-05
0.000115197
9.08936e-05
0.000124835
0.000175177
2.99824e-05
0.000101647
9.13058e-05
0.000205585
0.000102825
0.000227813
0.000108272
0.000182871
0.000153795
0.000173411
0.000166484
0.000162433
0.000160583
8.3276e-05
0.00024316
0.000135278
0.000249025
0.000120909
0.000180029
0.000214647
0.000170782
9.2658e-05
0
0
0
0
0
0
0
0
0
4.80058e-09
0
0
0
0
0
6.89847e-09
8.68401e-09
0
0
0
0
0
5.72427e-05
1.93703e-05
0
7.34506e-05
3.34787e-06
3.45884e-05
7.51823e-05
0.000119777
0.000107462
0.000179021
0.000182419
0.000101729
0.000229578
0.000177636
0.000220411
4.69169e-05
0.000129427
0.000113203
0.000203461
0.000165056
7.18196e-05
0.000129671
0.000224491
0.000229662
0.000215938
0.000131412
0.000276903
0.000279553
0.000359334
0.0004241
0.000319725
0.000371465
0.000442348
0.000438488
0.000413085
0.000412844
0.000323111
0.000376924
0.000304548
0.000360797
0.000348607
0.000209475
0.000359641
0.000100118
0.000257098
5.3151e-05
0.000132441
0.00020241
0.000218478
9.6885e-05
3.39357e-05
0.000196526
0.000228463
8.892e-05
0.000106832
0.000148453
0
0
0
0
0
0
0
0
0
0
0
0
0
0
0
0
0
2.45103e-08
0
0
2.19305e-08
1.76841e-08
0
0
2.79949e-08
0
0
0
0
0
8.35951e-11
1.62795e-08
0
0
0
0
0
0
0
0
0
0
0
0
0
0
1.9387e-09
2.89001e-09
2.69371e-09
0
0
0
0
1.04937e-09
0
0
1.31516e-09
0
0
0
0
9.91777e-10
0
5.43601e-09
0
0
0
0
0
0
0
0
0
0
0
0
0
0
0
0
0
0
0
0
0
0
0
0
0
0
0
0
0
0
0
0
0
0
0
0
0
0
0
0
0
0
0
0
0
0
0
0
0
0
0
0
0
1.00168e-09
0
0
0
7.83236e-09
0
0
0.000245147
0.000147405
0.000235956
9.90146e-05
0.000175532
7.3631e-05
0.000239782
0.000121921
0.000180828
0.000175412
0.000158081
0.000153423
0.00011591
0.00016597
0.000252222
0.000272381
0.000140212
0.000122653
0.000230154
7.01537e-05
0.000285609
0.000194588
8.32373e-05
3.88667e-05
9.79609e-05
7.3668e-05
7.42069e-05
5.13563e-05
3.78976e-05
4.59454e-05
4.44504e-05
5.40259e-05