/*--------------------------------*- C++ -*----------------------------------*\
  =========                 |
  \\      /  F ield         | OpenFOAM: The Open Source CFD Toolbox
   \\    /   O peration     | Website:  https://openfoam.org
    \\  /    A nd           | Version:  8
     \\/     M anipulation  |
\*---------------------------------------------------------------------------*/
FoamFile
{
    version     2.0;
    format      ascii;
    class       volScalarField;
    location    "21060";
    object      H;
}
// * * * * * * * * * * * * * * * * * * * * * * * * * * * * * * * * * * * * * //

dimensions      [0 1 0 0 0 0 0];

internalField   nonuniform List<scalar> 
526318
(
1.79341
1.75992
1.83421
1.75848
1.83992
1.75101
1.80964
1.69664
1.768
1.6456
1.62133
1.76465
1.69201
1.74938
1.70107
1.73173
1.69078
1.89371
1.81052
1.85016
1.8505
1.80561
1.55014
1.79753
1.68484
1.55594
1.81921
1.82204
1.81383
1.84043
1.84598
1.92089
1.89658
1.77619
1.76911
1.71946
1.72584
1.81097
1.76207
1.74249
1.78158
1.73449
1.40488
1.46049
1.36774
1.41404
1.38981
1.52612
1.67709
1.6066
1.67631
1.67855
1.63017
1.60599
1.08772
1.33778
1.32724
1.13186
1.84652
1.87024
1.89058
1.84661
1.77483
1.91322
1.9038
1.85095
1.83751
1.84606
1.74537
1.74523
1.85255
1.6387
1.68975
1.58944
1.53474
1.53568
1.62353
1.62767
1.53734
1.58681
1.65941
1.65075
1.6073
1.57706
1.59457
1.66871
1.67153
1.64693
1.5948
1.65631
1.57226
1.51706
1.51779
1.45055
1.43906
1.44288
1.44225
1.44692
1.43948
1.43467
0.877141
0.811609
0.90205
0.93785
1.00256
0.782313
1.34756
1.16027
1.48454
1.43899
1.48038
1.60585
1.81019
1.71181
1.82876
1.83177
1.89778
1.86384
1.91716
1.44017
1.4327
1.44014
1.43732
1.39303
1.44245
1.34696
1.39514
1.30141
1.34679
1.3022
1.29829
1.28691
1.26509
1.25443
1.28299
1.22221
1.27658
1.2294
1.24901
1.18952
1.1994
1.22004
1.24558
1.23198
1.19218
1.18988
1.20928
1.19216
1.19109
1.2002
1.20949
1.20646
1.20979
1.1968
1.20458
1.16546
1.19696
1.21903
1.15677
1.13302
1.19021
1.15289
1.21352
1.70331
1.81511
1.73981
1.72801
1.53483
1.5976
1.53425
1.53225
1.53041
1.53395
1.5488
1.53643
1.47166
1.42974
1.40364
1.34393
1.40631
1.44611
1.44531
1.44161
1.33301
1.3905
1.26984
1.28143
1.28984
1.28139
1.28389
1.28212
1.27496
1.2731
1.26883
1.26236
1.24322
1.26351
1.25583
1.23305
1.2092
1.23278
1.20687
1.21106
1.23322
1.22572
1.22084
1.19101
1.2033
1.24123
1.23334
1.68386
1.72084
1.73024
1.68403
1.70029
1.68014
1.6829
1.57523
1.58512
1.34369
1.33555
1.32998
1.43925
1.6093
1.45766
1.50197
1.48901
1.45268
1.42007
0.926364
0.73014
1.07583
1.26554
0.522162
0.36749
0.662569
0.765989
0.731323
0.728305
1.89319
1.88423
1.92966
1.91281
1.89274
1.88364
1.79258
1.87432
1.7212
1.66413
1.66865
1.67002
1.66552
1.66791
1.65383
1.65864
1.5687
1.62913
1.45692
1.50858
1.42855
1.45387
0.255542
0.171127
0.636312
0.41558
0.915818
0.855999
0.914405
1.06769
1.44783
1.26076
1.48142
1.4965
1.60998
1.71961
1.83835
1.83205
1.8928
1.8489
1.91663
1.94867
1.42076
1.41229
1.37844
1.34696
1.24659
1.28187
1.20914
1.21747
1.209
1.20077
1.1885
1.19773
1.12214
1.14792
1.18448
1.21887
1.27649
1.24122
1.20552
1.1992
1.13722
1.12272
1.17596
1.2324
1.15183
1.19315
1.19289
1.15815
1.15349
1.13015
1.12795
1.08466
1.08254
1.08836
1.07562
1.20163
1.23802
1.1989
1.24145
1.5978
1.55118
1.45476
1.54638
1.4666
1.51261
1.52089
1.52339
1.52678
1.53333
1.44085
1.35659
1.28458
1.26861
1.34081
1.28634
1.26757
1.38615
1.27464
1.32162
1.26547
1.26001
1.2714
1.2648
1.27804
1.27127
1.26896
1.27567
1.27401
1.26828
1.28247
1.27169
1.28835
1.28073
1.28329
1.26537
1.27568
1.26336
1.23439
1.23706
1.26398
1.28813
1.28645
1.26392
1.2417
1.27221
1.31304
1.31217
1.32239
1.28406
1.31722
1.3349
1.37261
1.32326
1.33
1.35356
1.38801
1.49443
1.59246
1.51557
1.57663
1.62213
1.68219
1.598
1.45532
1.58261
1.46797
1.48933
1.21986
1.16438
1.1981
1.18531
1.2982
1.41172
1.35386
1.42995
1.42469
1.43579
1.42348
0.700248
0.834034
0.986663
0.841881
1.06918
0.968026
0.0981285
0.24463
0.19653
0.108105
0.0208434
0.259775
0.483776
0.725545
0.613213
0.633698
1.93358
1.91983
1.95466
1.94082
1.92526
1.90674
1.81365
1.72601
1.66959
1.67988
1.65844
1.65531
1.63755
1.62881
1.6126
1.61398
1.56241
1.60779
1.5279
1.47397
1.42027
1.37554
0.000947334
0.00107142
0.00107141
0.000663073
0.000648998
0.000731205
0.000573247
0.00107141
0.00107146
0.00107142
0.0826126
0.000546331
0.000263557
0.000517698
0.0559791
0.000804851
0.145648
0.255174
0.258668
0.421524
0.881981
0.668444
0.980744
0.955985
1.15022
0.998525
1.3639
1.52302
1.53653
1.63518
1.83569
1.73608
1.85907
1.8707
1.87623
1.87844
1.94147
1.96487
1.33655
1.33377
1.29064
1.31508
1.25414
1.21918
1.20878
1.20876
1.20209
1.20891
1.16071
1.15317
1.1034
1.1143
1.17029
1.14385
1.11554
1.16095
1.15811
1.17822
1.08684
1.07728
1.09977
1.11156
1.11374
1.06831
1.07315
1.07035
1.07352
1.0566
1.05656
1.3566
1.32941
1.3302
1.33074
1.34979
1.45683
1.41598
1.39674
1.27815
1.32078
1.30688
1.30975
1.20965
1.14455
1.32926
1.44065
1.32889
1.33485
1.3141
1.39259
1.37357
1.44907
1.4804
1.40468
1.3801
1.42409
1.30042
1.26514
1.27006
1.26575
1.1807
1.24039
1.16672
1.11726
1.09145
1.21043
1.21647
1.26014
1.26171
1.26854
1.26743
1.26112
1.27205
1.26458
1.27793
1.26534
1.28842
1.27665
1.28337
1.28836
1.31343
1.29273
1.32291
1.32485
1.27495
1.25834
1.32185
1.30783
1.2955
1.31248
1.2964
1.28237
1.33409
1.31202
1.41439
1.42107
1.3737
1.41465
1.4241
1.39021
1.48253
1.45535
1.52359
1.54231
1.56894
1.48959
1.48103
1.49286
1.42104
1.41495
1.37233
1.47591
1.33248
1.30137
1.36272
1.38558
1.06626
1.10882
1.1969
1.31946
1.34775
1.38582
1.29203
1.25077
1.21673
1.16003
0.524842
0.607153
0.873557
0.68883
0.999137
1.05699
0.0366082
0.000444897
0.0232554
0.0234685
0.161083
0.000309499
0.556009
0.304235
0.483208
0.463062
0.000766556
0.000551352
0.000138864
0.000388285
0.000516658
0.00101
0.000141982
0.000999779
0.000875108
0.000393403
0.00112435
0.000814045
0.001099
0.00098607
0.00112424
0.00112424
0.000948957
0.000999494
0.0009727
0.000201819
9.59135e-05
0.000989075
0.000892979
0.0009482
0.00100959
0.000881287
0.00100965
0.000996543
2.65749e-05
0.000931251
1.91401
1.93201
1.94187
1.93787
1.91198
1.84353
1.67228
1.75265
1.63419
1.62602
1.61369
1.61344
1.61247
1.60845
1.59446
1.60402
1.53979
1.5207
1.41388
1.46224
1.31569
1.35621
0.000968234
0.000636742
0.000948563
0.000967574
0.000969466
0.000982262
0.000989416
0.000870723
0.00101
0.000995422
0.000677989
0.000965569
0.000971308
0.000759356
0.000380116
0.000991326
0.000690401
0.00100737
0.000803925
0.000839513
0.000369052
0.000975289
0.000730824
0.000733357
0.0370681
0.177193
0.357122
0.320442
0.384151
0.568289
1.02075
0.824087
1.04009
1.03728
1.33667
1.16804
1.54392
1.49927
1.57285
1.66875
1.77981
1.85111
1.86046
1.85896
1.90426
1.92229
1.92429
1.91301
0.00112627
0.000872886
0.000886173
0.000211272
0.000721804
0.000987943
0.00081396
0.000939714
0.000890554
0.000725685
0.000975785
0.00092383
0.000794854
2.99799e-07
0.000880516
0.00101
0.000170373
1.31658
1.31549
1.31683
1.28087
1.20174
1.23681
1.16046
1.15294
1.11799
1.11156
1.06783
1.06567
1.09628
1.09286
1.05412
1.08715
1.08202
1.13223
1.11481
1.11248
1.03677
1.00812
1.00901
1.04993
1.05858
1.05892
1.03537
1.0394
1.00038
0.989289
0.952201
0.957346
1.55507
1.5211
1.56221
1.57064
1.52218
1.4773
1.64552
1.666
1.73041
1.73844
1.28776
1.32951
1.37959
1.46551
1.28553
1.23106
1.26752
1.26789
1.10349
1.15879
1.21404
1.09372
1.30882
1.30166
1.30889
1.31569
1.33162
1.31159
1.32622
1.33907
1.22
1.21329
1.11387
1.19661
1.18543
1.15298
1.09421
1.12409
1.06449
1.0834
1.05785
1.14462
1.20878
1.14903
1.21078
1.26299
1.26458
1.26933
1.26196
1.26994
1.28842
1.27896
1.29496
1.29363
1.31289
1.30509
1.32765
1.32826
1.32695
1.32945
1.33679
1.33487
1.37336
1.34539
1.31019
1.31179
1.37689
1.34491
1.35162
1.39144
1.43417
1.43281
1.43327
1.43372
1.46535
1.51708
1.58058
1.59777
1.60887
1.5844
1.72596
1.66579
1.79303
1.83288
1.82119
1.86323
1.91749
1.78151
1.87017
1.89093
1.96869
2.0178
2.04214
2.06371
2.09387
2.03624
2.09274
2.05018
2.12896
2.13079
2.17938
2.14813
2.20723
2.24002
2.22832
2.17881
2.24202
2.268
2.23132
2.23156
2.29406
2.27095
2.30586
2.24357
2.24552
2.30714
2.27784
2.22923
2.23021
2.26233
2.29258
1.28257
1.25183
1.41829
1.41982
1.38943
1.39487
1.39128
1.15423
1.28629
0.986941
1.00803
1.11192
1.10071
0.972308
1.05464
1.04143
1.21839
1.12396
1.11779
1.02982
1.02323
1.03709
1.05335
0.583579
0.458059
0.849922
0.646131
0.852664
0.801829
0.000926539
0.000404827
0.000956562
0.000277605
0.00219466
3.94246e-06
0.171496
0.431507
0.33252
0.361914
0.00022908
0.00069126
0.000943677
0.000831092
0.00138562
0.000474601
0.00012748
0.000146108
0.000949
0.000431299
6.93167e-06
1.61879e-05
0.000990101
0.00093513
0.00100829
0.000604781
0.000911134
0.000410555
0.0010095
0.000970348
0.000958507
0.0010195
0.000715363
0.00101496
0.000974989
0.000910544
0.00101
0.00057983
0.00107773
0.000840558
0.00107772
0.00107781
0.000981988
0.00107822
0.00107804
0.00107774
0.000484425
0.000526767
0.000993933
0.000773625
0.000877713
0.00099375
0.000922247
0.000776475
0.0010078
0.000994205
0.000136415
0.000956593
0.000950381
0.000921886
0.000915695
0.000919934
0.000616215
0.00101
0.000623175
0.000968314
1.90207
1.88591
1.87007
1.87326
1.78339
1.85669
1.68124
1.61817
1.6147
1.60356
1.60761
1.60638
1.54472
1.54413
1.39569
1.35999
1.31401
1.48706
1.48893
1.43605
1.44006
1.43498
0.00081225
0.000363996
0.0011255
0.00112548
0.000962471
0.000414864
0.00093308
0.000410365
0.0011255
0.000891941
0.000161511
0.00100893
0.000972717
0.000941946
0.000297472
0.000985833
0.00059454
0.00091818
0.000734339
0.0264753
0.409235
0.236542
0.44228
0.444409
0.685388
0.487222
0.885063
1.0385
1.1659
1.03857
1.3372
1.49269
1.53836
1.5536
1.63963
1.7644
1.82127
1.81007
1.85674
1.77448
1.82886
1.87693
1.83114
1.80774
0.00101
0.000865295
0.00100993
0.000849207
0.000924318
0.00119081
0.000760357
0.000802257
0.0011908
0.000964874
0.000981161
0.000996251
1.57427e-09
1.51015e-05
0.00101
0.000411253
1.22687e-34
0.00072123
0.00101
0.000253336
0.000277025
0.000765241
0.00096459
0.000879022
0.00220974
0.0010121
1.28965
1.29139
1.20959
1.2288
1.10376
1.12708
1.06344
1.06281
1.06119
1.06279
1.03455
1.03665
1.01064
1.01143
0.988492
1.02569
1.1063
1.06496
1.10372
1.10394
0.928183
0.948247
0.988564
0.967757
0.977234
0.979088
0.929069
0.919299
0.905555
0.918812
0.92732
0.925634
1.77518
1.77456
1.60486
1.51922
1.50829
1.49473
1.7729
1.68617
1.92991
2.00722
1.90247
1.82586
2.01978
2.00149
2.06867
2.11504
2.1448
2.14746
2.1736
2.14879
2.20381
2.22857
2.22575
2.22536
2.24365
2.23008
2.2294
2.27483
2.21985
2.21493
1.33879
1.2656
1.40935
1.4837
1.26618
1.21217
1.26627
1.26532
1.09333
1.14801
0.981908
1.14567
1.03409
1.30955
1.26409
1.30439
1.30272
1.31116
1.20603
1.10797
1.02907
1.01562
1.03029
1.06337
0.988076
0.982438
0.910122
0.988229
1.07793
1.06482
0.990583
1.08716
1.15672
1.10643
1.20931
1.16433
1.19815
1.25536
1.29096
1.27022
1.29917
1.30147
1.31294
1.30221
1.33511
1.34558
1.34464
1.35845
1.36306
1.36688
1.39923
1.41225
1.40264
1.3947
1.39965
1.39122
1.40928
1.42618
1.47181
1.46517
1.43446
1.46451
1.4607
1.49336
1.52739
1.5878
1.61694
1.61957
1.62948
1.69642
1.78122
1.85106
1.86814
1.99321
1.86604
1.91945
2.06966
2.09276
2.09379
2.13015
2.1799
2.22852
2.24
2.24305
2.27088
2.29994
2.32424
2.32648
2.32623
2.32374
2.32385
2.30762
2.24285
2.30612
2.27486
2.2291
2.22848
2.2604
2.29204
2.30171
2.22975
2.29042
2.24896
1.07686
1.06512
1.14243
1.21844
1.10191
1.16441
1.30645
1.23957
1.26183
1.10288
1.00938
0.972425
0.978244
1.07364
1.07008
0.728596
0.843563
1.0295
0.913486
1.02125
1.02763
1.03301
1.02374
1.04398
1.0545
0.255845
0.403387
0.503341
0.683932
0.706525
0.699524
0.00086849
0.000172666
0.000348616
0.00101
0.000590108
2.8753e-05
0.0431581
0.000787153
0.156265
0.000594049
0.0004839
0.0013852
0.000928609
0.00101
0.00089753
0.000660221
0.000998234
0.000701989
0.000938544
0.000874495
0.00105172
0.000942297
0.000791252
0.000751098
0.000990039
7.57449e-05
0.00099613
0.000976554
0.000151024
0.000564715
0.000544652
0.000936558
0.000858938
0.000980916
0.000858274
0.000999888
0.000978339
0.000944855
0.000974885
0.00092222
0.000207016
0.000979907
0.000919067
0.00101
0.000732523
0.00100962
0.000641972
0.000367709
0.000916152
0.000960434
0.000966344
0.000892128
0.000573728
0.000479733
1.82407
1.82978
1.82116
1.8158
1.72009
1.80225
1.61411
1.6644
1.55892
1.5608
1.51014
1.497
1.44237
1.43689
1.35127
1.25152
1.22583
1.39422
1.43567
1.43849
1.42795
1.44425
0.00112555
0.000955281
0.00112555
0.000873691
0.000973634
0.000973647
0.00094649
0.000972052
0.00100548
0.000830393
0.000135327
0.000443538
0.00093376
0.000997208
0.00060297
0.00100999
0.000906931
2.21968e-05
0.000312151
0.125995
0.296965
0.443344
0.510602
0.466218
0.669803
0.850813
1.00173
1.03913
1.2349
1.06349
1.36836
1.51679
1.47592
1.58956
1.75733
1.65906
1.7351
1.73747
1.73602
1.75785
1.80931
1.80497
1.80882
1.78711
0.000769413
0.000922585
0.000563688
0.000958878
0.000712787
0.000933944
0.000627141
0.000452485
0.000821614
0.000879841
0.000957505
0.000856862
0.000968979
1.1387e-26
0.000922039
0.000873917
0.00096514
0.000987798
0.000743529
0.00100999
0.000468733
1.27922e-11
0.00207305
0.000901385
0.00101
0.000860782
0.000668131
0.000489708
0.000816537
3.11266e-23
0.00098545
1.16421
1.16772
1.13056
1.10676
1.06235
1.08617
1.04995
1.04842
1.20627
1.15113
1.12778
0.976542
0.987007
0.91761
0.920109
0.989091
0.987785
0.979717
1.01933
1.07882
1.03192
1.06674
1.05113
0.948366
0.928056
0.940161
0.962228
0.888286
0.885288
0.887626
0.900151
0.914765
0.901715
0.866693
0.875612
2.3499
2.3616
2.38802
2.36208
2.40735
2.39246
2.4173
2.40719
2.46414
2.44963
2.41723
2.46822
2.42807
2.48859
2.31767
2.26941
2.28896
2.33773
2.32119
2.28912
2.2921
2.34529
2.35031
2.32811
2.30634
2.35884
2.34284
2.34934
2.37623
2.22983
2.22932
2.22872
2.22832
2.24679
2.26694
1.82077
1.76589
1.66453
1.56862
1.48156
1.55903
1.75764
1.74016
1.97694
2.00155
1.8875
1.96961
2.00888
2.05613
2.10599
2.14482
2.14544
2.14445
2.14353
2.17249
2.18652
2.21255
2.19965
2.20323
2.20694
2.21696
2.19357
2.19421
1.38936
1.31665
1.2601
1.24972
1.30773
1.48425
1.45939
1.1877
1.24526
1.11769
1.0507
2.33438
2.35474
2.37183
2.37902
2.38307
2.3946
2.39977
2.42575
2.41127
2.42902
2.42644
2.47666
2.50081
2.52175
2.52313
2.52852
2.53942
2.56473
1.02778
0.977944
0.974902
1.23534
1.11944
1.30094
1.19759
1.11733
1.0175
1.01576
1.01561
1.01456
0.865604
0.943723
0.800911
0.810755
0.893463
0.822204
1.08438
1.01066
0.91193
1.10354
1.10943
1.10382
1.15979
1.11894
1.24126
1.19394
1.27553
1.23868
1.27784
1.30096
1.32478
1.34732
1.37026
1.37039
1.38003
1.37232
1.43199
1.41873
1.41309
1.41135
1.46247
1.43889
1.50768
1.46922
1.44932
1.49387
1.53719
1.52713
1.55125
1.58673
1.58743
1.53362
1.64033
1.66977
1.64041
1.62718
1.71197
1.79273
1.86817
1.93449
1.88171
1.89922
2.0285
2.08702
2.13084
2.11131
2.17706
2.2077
2.24901
2.26549
2.2598
2.27832
2.33572
2.31621
2.32773
2.33492
2.32537
2.32548
2.32492
2.32335
2.32446
2.32362
2.3237
1.05702
1.05221
1.07783
0.998875
1.01487
1.03805
0.970144
1.11786
1.01458
0.949041
0.973491
0.952073
0.847347
0.952361
0.973329
0.751372
0.748215
0.699107
0.814431
1.02831
0.910862
0.921862
0.916993
0.709892
0.601868
0.40734
0.417088
0.333451
0.162427
0.163037
0.703131
0.521504
0.686186
0.685413
0.000776109
0.00096702
0.000896738
0.000998449
0.000107963
0.000888291
0.00100984
3.23711e-07
0.133453
0.000859488
0.000398457
0.000668916
0.00101
0.000330569
0.000740386
5.58187e-22
2.57024e-14
0.00239768
0.000379096
0.000850418
0.000694792
0.000545923
0.000997667
0.0003892
0.00100993
0.000972649
0.000977525
0.000963111
0.000999516
0.000752494
0.00101229
0.000951071
0.000757123
0.000992627
0.000575625
0.00101264
0.00089779
0.000955844
0.000631827
0.000258775
0.00071775
0.000964465
0.000941166
0.000838222
0.00101
0.000334973
0.000769708
0.000685233
0.000978177
0.000925692
0.000935309
0.000873102
0.00091709
0.000695524
0.000567275
0.00218952
0.000157145
0.000674617
0.000835469
0.000876327
0.00218949
2.51523
2.47974
2.45441
2.55694
2.58993
2.58706
1.79275
1.7933
1.77492
1.76112
1.71119
1.77041
1.60133
1.52288
1.45566
1.47306
1.43701
1.42423
1.44717
1.43941
1.31236
1.23474
1.32423
1.40031
1.3993
0.00093523
0.000759365
0.000875173
0.000890082
0.000922295
0.0009764
0.000965395
0.000493094
0.000931051
0.000554111
0.00100943
0.000959595
0.000969088
1.00393
1.03287
1.06767
0.000843041
0.000396475
0.00280931
0.00936142
0.291822
0.177192
0.470967
0.497022
0.659794
0.524692
0.833448
1.20484
1.3421
1.45048
1.4637
1.79923
1.70068
1.71075
1.50356
1.57991
1.67368
1.71263
1.71854
1.72894
1.75038
1.75737
1.76523
0.000678695
0.00118038
0.000629233
0.000982796
0.000704864
0.000720222
0.00100904
0.000845157
0.000700774
0.000865554
0.000823186
0.000932446
0.000763197
0.000831138
0.000896425
0.000464554
0.000627663
0.00100504
0.000978863
0.000935387
0.000938185
0.000682923
0.000677014
0.000937995
0.000997599
0.000978674
0.000347723
0.000953032
0.000978459
0.000973622
0.00101
0.00100979
0.000838321
0.000978065
0.000644837
0.000954507
0.000811322
1.1623
1.19633
1.18701
1.12799
1.1306
1.0987
1.1227
0.986959
1.01769
0.926931
0.926006
1.1345
1.12103
0.879979
0.878515
0.881363
0.885162
0.939388
0.917852
0.956881
0.902478
1.02617
0.977454
1.02586
1.03665
0.870221
0.824141
0.847004
0.879402
0.854061
0.85567
0.79632
0.832407
0.811666
0.79253
0.771771
0.769743
2.34899
2.36488
2.38807
2.40625
2.41879
2.41575
2.46727
2.42674
2.28216
2.28
2.26335
2.28498
2.31965
2.27956
2.32673
2.29841
2.21665
2.20476
2.20334
2.23398
2.26225
2.23656
1.82723
1.74986
1.64451
1.73542
1.58424
1.49264
1.74669
1.74818
1.98464
1.98768
2.00245
1.90061
1.97755
2.0891
2.03626
1.97889
2.0205
2.12303
2.13446
2.12729
2.13228
2.14124
2.1642
2.19201
2.18097
2.19191
2.19069
2.19186
2.19141
2.19077
2.19117
1.23359
1.2388
1.3754
1.45883
1.23616
1.31775
1.47276
1.49152
1.22743
1.1696
1.0797
1.14616
2.36596
2.32483
2.34349
2.39043
2.38766
2.38992
2.40076
2.42213
2.4441
2.45608
2.45469
2.45954
2.48128
2.52054
2.50647
2.52381
2.54108
2.58407
2.56292
2.39652
2.40736
2.424
2.59257
2.59002
2.59947
0.976868
0.978012
0.971586
0.947918
1.04548
1.05813
0.862725
0.902804
0.937809
0.821194
0.858496
0.866034
0.794464
0.792232
0.790047
0.800141
0.831152
0.855389
0.962659
0.888858
0.89168
1.03267
1.10699
1.02567
1.17814
1.20559
1.14195
1.17678
1.24022
1.20844
1.33235
1.27401
1.34598
1.35958
1.36965
1.35912
1.40918
1.45012
1.48717
1.48795
1.49418
1.47984
1.50729
1.48768
1.53717
1.53974
1.5641
1.56324
1.53992
1.54107
1.65948
1.70711
1.60489
1.66886
1.71497
1.67786
1.77835
1.82272
1.92212
1.96082
1.93803
2.02916
2.08413
2.18358
2.16938
2.22881
2.20322
2.29853
2.30448
2.29764
2.32692
2.35483
2.35335
2.40784
2.37306
2.39873
2.36294
2.36196
2.39636
2.3288
2.36468
2.32805
0.427202
0.746262
0.433878
0.709801
0.991905
0.973929
0.971241
0.954043
0.969637
0.822657
0.724918
0.720851
0.613216
0.819548
0.693479
0.720544
0.842467
0.102998
0.100993
0.478401
0.611137
0.60653
0.387389
0.278993
0.280442
0.0710594
0.0763492
0.0897711
0.162999
0.156802
0.0668709
0.242284
0.147532
0.398482
0.200937
0.122343
0.0010004
0.000112849
0.00044385
0.000919656
2.95309e-18
0.000297927
0.00225327
3.53422e-06
0.000985883
0.0280263
0.0009581
0.000364482
0.00101
0.000172236
0.000995061
0.00221584
0.000972899
0.000134455
0.00096781
0.00100982
0.00137983
0.000340781
0.00100983
0.000979813
0.000465046
0.000983408
0.00101
0.000808151
0.00101228
0.00101226
0.000896998
0.000917236
0.00101217
0.00101225
0.000955402
0.000711575
0.000711032
0.000919589
0.00170239
5.96874e-05
0.00170231
0.000739164
0.00098702
0.000966821
0.00099923
0.00100984
0.00101
0.00100994
0.000799141
0.000805878
0.000827454
1.20946e-05
9.12481e-06
0
0.00090453
0.000799517
0.000430028
0.000827223
0.00137979
0.000898711
0.00100958
0.00100997
0.000692475
0.000998553
0.000946811
0.000914726
0.00101
2.48829
2.47963
2.48744
2.49539
2.53323
2.64015
2.59665
2.60642
2.62508
2.57213
1.70988
1.69675
1.64595
1.64214
1.58932
1.61769
1.52293
1.48606
1.47635
1.44
1.41424
1.40878
1.32244
1.33601
1.20327
1.2416
1.24776
0.000529692
0.000965684
0.000913493
0.00101
0.000949844
0.000924031
0.000585991
1.03944
1.18127
1.03254
0.000667418
0.000191265
0.000847534
0.000979614
0.900784
0.737657
0.0709867
0.0152214
0.101497
0.203688
0.503847
0.356641
0.53454
0.538094
0.570248
1.55955
1.56979
1.60885
1.31588
1.46611
1.45425
1.49533
1.62718
1.68299
1.65883
1.55953
1.65044
1.67525
1.68576
1.58704
1.62353
0.000957717
0.000979169
0.00118041
0.00101
0.000632943
0.000823908
0.00101
0.00116094
0.00080401
0.000424814
0.000160682
0.000986054
0.000875008
0.000773694
7.94797e-05
0.000970585
3.81153e-05
4.71521e-06
0.000982444
0.00101
0.000771965
0.000895476
0.000833864
0.000976221
0.00092185
0.00100577
0
0
0
0.00065666
0.0007678
0.00101
0.00100563
0.000944429
0.000473953
0.000911195
0.000978965
0.000968087
0.00097325
0.000338297
0.00093345
0.000914242
3.2597e-05
0.000822171
1.1131e-06
1.1803
1.19227
1.20059
1.06809
1.08883
1.04778
1.04962
0.976972
0.965192
0.879737
0.890771
0.87847
0.879759
0.980916
0.976281
0.826281
0.825312
0.792586
0.76873
0.869216
0.862006
0.887241
0.940237
1.0216
0.985812
1.05233
1.00533
0.810493
0.777826
0.840009
0.86392
0.738555
0.737188
0.711456
0.731105
0.769727
0.751099
0.769306
0.778389
2.35865
2.3101
2.39059
2.3417
2.36003
2.38529
2.38484
2.43459
2.39727
2.46945
2.44451
2.42375
2.47222
2.46318
2.24692
2.24771
2.2362
2.25162
2.26287
2.27737
2.27603
2.28717
2.19151
2.1916
2.21437
2.19939
2.22872
2.2371
1.82968
1.75243
1.67016
1.74847
1.54104
1.63573
1.74751
1.75422
1.97711
1.97654
1.979
1.9077
2.06632
2.11256
2.02354
1.97698
2.1191
2.11949
2.13368
2.11897
2.15559
2.18027
2.1868
2.1893
2.18869
2.18512
2.1912
2.19085
2.18798
2.18552
1.2319
1.2263
1.39342
1.47171
1.37326
1.29167
1.52651
1.4697
1.20263
1.22609
1.19612
1.11325
2.36584
2.40188
2.3851
2.41051
2.42958
2.41863
2.45314
2.4656
2.44234
2.45549
2.44504
2.4549
2.45918
2.48177
2.5077
2.52097
2.52323
2.57537
2.55132
2.59798
2.60652
2.47807
2.49112
2.60871
2.61618
0.71744
0.877861
0.736373
0.850447
0.767227
0.743959
0.705685
0.673463
0.696407
0.73475
0.629099
0.680048
0.679689
0.57341
0.635306
0.770171
0.888495
0.808048
0.898499
0.898097
0.8909
0.96057
1.10485
1.01214
1.19355
1.19774
1.16111
1.11294
1.23213
1.27469
1.33177
1.32265
1.34401
1.33289
1.45485
1.4026
1.50562
1.4966
1.52243
1.52855
1.50242
1.55845
1.6041
1.5774
1.5597
1.5878
1.63635
1.62443
1.60293
1.64673
1.72909
1.73085
1.72328
1.74521
1.87472
1.78861
1.95908
1.98556
1.98525
2.05222
2.12828
2.20421
2.21299
2.22455
2.2726
2.32019
2.35659
2.35682
2.39436
2.36843
2.42009
2.43456
2.43397
2.434
2.43339
2.43408
2.40262
2.43356
2.40205
0.0820588
0.0795829
0.0950712
0.0603328
0.381997
0.684165
0.369983
0.844192
0.712713
0.71942
0.563506
0.58633
0.587293
0.582482
0.589062
0.593104
0.581689
0.581101
0.588382
0.10463
0.0886496
0.000727066
0.0327288
0.0697776
0.0195867
0.0709945
0.0659243
0.0344683
0.0444031
4.58251e-08
0.000954858
0.000539062
2.13554e-07
1.2559e-08
0.000746713
0.00208397
2.95861e-07
0.000959982
0.00100986
0.000887496
0.000962023
0.000985714
0.0018942
0.000986033
2.08252e-06
1.36216e-05
0.000607696
2.31579e-06
0.000988249
0.000479144
0.000826696
0.000961729
0.00100941
0.00031059
7.2134e-05
0.000987756
0.00100992
0.000817418
0.000560979
0.000616658
0.00101
0.000799183
0.000977762
0.000279366
0.000905419
0.000941315
0.000794118
0.0010008
0.000939674
0.000880492
0.000886752
0.00100949
0.00097168
0.000773375
0.000984106
0.000952799
0.000430397
0.00098992
0.000934564
0.000964099
0.000974876
0.000974485
0.00101
0.00099424
0.000905098
0.000464111
0
0
0
0
0
0
0
0
0
0
0
0
0
0
0
0
0
0
0
0.00099334
0.000871142
0.000937661
0.000812305
0.000920385
0.000434354
0.000930589
0.00106273
0.000325168
0.000811332
0.000952851
0.000885277
2.66603
2.64717
2.67191
2.68253
2.66321
2.66662
2.49783
2.50101
2.56443
2.54043
2.63187
2.64367
2.62727
2.51579
2.49023
1.57217
1.5684
1.55727
1.56417
1.56047
1.50247
1.54976
1.33438
1.3882
1.25621
1.25685
1.20402
1.20173
1.20403
4.53839e-05
0.000617054
0.000495047
0.000982711
1.01372
1.20254
1.03177
0.000948865
0.000925054
0.98554
0.883221
0.000462418
0.0407301
0.000831195
0.000481832
0.577026
0.721768
0.108368
0.111452
0.257822
0.102345
0.542824
0.397432
0.548484
1.58654
1.57135
1.57899
1.57711
1.57041
1.28703
1.39818
1.35003
1.45886
1.52041
1.5469
1.47983
1.54962
1.51922
1.50433
1.50919
0.000175756
0.000288917
0.000759197
0.000663277
0.000163032
0.000162298
0.000553008
0.000711715
0.000437298
0.000694257
0.000985919
0.0229932
0.00100934
3.42607e-07
0.000942023
0.108189
0.106803
0.0449848
0.000840291
0.000885452
0.0459602
0.00098079
0.000740767
0.000908685
0.000621516
0.00100955
0.000627569
0.000973579
0.000348921
2.15212e-05
0
0
0
0
0
0.00093653
0.00106922
0.000978274
0.00106957
0.000311491
0.000882709
4.98559e-06
0.000324846
0.000793762
0.000497907
0.000542817
0.000953825
0.000799301
0.00294936
0.00126341
0.0891969
0
0
0
0
0
0
1.18006
1.10951
1.09694
1.02606
1.01887
0.935362
0.92232
0.910059
0.911183
0.90084
0.911311
0.841878
0.853421
0.776472
0.761574
0.910712
0.916298
0.701188
0.696421
0.699582
0.710011
0.983068
1.04716
0.966625
0.861821
0.845003
0.919687
0.851025
0.936166
0.776592
0.74446
0.805241
0.762403
0.712925
0.712115
0.704462
0.725102
0.721627
0.696053
0.687677
0.668408
2.30761
2.29198
2.32913
2.34121
2.31437
2.37537
2.40966
2.36639
2.38359
2.35426
2.45351
2.42418
2.40308
2.23826
2.23633
2.26538
2.25064
2.27621
2.27409
2.30477
2.28098
2.1914
2.19782
2.22079
2.20512
2.21972
2.22819
1.86794
1.79032
1.71161
1.74914
1.69514
1.60155
1.78561
1.74914
1.98218
1.98089
1.94311
1.98651
2.07271
2.12098
1.98363
2.03014
2.12186
2.12105
2.14416
2.12268
2.16406
2.18457
2.18226
2.1834
2.1831
2.1827
2.18653
2.18627
2.18388
2.18221
1.22441
1.28462
1.46997
1.44841
1.37061
1.45275
1.47174
1.54544
1.21785
1.21386
1.20787
1.12567
0.961664
1.00632
1.08792
2.43472
2.43866
2.46617
2.45851
2.4825
2.49369
2.49375
2.49434
2.52977
2.50967
2.5212
2.48893
2.51855
2.52936
2.55319
2.57285
2.58531
2.58376
2.63441
2.63667
2.65785
2.63721
2.54954
2.555
2.66886
2.66905
0.491365
0.566225
0.43515
0.675537
0.584073
0.6666
0.673819
0.659344
0.5912
0.518459
0.458213
0.458565
0.487341
0.541282
0.710017
0.613905
0.596637
0.794728
0.948477
0.909424
0.76125
1.00108
1.04371
1.06057
1.04308
1.14544
1.21236
1.09233
1.3155
1.25605
1.32566
1.32834
1.42005
1.35991
1.482
1.51498
1.51162
1.51558
1.64172
1.60353
1.57278
1.62684
1.65406
1.64798
1.63987
1.63
1.64333
1.64738
1.72469
1.76937
1.80766
1.76087
1.8078
1.83107
1.97346
1.90455
1.99815
1.9858
2.06631
2.14139
2.22869
2.22352
2.26063
2.29653
2.37302
2.36281
2.38497
2.39
2.41738
2.42707
2.44491
2.43725
2.44831
2.44389
2.43407
2.44657
2.43357
2.43538
0.0253467
0.0034188
0.0553853
0.0321835
0.0320348
0.0567446
0.0345233
0.22018
0.0293942
0.583414
0.594405
0.113369
0.325534
0.59257
0.581526
0.59304
0.580003
0.581951
0.58871
0.512312
0.420556
0.000664955
0.000456099
0.000929073
0.000491562
0.00113287
0.0232225
0.000944627
2.94484e-05
0.000708883
0.000624923
0.00101
0.000209386
0.000613088
0.00100863
0.00187036
0.000992226
0.000918269
0.000980064
0.00359148
9.89169e-05
0.000210438
0.00024578
0.00100974
0.00081637
6.39222e-09
0.000980809
0.00100983
0.000216105
0.000848872
0.00100647
0.000131712
0.00100976
0.000959372
0.000150298
0.000986414
0.000975827
0.000981655
0.00357015
0.000980885
0.000632467
0.00098777
0.000776699
0.000616095
0.0013236
0.00132353
0.00132355
0.000900202
0.000946957
0.000832782
0.000987787
0.000948013
0.000941776
0.000961192
0.000871734
0.000897996
0.000947049
0.000951887
0.000925848
1.67713e-05
0.000881191
0.00092376
0.0003855
0.000414352
0.00098456
0
0
0
0
0
0
0
0
0
0
0
0
0
0
0
0
0
0
0
0.000840327
0.000943785
0.00101
0.000948967
0.00166429
0.000627538
0.00104739
0.000877142
0.0010262
0.000874503
0.00068272
0.000991424
2.67994
2.70284
2.7154
2.66204
2.66989
2.65829
2.66944
2.55284
2.59171
2.59395
2.60639
2.60556
2.64339
2.65996
2.50121
2.54588
2.46708
2.50621
2.50358
1.58019
1.56411
1.46602
1.42728
1.52131
1.45653
1.46384
1.34128
1.3639
1.22976
1.20155
1.203
1.20203
1.18058
0.000895612
0.000224233
1.11586
1.2334
1.01178
0.00100664
0.000851449
0.964693
0.954483
0.00142065
0.000905426
0.697984
0.831474
0.0687995
0.143322
0.079151
0.0372524
0.558901
0.566028
0.153691
0.187524
0.23484
0.333863
0.489767
1.53154
1.56338
1.55235
1.52984
1.29076
1.28894
1.31535
1.38562
1.50467
1.49648
1.45934
1.50786
1.50208
0.0268669
0.0251989
0.0246639
0.0384321
0.0608746
0.079684
0.0907029
0.0904063
0.0922679
0.116614
0.134761
0.162111
0.162355
0.172253
0.214755
0.255353
0.201049
0.291486
0.25152
0.207688
0.248459
0.246019
0.252047
0.000995064
0.000830941
0.00106946
0.000570634
0.00039799
0.00101
0.000984001
3.7271e-05
0.000733696
0
0
0
0
0
0.000500823
0.000887854
0.000776104
0.000530597
0.0762622
0.113017
0.184429
0.209558
0.269167
0.162588
0.000414903
0.000699578
0.371893
0.255982
0.291316
0.324565
0
0
0
0
0
0
0
0
0
0
1.0975
1.01331
1.01494
0.95471
0.953775
0.927951
0.945779
0.913809
0.954239
0.879742
0.878555
0.790041
0.80627
0.714682
0.714197
0.685766
0.684947
0.83523
0.805329
0.692503
0.68308
0.689065
0.677042
0.906244
0.951306
0.792774
0.764955
0.834038
0.949764
1.0106
0.967397
0.695406
0.653835
0.720315
0.743383
0.64456
0.625276
0.618501
0.585148
0.618682
0.5938
0.61655
0.636516
2.35262
2.34015
2.26613
2.3639
2.29234
2.35355
2.37861
2.37446
2.37811
2.43003
2.37091
2.46362
2.42844
2.49565
2.21872
2.24122
2.23536
2.25933
2.23964
2.26869
2.27463
2.25315
2.18612
2.19369
2.20173
2.21037
2.20962
2.20974
1.92182
1.8427
1.73088
1.74972
1.65153
1.7424
1.75554
1.81236
1.98852
1.98862
1.98845
1.96694
2.07796
2.12482
2.04494
1.99937
2.1249
2.12539
2.13198
2.15146
2.18267
2.17033
2.1829
2.18241
2.18304
2.18299
2.18237
2.18405
2.18304
2.18391
1.30449
1.21244
1.47605
1.48122
1.39357
1.48501
1.48293
1.58114
1.20776
1.20648
1.18483
1.16947
1.11044
1.20598
2.44902
2.46754
2.48772
2.52195
2.51803
2.53692
2.55195
2.55993
2.5678
2.55477
2.56262
2.58257
2.60699
2.61639
2.61668
2.62778
2.64645
2.66847
2.67927
2.67974
2.69118
2.5653
2.5567
2.70775
2.72898
0.305787
0.350821
0.319991
0.411206
0.543172
0.614786
0.516526
0.537722
0.443546
0.456836
0.457138
0.482919
0.578461
0.534854
0.606364
0.604838
0.603934
0.668265
0.734029