/*--------------------------------*- C++ -*----------------------------------*\
  =========                 |
  \\      /  F ield         | OpenFOAM: The Open Source CFD Toolbox
   \\    /   O peration     | Website:  https://openfoam.org
    \\  /    A nd           | Version:  8
     \\/     M anipulation  |
\*---------------------------------------------------------------------------*/
FoamFile
{
    version     2.0;
    format      ascii;
    class       surfaceScalarField;
    location    "21060";
    object      phi;
}
// * * * * * * * * * * * * * * * * * * * * * * * * * * * * * * * * * * * * * //

dimensions      [0 3 -1 0 0 0 0];

internalField   nonuniform List<scalar> 
788991
(
-0.0543053
-0.0542607
-0.0363605
-0.0191795
-0.00913204
-0.0344457
-0.00245652
-0.0019037
-0.0501271
0.0463714
-0.055679
0.0425512
-0.00201449
-0.0634134
-0.066283
-0.029595
0.0184842
-0.0310787
-0.047327
0.0409048
0.00954595
0.0495581
-0.0112301
0.018559
-0.0770588
0.0172941
-0.0110019
0.0277562
0.00352951
0.0283525
0.0119639
0.0555242
0.0434168
0.000424029
0.051549
0.00705864
3.70696e-05
-0.0385184
-0.0276023
0.0477388
-0.0420629
0.0331124
0.00106891
-0.0533042
0.0196725
0.0167453
-0.0278628
-0.0182073
-0.0117255
-0.0575581
-0.0894092
0.0798361
-0.0426817
0.0517247
0.0556657
0.00166684
0.049426
-0.00721719
0.0417225
0.046936
-0.0149264
-0.0501964
-0.0826049
-0.0223523
-0.0421457
0.0424792
-0.00979132
-0.0295624
0.0480493
-0.0500159
-0.0711679
0.0521553
0.0044484
0.0456029
-0.00208161
-0.0136471
0.0370305
0.0336914
0.0289441
0.0180825
0.0358652
-0.0582774
-0.0119805
0.00617566
-0.00466348
-0.0322201
0.0397744
-0.0132398
0.00728789
-0.0232292
0.0244357
0.0164615
-0.0199984
-0.0214677
-0.0224119
0.0307186
-0.000457285
0.0386658
-0.0235964
-0.00264904
0.0918992
0.02139
-0.0697721
-0.04565
0.00271253
0.0313088
0.00383286
0.0322038
-0.0314315
-0.0186279
0.0405338
-0.00862673
-0.0568298
-0.0592718
-0.0292933
0.045487
0.0169156
-0.0486567
-0.031289
0.00691362
-0.0108201
-0.0105868
0.0493181
0.0536018
-0.0432855
-0.0185965
-0.0253346
-0.0401138
-0.0426865
0.00633227
0.0228585
-0.00715965
-0.0518528
-0.0181017
0.0382761
-0.00591243
0.0428259
0.0194841
0.014046
0.0253452
0.0441032
0.0182639
0.0218358
0.0657258
0.0196508
-0.038511
0.0402889
0.0144223
0.0411676
0.0518396
0.0200924
-0.0447057
-0.00524905
0.0022566
0.000384284
-0.00247082
0.0348812
0.0211017
-0.00871474
0.035996
-0.0415494
0.0174299
0.00534244
-0.0208984
0.031616
-0.0247706
0.00442509
0.00587704
-0.0135791
0.00705265
-0.0210084
0.00650277
0.00529691
-0.0040936
-0.000102904
-0.00778159
0.00282153
0.00289921
0.00492265
0.00725715
0.00227674
-0.00927408
0.00227483
0.00824403
-0.0104981
0.00593672
-0.0102246
0.00189185
0.00751904
0.0101507
0.00584275
0.0123121
0.0171954
0.00976
-0.0043967
0.00425465
0.0117147
0.00711173
0.0236129
-0.00906131
0.00479582
0.0717047
0.00529541
-0.0311222
0.0177974
0.00748538
0.0733097
-0.0132831
0.147358
-0.0452436
-0.00312909
0.0578968
0.00549106
-0.0388036
0.011711
-0.0039959
0.00309825
-0.00407668
0.0675532
-0.00100871
0.0443337
0.048524
0.0115977
-0.0420517
0.0352079
-0.0113437
-0.0599548
0.0636273
0.0122888
0.0561889
0.0382605
-0.00177571
-0.0467395
0.0456842
-0.0144468
0.0486649
0.0117922
0.00442988
-0.0405117
-0.0445604
0.0249921
-0.0420685
0.0048772
-0.0176127
0.0324954
-0.0015013
-0.0139717
-0.0169826
-0.00660798
-0.0206721
0.00482523
0.000309592
-0.000661053
-0.00792471
-0.000792027
0.00389267
-0.00975533
0.00521139
0.00629892
0.0128763
0.00855286
0.00930757
-0.0100651
0.00269385
0.00843238
0.0106164
0.0254912
0.0301629
-0.00899913
0.0371575
0.0291638
-0.00114645
0.00314272
0.0114276
-0.035931
0.0324136
0.026407
0.0470151
0.0406488
0.0276956
0.0284207
-0.0523166
0.0213407
0.0620581
0.00999586
-0.051638
-0.0344435
0.00152765
0.0551785
-0.0382491
-0.00798414
-0.110489
-0.00788279
-0.00212472
0.0111745
-0.0155211
0.0510718
0.0291975
-0.0258961
-0.0353466
-0.040044
-0.0314611
0.0431833
-0.0236506
-0.0676902
-0.0169498
0.0159688
-0.049206
0.0549402
0.0150508
-0.0171197
0.0204331
0.0289936
0.00911156
-0.0167874
-0.0384434
0.134529
0.00515903
0.0897008
-0.0108706
0.00226335
-0.0404367
0.0135529
-0.0138174
-0.0220481
0.0402513
0.0148694
0.00193698
-0.0279762
-0.0511392
-0.0390076
-0.00592283
-0.0436245
0.00890848
-0.0211562
-0.0326071
-0.0259952
0.0141402
-0.0524263
-0.0189934
-0.00122625
-0.0474096
-0.0660966
0.00111484
-0.0240582
-0.0356851
0.00551486
-0.0258214
-0.0565153
0.0155116
-0.0315119
-0.034494
0.00696394
-0.0238705
-0.0290536
-0.00400705
0.0974098
-0.0530623
-0.0264507
0.0370332
0.0066692
0.0477527
0.0840852
-0.00280486
0.0378644
0.0364399
-0.00466883
0.0442923
0.0293573
0.0221349
0.0308654
0.0204667
0.017226
0.0860932
0.00575349
-0.0359702
0.0677376
0.0340465
-0.0415777
0.00494852
0.0111195
0.00782306
0.016867
0.0213382
-0.018447
-0.0204864
-0.0308513
0.00212535
-0.0161475
-0.0205647
-0.000642837
-0.01132
-0.012527
-0.00609146
-0.00860806
-0.00388834
-0.0103159
-0.00264745
0.00390834
0.0108172
-0.00525647
0.00268022
-0.00726127
0.0105514
0.00561696
0.0260154
0.022351
-0.0293344
0.0269093
-0.026341
0.00608197
0.00300823
0.0199261
0.0133586
0.0133438
-0.0281602
0.0344371
-0.00706183
-0.0291657
0.0131215
-5.90951e-05
0.00214803
0.0200952
-0.00837702
0.00135118
0.0218118
-0.0120839
0.00447011
-0.0467602
-0.00496921
0.00956144
-0.0088735
-0.0274087
-0.016685
0.0107241
-0.000940112
-0.03059
0.00044886
0.0305666
-0.0294754
0.005378
-0.0296737
-0.0412902
0.0601146
0.0642046
-0.0481191
0.0318009
0.00086177
-0.0452085
0.0538727
0.000295895
0.0426521
0.0751436
0.00135587
0.0524253
0.0609317
0.00382768
-0.067932
0.0434398
0.00970912
0.0511531
0.0449543
-0.00370285
0.0397545
0.00438378
0.00479683
0.0358112
-0.0365986
0.0203796
-0.0317458
-0.00723423
-0.010776
-0.0274071
-0.0165153
-0.0359964
0.00823192
-0.0110704
-0.0151223
0.0011376
-0.007204
-0.0127687
0.0067083
-0.00198119
-3.77311e-05
-0.00928054
0.000878827
0.00422357
-0.00608603
0.0136029
0.00941803
-0.00816881
0.0138078
0.0172359
0.0119204
0.00771002
0.0222239
0.0184604
0.0254821
0.0193713
0.0270887
0.0266696
0.0178559
-0.0118682
0.0275116
0.0180751
-0.0192372
0.0357355
0.015668
0.0132435
0.0176161
0.0254281
0.0117312
0.0295882
-0.0334455
0.0330008
-0.00329533
0.0287211
0.0237853
0.00863939
0.0378105
0.0006615
0.0356193
0.0344982
-0.00226595
-0.0958473
-0.0309478
-0.055892
0.0184825
-0.0906697
-0.00749914
-0.0744611
-0.0584344
-0.0165479
0.0235868
0.0563762
-0.00517725
-0.0714296
-0.0322225
-0.0255448
-0.0536333
0.0115502
0.0183218
0.0385816
0.0638175
-0.00636706
-0.0410738
-0.0537767
0.00385481
-0.0412064
0.0438785
-0.030857
-0.055153
0.0466104
-0.0336145
-0.0681994
0.0174519
0.0260185
-0.019264
-0.0326196
0.0531767
-0.0193477
0.0591686
0.0234633
-0.00693077
0.0508446
0.0281322
-0.0103739
-0.0166224
0.00782978
0.0226831
-0.177115
-0.0394757
0.0159969
-0.023888
-0.0513455
0.00841289
0.0276788
-0.0197008
0.0103797
-0.00907885
-0.0237377
0.0361436
-0.00273212
0.0197386
-0.0191072
0.0231006
-0.0157653
0.000913667
-0.0548044
-0.00855828
0.00400539
-0.0186616
-0.0264517
-0.0342374
-0.0323056
-0.0513235
-0.0158622
-0.0317521
-0.0124394
0.00123325
-0.0293389
-0.0509928
-0.00963472
-0.0280428
-0.0261533
0.00253804
-0.0276646
-0.0350479
0.0140613
-0.0268029
-0.030212
-0.00660191
4.14367e-06
0
1.28518e-05
0
0
-1.9212e-06
7.18749e-06
-1.62178e-05
1.12313e-05
2.71633e-06
6.35077e-07
-0.0427823
-0.101989
0
0
0
0.174099
0.0393683
0.125534
0.0255308
-0.0148593
0.0420776
-0.0179345
0.00865589
0.0651874
0.0349841
0.00921545
0.0506238
0.0469104
-0.0052063
0.0454675
0.0387763
0.012693
0.0537489
0.0273991
-0.020649
0.0386786
0.0294442
-0.0311904
0.0338198
0.0268377
0.01733
0.0532741
0.021766
-0.0191162
0.0200981
0.0257444
0.00568143
-0.0423369
-0.00519116
0.0146256
-0.022549
-0.0201263
0.0109622
-0.0189332
-0.016683
-0.00666902
-0.0166389
-0.00964734
0.012649
-0.00987928
-0.00112894
-0.0144546
-0.00580819
-0.00161096
-0.0142163
-0.00904265
-0.00288728
0.00537128
-0.0306848
0.00860062
0.024847
-0.025045
-0.0313586
-0.00400335
0.00797482
-0.0330776
-0.0281903
-0.0297706
-0.00516264
0.0309708
-0.00824034
-0.00810083
-0.00188315
0.0143944
-0.0102321
-0.000637008
0.0206901
-0.00410563
-0.000724622
-0.00400614
-0.0223395
0.00401021
0.0234144
-0.016597
-0.000583536
-0.0172498
-0.0412433
0.00165816
0.0370504
0.000619824
0.039135
0.0406718
0.00103158
-0.0405632
-0.000665869
0.0422012
-0.0331779
0.00210921
0.0337446
-0.0388324
0.00122092
0.0356673
0.00213475
-0.0304848
-0.0343452
-0.00798383
-0.0129497
-0.0558203
0.0270893
-0.00174024
-0.0409549
0.0639929
0.0567089
-0.0631141
0.0751671
0.0108203
-0.0467927
0.0470387
0.00495794
0.0537794
0.0540733
-0.00133432
0.0524483
0.0589758
0.00752138
-0.0455182
0.0389202
0.00845551
-0.0386728
0.0372327
0.000973445
0.0341409
0.00460592
0.00514517
-0.017469
0.0226089
0.00463825
-0.0227274
-0.0168381
-0.0181504
-0.00928147
-0.0276972
-0.0256404
0.00768109
-0.0205228
-0.0357425
-0.00208317
-0.0101394
-0.0179192
-0.00142019
-0.00184148
-0.00606598
-0.00411806
0.00246094
0.0018233
-0.000146652
0.00434552
0.00647786
0.00708744
0.00951241
0.0206148
-0.01113
0.00233577
0.0251584
-0.0185297
0.0222639
0.0107179
0.0180774
0.0211988
0.00405135
0.0189765
0.0334201
0.0141429
0.0121964
0.0259291
0.0167372
-0.0182785
0.0175663
0.0284735
-0.0151957
0.0301905
0.0274032
0.00712187
0.0309469
0.0202874
0.00974836
0.0331257
0.031306
0.00470697
0.0379845
0.0362321
-0.00239211
0.0372679
0.0398724
0.0374622
-0.000952732
-0.0160637
-0.0769173
0.0125955
-0.00657644
0.152114
-0.00968427
0.00827735
0.095153
-0.0525811
-0.019339
0.0504012
-0.0410128
-0.0468463
-0.0666899
-0.00296835
-0.0566624
0.031197
-0.0347821
-0.0658114
-0.00472109
-0.0375895
-0.0409793
-0.0142519
-0.0396131
-0.0215712
-0.00851321
-0.0419803
0.035501
-0.0293894
-0.0474481
0.0258432
0.0545524
-0.0296438
-0.033735
0.0493853
-0.00922666
0.0315937
0.0312909
-0.00965595
-0.0535814
-0.00449884
0
-0.0653006
0.0125742
0.0182847
0.0612328
-0.202018
0.00242156
-0.21445
0.00779621
-0.0862701
0.0613045
0.0150268
-0.0942996
0.0227674
0
0
0
0
0
0
0
0
0
-1.07165e-05
0
-5.65015e-06
0
-1.33745e-05
-5.13895e-08
-8.49901e-06
7.9822e-06
6.56244e-06
-2.96225e-05
0
0
9.33586e-06
0
0
0
0
0
0
0
0
0
0
0
0
0
0
0
0
0
0.0179689
-0.0271769
-0.00883566
-0.00828993
0.0025664
0.00385342
0.0130793
-0.0212473
0.0137241
-0.0601785
-0.0299262
0.00124397
-0.0502379
-0.0214111
-0.0151618
-0.0295614
-0.0248507
0.00335351
-0.0311388
-0.0446154
-0.00258864
-0.0255379
-0.0172223
-0.0150836
-0.0382959
-0.0391059
-0.0035719
-0.0278258
-0.0136954
-0.0256723
-0.0258093
-0.00875705
-0.0226573
0
8.11733e-06
0
0
0
0
0
0
0
3.46674e-06
0
0
0
0
0
0
0
0
0
0
0
0
0
0
0
0
0
0
0
0
0
0
0
0
0
-0.0246294
0.0714288
0.0103809
0.0293706
-0.0365242
-0.00462828
0.0344769
0.0390576
-0.00781959
0.0499083
0.0318986
0.0112404
0.0588008
0.0394033
-0.01678
0.0544913
0.0396962
0.0215103
0.0609535
0.0401365
0.021278
0.0578535
0.0272199
-0.0235274
0.0304194
0.0317289
-0.0149501
0.0104046
0.0332939
-0.00111985
0.00890754
0.0131633
-0.0134045
-0.0552547
-0.00566203
-0.0500027
2.07493e-05
0
0
-4.06622e-05
-2.10484e-06
0
0
2.44927e-05
0
0
0
0
0
0
0
0
0
0
0
0
0
0
-0.0247272
-0.0161542
0.0101582
-0.0219774
-0.0131892
0.0138467
-0.0186254
-0.00821392
-0.0166846
-0.0155927
-0.00550918
-0.015555
-0.0139044
-0.00546156
-0.0153764
-0.013534
-0.00939409
0.0123342
-0.0255314
0.00208394
-0.0230906
-0.0329778
-0.00158204
0.0267466
-0.0300809
-0.00159999
0.029638
-0.0377506
-0.00402364
-0.0359706
-0.0155282
-0.000234629
-0.0167271
-0.0191935
2.0226e-06
0.0223332
-0.0124255
-0.00201886
-0.0213752
-0.0127225
-0.00325026
0.0171009
-0.0125359
-0.000790883
-0.012498
-0.019821
-0.00139415
0.0179489
-3.11013e-05
0.0403085
0.0407252
0.0036558
0.0395042
-0.00151627
-0.0389868
-0.0385052
0.0453759
0.00249711
0.0472525
-0.00164499
0.0442584
-0.0430069
-0.00232973
0.0412197
-0.0419056
-0.00354743
0.0418317
-0.0359155
-0.00021299
-0.0352005
-0.0465925
-0.00691465
-0.0373041
-0.000704495
-0.0387166
0.0379923
-0.0105633
-0.01617
0.0306503
-0.0504541
-0.00829751
-0.0363399
-0.0243476
0.039777
-0.0355402
0.0525888
0.00619453
0.0536388
0.0723547
0.0128098
-0.0598288
0.0649561
0.0101607
-0.0523759
0.0501831
0.0150784
-0.0362789
0.0339265
0.0150868
0.0242645
0.0210669
0.0118592
0.0133074
0.00286133
0.00715254
0.00030271
0.00278496
-0.00695071
-0.00559818
-0.03429
-0.016649
0.00315919
-0.0327874
-0.0373491
0.00579061
-0.0227674
-0.0275191
0.00337361
-0.00860644
-0.0184799
-0.00589296
-0.00249204
-0.0148564
0.00254635
0.00160134
-0.00544486
-0.00279244
0.00336562
0.00790186
-0.00691205
0.00533936
0.0146126
0.0183543
0.00760024
0.0271084
0.0174381
0.0229085
0.0112224
0.0121388
0.0299835
0.00573768
-0.0173699
0.0294214
0.0203338
0.011368
0.0268469
0.0137346
0.0163228
0.0184888
0.0318984
0.0123192
0.0278893
0.0214619
0.00739489
0.026359
0.0165283
0.0111873
0.0272451
0.0269383
0.00863845
0.0343619
0.034845
0.00589456
0.0371066
0.0412559
0.00656076
0.042266
0.0475434
-0.0094938
0.046515
0.0496791
0.0495599
0.00773902
-0.00646213
0.00277646
0.049447
-0.0550819
0.0524455
0.0437903
0.052593
0.0420709
0.050813
0.00900174
0.0474032
0.00438271
-0.0535516
0.0500177
0.00897964
0.050963
0.00400857
0.0596381
0.0548702
0.00917504
0.0497193
0.00559959
0.062644
0.0585443
-0.0108898
-0.0545365
0.0106681
0.0724699
0.0606061
0.0158954
0.0638969
0.0158401
0.0839981
0.0707155
0.0209513
0.0678683
0.0193612
-0.0897854
0.0852806
0.0264647
0.0221198
0.0635233
-0.0869591
0.0941127
-0.0295617
-0.0225501
-0.0676851
0.0447173
0.0215422
-0.0777192
-0.042232
0.0208051
-0.1175
-0.0295409
-0.0250311
-0.0472637
-0.00614144
0.0216517
-0.00242194
-0.0220412
0.0358296
-0.0554736
-0.018254
0.025975
0.00734741
-0.0311721
-0.0346299
-0.00781728
-0.0226316
-0.0133945
-0.0222132
-0.0238337
0.00719394
-0.0294851
-0.0304713
0.00883872
-0.0278584
-0.0353591
-0.0124753
0.0220456
0.0195556
-0.0176943
0.0377698
0.00787946
0.040487
0.000910318
-0.00631974
0.0237752
-0.0227583
0
0
0
0
0
-0.306425
0
-0.0502816
-0.0688149
0.0662085
0.0927367
-0.0064918
0.00733548
0.0408539
0
0
0
0
0
0
0
4.66033e-05
-9.81245e-05
0
0
0
0
0
0
0
0
0
0
0
0
-4.91238e-05
0
0
0
0
0
1.99488e-07
1.38439e-06
0
-3.69662e-06
0
-3.05252e-06
0
0
0
-2.82034e-06
0
0
0
5.94793e-05
-2.34353e-06
-5.15302e-05
-7.70831e-05
-0.00014894
-9.45313e-07
1.32787e-05
0
-0.000135133
3.09483e-05
0
-3.55529e-05
0
-0.000132788
0
0
0
0
0
0
0
0
0
0
0
0
0
0
0
0
0
0
0
0
0
0
0
0
-0.0125575
-0.0724768
-0.0039961
-0.00785657
-0.0293968
-0.0298222
-0.0311461
-0.014749
-0.0494866
-0.014345
-0.00881587
-0.0136111
-0.0258405
-0.0181114
0.0226737
-0.0345248
-0.0357584
0.0117481
-0.0349247
-0.0129662
-0.021765
-0.0325916
-0.0239473
0.0160342
-0.0118668
-0.0371478
-0.0297089
-0.0140118
-0.030438
-0.0198092
-0.0230858
-0.0127428
-0.0196945
0
0
0
-2.64956e-05
2.4992e-05
5.30279e-05
0
0
0
0
0
0
3.91966e-05
0
-1.4477e-05
0
0
0
0
0
0
0
0
0
0
0
0
0.0108434
0
0.0373932
0.00814783
-0.0218482
-0.0206183
0.0258556
0.0440996
-0.00428706
0.0310717
0.0236905
0.012722
0.0526993
0.0302448
-0.0165138
0.0567436
0.0445193
0.0184904
0.0433509
0.0362042
-0.0109263
0.0538823
0.0151745
-0.00905061
0.0714195
0.0529032
-0.0204376
0.0268795
0.0260906
0.016385
0.00777593
0.0305152
-0.00825277
0.0206641
0.0431021
0.00332686
-0.00985713
0.00236771
0.0319577
0
0
0
0
0
0
0
-4.21926e-07
0
2.27184e-07
0
-3.38555e-07
-9.67544e-08
0
0
0
0
0
0
0
0
0
0
0
0
0
0
0
0
0
0
0
0
0
0
0.00492433
0.0326787
-0.00535058
-0.0260617
-0.0148277
-0.0149702
-0.0265367
-0.0125082
-0.0151565
-0.0268064
-0.0107867
-0.0151247
-0.0249615
-0.0095552
0.0161
-0.020845
-0.00956809
-0.0144591
-0.0183424
-0.00355716
-0.0179438
-0.0237865
-0.000322314
-0.0223351
-0.0378141
-0.00363349
0.027926
-0.0399814
-0.00378259
-0.0323669
-0.0438774
-0.00250632
0.0397454
-0.0211548
-0.00377969
0.0209673
-0.024119
0.000768077
-0.0243677
-0.015436
0.000775732
-0.0202968
-0.01309
0.000272037
-0.0160901
-0.0163245
-0.0030055
0.0117395
-0.0217425
-0.00237235
-0.0132191
-0.00123481
-0.0517636
-0.0505999
-0.00482739
-0.0459339
-0.0393375
-0.00750018
-0.0462318
-0.0380897
-0.0505617
-0.00627607
-0.0448878
0.00153865
-0.0500786
0.0552763
-0.00040969
-0.0544164
-0.0561787
-0.0540004
0.00154309
-0.0570177
-0.0555253
0.0020113
0.0626268
-0.060475
0.00628639
-0.071211
-0.0682893
0.0113608
-0.0836583
-0.0705098
0.0138987
0.0861124
-0.0650115
0.0146973
0.0814206
0.0241587
0.0925848
-0.0314848
-0.0538482
0.0799595
0.0162487
-0.0561356
-0.0751186
-0.0475988
-0.00676674
-0.0438232
-0.0494382
-0.0097206
0.0405515
-0.0424617
-0.00696027
-0.0387754
-0.049273
-0.0388687
-0.00173108
-0.00403577
-0.0413528
0.0415681
-0.00320691
-0.00575696
-0.0334153
0.0248291
0.00416339
-0.044401
0.0530842
0.0689155
-0.035632
0.0668228
0.00586267
0.0436535
0.0580313
0.0089948
-0.0506398
0.0598452
0.0147183
0.0386647
0.0458343
0.0199403
-0.0244408
0.0295123
0.0243758
0.00512839
0.00266951
0.0303392
0.0113204
0.00114392
0.0145604
-0.0215539
-0.018011
-0.0253258
0.0125751
-0.0382109
-0.012254
-0.0129765
-0.0343824
-0.0222444
-0.00844974
-0.00824327
-0.0219183
-0.00856713
-0.0110714
-0.0145521
0.0122531
-0.00501656
-0.0169139
-0.00865858
-0.000659672
-0.0119996
-0.000551227
-0.000328409
0.00437447
0.012421
0.00159856
0.0168723
-0.0220872
0.00777085
0.0254001
0.0238679
0.0199914
0.0103778
0.0139113
0.0272019
0.0058294
-0.0107198
0.0263939
0.0166293
-0.0132272
0.0224173
0.00764069
0.0116665
0.0144407
0.0257887
0.00859966
0.024315
0.0194102
0.00593214
0.0236685
0.0164433
-0.010867
0.0271909
0.0289191
0.0109347
0.0361781
0.0410867
-0.0107302
0.0385135
0.0520016
0.0129293
0.0385312
0.0546787
0.0140711
-0.0115704
0.0504753
0.0388566
0.0366858
0.0502646
-0.0125915
0.040173
0.0492491
0.0115335
0.0445725
0.0502272
0.0129726
0.0451518
0.0554102
0.0133987
0.0430083
0.0564383
0.0158704
0.0482807
0.0589311
0.0207295
0.0590761
0.0705255
0.0268307
0.0646461
0.0875671
-0.0330287
0.0613017
0.0974415
0.0368639
0.0516311
0.085156
0.0975089
0.0395792
0.0501125
0.033925
0.0862248
0.0910459
-0.0418523
-0.043737
0.0361854
0.0829267
0.0426338
0.0919863
-0.0760551
-0.0505518
-0.0345667
0.00618501
-0.0145584
-0.0614987
-0.00609759
0.0498735
-0.0103047
0.00830081
0.0489153
-0.00496374
0.021037
0.0246738
-0.0226004
-0.0383091
0.0445535
-0.0222831
-0.0412059
-0.0408365
-0.0191584
0.025792
-0.007998
-0.0220782
-0.00537142
-0.0159863
-0.00614396
-0.0131616
-0.0201674
-0.00157649
0.0080525
-0.026471
-0.00828019
-0.0151759
-0.0187314
-0.00947091
0.0014599
0.043573
0.0410691
-0.0142682
-0.00137945
0.037943
0.00904844
-0.017243
0.0193283
0.00379816
0
0
0
0
0
0
-0.156803
0
0
-0.0880308
0
-0.0609483
-0.0274191
-0.083359
-0.0999408
0
-2.70453e-05
-4.8502e-05
0
0
0
0
-0.000220886
0
0
0
0
0
0
0
0
5.46764e-09
-4.75888e-07
0
0
0
0
0
0
0
0
0
0
-1.31493e-05
0
0
0
0
4.19447e-05
0
0
-0.000172633
0
0
0
0
0
0
0
0
0
0
0
0
0
0
0
0
0
0
0
0
0
0
0
0
4.81645e-07
0
0
0
0
-0.0263133
-0.0499272
0.00151357
-0.00503249
-0.00705805
-0.0601986
-0.0369872
0.0055427
-0.0473174
-0.0425025
-0.0306902
-0.0183179
-0.0334911
0.00113272
-0.0259766
-0.0339132
-0.0191475
0.0163983
-0.0347966
-0.0155888
0.0256081
-0.027269
-0.0297424
0.0179747
-0.0122264
-0.030268
-0.018522
0.0133455
-0.0436347
-0.0197787
-0.0214484
-0.0261097
-0.00789759
-3.23348e-05
0
-8.59093e-06
6.30363e-05
-1.22591e-05
-1.04917e-06
0
0
0
0
0
0
0
0
0
0
0
0
0
0
0
0
0
0
0
0
0
-0.0221495
0
0.0201819
0.0316478
-0.00478075
-0.0122197
0.0194944
0.01453
0.0169707
0.0401075
0.0104216
-0.0109675
0.0596311
-0.0164733
0.0391076
0.0591446
0.0464749
0.0162599
0.048663
0.0511175
-0.0244449
0.0344232
0.0445248
-0.00613072
0.0309792
0.0284405
-0.00553535
0.0385525
0.0555808
0.00654488
-0.00338078
0.0143561
0.0213016
0.00526976
-0.0278815
0.00920547
-0.015303
0.036108
-0.0286726
0
0
0
0
0
0
0
0
0
0
2.69967e-07
0
0
0
0
0
0
0
0
-0.00755076
0
0
0
0
0
0
0
0
0
0
0.00365574
0
0.00282523
0
0
0
0
0
0
0
0
0
0
-0.00658292
0
-0.02847
-0.0127047
-0.0161188
-0.0294876
-0.0149317
0.0122287
-0.0289463
-0.0123017
-0.0110587
-0.0212232
-0.00515726
0.0121217
-0.0332942
-0.0102733
-0.0293113
0.0191386
-0.0196631
-0.00183522
-0.0136674
-0.018586
0.00315329
0.0181958
-0.030038
-0.00422004
-0.0223128
-0.034323
-0.00426345
0.0279639
-0.0393434
-0.00380599
-0.0344555
-0.0417366
-0.00112742
-0.041104
-0.0276639
-0.000538414
-0.0173014
-0.0304882
-0.0027182
0.0256124
-0.0171162
0.00256182
-0.0160133
-0.0137861
-0.000322021
0.0155561
-0.0131082
-0.00299698
-0.0130072
-0.0168962
-0.00329967
0.0141068
0.00894056
0.00789166
0.0559739
-0.0425541
0.035569
-0.0493133
0.0260508
0.0592855
0.049104
0.0423733
-0.0612863
0.0763153
-0.0589569
-0.0138409
0.0549503
0.077606
-0.0315964
0.0372505
0.0849114
-0.0428321
0.0723738
-0.0381872
0.0725579
-0.0436384
0.0371755
0.074473
-0.0396978
0.0797575
-0.0413685
0.0362218
-0.078151
0.078595
-0.0522114
-0.0493534
0.027975
0.0677225
-0.0518649
0.0269187
0.0803734
-0.0467607
0.0292538
-0.0794756
-0.036312
0.031893
0.0714569
-0.00541621
-0.0558495
-0.0515922
-0.00992085
-0.051937
-0.0405698
-0.0131023
-0.0534198
0.039105
-0.0563948
-0.0102905
-0.045116
-0.00092021
-0.0534168
0.0589779
-0.00423927
-0.0599682
0.0536409
-0.0587501
0.0042754
0.0619042
-0.0632205
0.00195039
0.0699747
-0.0721205
0.00555295
0.080273
-0.0741455
0.00740832
0.083214
-0.0676458
0.00767782
0.076408
-0.0594781
0.00870627
0.0706457
0.0192215
-0.0539483
0.0761088
0.0116685
-0.0577848
0.0722654
-0.00900039
-0.0530101
-0.0410091
-0.0434522
-0.00313768
-0.0497935
0.0402459
-0.0541322
-0.0118079
-0.038335
-0.00409762
-0.044954
0.0351328
-0.0038148
-0.0480821
-0.0459957
0.0386305
0.0463251
0.0933501
0.0487727
0.0249172
0.0852176
-0.0498961
0.0322481
0.0721547
0.0522626
0.0289142
0.0813899
0.0514253
0.0127081
0.0809955
0.0527736
0.00349583
0.0596577
0.0615158
0.0147965
0.060553
0.0666049
0.0763478
0.0174664
0.0817099
0.0706548
0.00444546
0.000866903
0.046917
0.0565779
0.0143682
-0.0346602
0.0517594
0.0549702
-0.0510698
0.0591973
0.0174507
-0.0492722
0.0584251
0.0175919
0.0378534
0.0509762
0.019583
0.0263365
0.0383558
0.0235337
0.0112479
0.0247039
0.0319364
0.0151214
-0.0164756
0.0424135
-0.0263751
-0.00155834
0.00698894
-0.0289657
-0.0351702
-0.030888
0.0219577
-0.0354604
-0.0124494
0.0170644
-0.0113254
-0.0141577
0.00973479
-0.00360442
0.0200951
-0.0201107
-0.00984795
-0.0182446
0.011936
-0.0111613
-0.0222039
-0.00496767
-0.00864561
-0.0127045
0.00783929
-0.00401263
0.000198353
-0.0178759
0.000793128
0.0127375
-0.014414
0.00413183
0.0172693
-0.0190634
0.0178913
0.0057202
0.0119522
0.0172269
0.00313096
0.00727458
0.0193948
0.0108244
-0.0135864
0.0158788
0.00874042
0.0092053
0.014819
0.0208797
0.00837395
0.0261753
0.0246879
0.00738635
0.0250237
0.0191698
-0.0103849
0.0341685
0.0368869
-0.012835
0.0432585
0.0502335
0.0155252
0.0402607
0.0607971
0.0154247
-0.0145831
0.0553792
0.0350585
0.0394896
0.0472788
-0.0161045
0.0362914
0.0495692
0.0138212
0.0379842
0.0483929
0.014397
0.0404268
0.0508386
0.0151666
0.0389324
0.0532237
-0.0168003
0.0358235
0.0550761
0.0207303
0.0426709
0.0576626
-0.0258506
0.0554908
0.0716355
-0.0328886
0.0620373
0.0911803
0.039043
0.0583656
0.10261
-0.043772
0.0480552
0.102158
-0.0466111
-0.0484983
0.0938757
-0.0448001
-0.0458319
0.047323
-0.00431049
-0.0746688
-0.0522058
0.0071259
-0.027967
-0.0849483
0.00834022
-0.013304
-0.0254884
0.0331434
-0.00804973
-0.0234143
-0.038278
0.0104415
-0.0324623
0.0404361
0.0438699
-0.0198304
-0.0433284
-0.024686
-0.000174497
0.0165577
-0.0189401
-0.00819319
0.0334991
-0.00851132
0.0203827
-0.0300336
-0.0310654
0.0181761
-0.0404854
-0.0208799
0.00874459
-0.0341309
-0.0225467
-0.00208238
0.0215103
0.00370699
0.02991
0.068574
-0.089024
0.0115213
0.0702804
-0.0179876
-0.0456915
0.0390633
-0.0480072
0
0
0
0
0
0
0
0
0
0
0
0
0.00156264
0
-0.0906062
0
0
0
0
0
0
0
0
0
0
0.00326068
0.0020732
0
0
0
0
0
0
0
0
0
0
0
0
0
0
0
0
0
0
0
-2.13131e-06
3.74221e-06
0
0
0
0
-0.000100226
8.67581e-05
0
0
0
0
0
0
0
0
0
0
0
0
0
0
0
0
0
0
0
0
0
0
0
0
0
0
0
7.56571e-06
0
-3.42908e-05
0
0
0
-5.89059e-06
0
1.32782e-05
0.0644565
0.0545935
-0.0782038
0.0112366
0.0938972
-0.0776419
0.0726613
0.0213716
0.0181748
-0.0137645
-0.0157082
0.0364746
-0.0518205
0.0377668
-0.0387744
-0.033096
-0.00437711
-0.0318088
0.0141865
0.0429075
-0.0406144
-0.0223017
-0.0282991
-0.0439388
-0.00826053
-0.0243592
-0.034408
-0.00287028
0.0345356
-0.0351189
-0.0254399
-0.00944664
-0.0371829
-0.0251381
0.00783103
-0.0202925
-0.0239319
1.16782e-06
0
0
0
0
0
0
0
0
0
0
0
0
0
0
0
0
0
0
0
0.0468581
0.0579803
-0.0121411
0.0375238
0
0
0
-0.00201343
0.0112098
0.0107441
0.0169557
0.0234052
0.0177436
0.0048756
-0.0182713
-0.0202265
0.0232189
-0.0076319
0.0104718
0.0130393
0.0210116
0.0472454
0.0462064
-0.000757084
0.0508775
0.0308551
-0.00797299
-0.0430986
-0.0268104
0.007275
0.0204676
0.0372896
0.035617
-0.011846
0.0143063
0.048097
0.0129923
0.0251689
0.0383042
-0.0143046
-0.0357491
0.0270974
0.0240975
-0.0835223
0.0016965
0
0
8.98226e-06
9.04362e-07
0
0
0
0
0
0
0
0
0
0
0
0
0
0
0
0
0
0
0
0
0
0
0
0
0
0
0
0
0
0
0
0
0
0
0
0
0
0
0
0
0
0
0
0
0
0
0
0
0
0
-0.0340877
-0.0380686
-0.0067698
-0.0251437
-0.0245922
-0.0130678
-0.0124098
-0.0207792
-0.013099
-0.0102758
-0.0192763
-0.00964327
-0.0105464
-0.0157196
0.00137712
0.0158469
-0.00736145
-0.0259385
0.0164594
-0.0137909
0.00438568
-0.0174617
-0.0134719
0.00272725
0.0169669
-0.0304317
-0.00590617
-0.0276846
-0.0338252
-0.0039059
-0.0302928
-0.0418066
-0.0027633
-0.0347331
-0.0491976
-0.00656074
0.0366859
-0.0265697
-0.00335111
-0.0144369
-0.0351195
-0.00700218
0.0223413
-0.0173792
-0.000793665
0.0136391
-0.0207649
-0.00750215
0.0184091
-0.0183548
-0.00645799
-0.0191289
-0.0189919
-0.00498296
-0.0176555
-0.0203432
0.0316669
0.0506591
-0.0218404
0.0347769
0.0760033
-0.0107325
0.0378594
-0.0755878
-0.0624327
0.034281
-0.0563354
-0.0397215
0.0329233
-0.0744158
-0.0443922
0.0310248
0.0761901
-0.0374494
0.0323013
-0.072359
-0.0165687
0.0353684
-0.0631304
-0.0506916
0.0218425
-0.0764695
-0.0409139
0.0246512
0.0714272
-0.0439707
0.0269832
-0.0740814
-0.00824859
-0.0594004
-0.05229
-0.0129725
-0.0557695
0.039834
-0.0141983
-0.0561929
-0.038602
-0.0587418
-0.0131466
0.0432987
-0.00799118
-0.0580889
0.0687492
0.0547308
-0.00652801
-0.0642607
0.0552787
0.00870942
-0.0684379
-0.0721658
-0.0153285
-0.0652618
0.0604744
-0.0756612
0.000353955
0.0774582
-0.0771898
0.0001179
0.078038
-0.0706989
0.00101144
0.0716674
-0.0624348
0.0020623
-0.0659734
-0.0609515
0.00468634
-0.0679059
0.0142041
-0.0553944
-0.0731372
0.00763099
-0.0594068
0.0703343
-0.0455238
-0.0195815
0.0334241
-0.00984181
-0.05211
0.0389268
-0.0159224
-0.0522104
0.0408619
-0.0538226
-0.0152303
0.0374297
-0.0140365
-0.0547331
-0.0401686
-0.00801751
-0.0540839
0.042116
0.0421621
0.0445627
0.0959738
-0.0531017
0.0329846
0.0927779
-0.0536584
0.0182047
0.0553846
0.0850915
0.0265489
0.073093
0.0593884
0.0261803
0.0849051
-0.0608703
0.000488557
0.0860079
0.0604246
-0.00739307
0.0645248
-0.0694419
0.0122134
0.0627374
0.0795229
0.00159917
0.0858992
-0.0809495
0.0289061
0.0865717
0.0139786
0.0617614
-0.00977363
0.0692328
0.0802278
0.0858426
0.00990714
-0.0052145
-0.045838
0.0474435
0.00752347
-0.0470517
-0.0472157
0.0491751
-0.0413715
0.0436876
0.0134184
-0.0377047
0.0418838
0.0242687
0.0259004
0.0408816
0.0253666
-0.0156108
0.0355295
0.0276928
0.0065515
0.0159648
0.0406949
-0.0330107
-0.0347452
0.0445894
0.0263961
-0.0122384
-0.00646291
-0.0359031
-0.0570893
-0.0355355
0.0308768
-0.00144352
-0.00986007
0.00857055
-7.64607e-05
-0.00364157
-0.0105332
-0.0143709
0.012148
-0.00270707
-0.0196949
-0.0117406
0.00696747
-0.0192784
-0.0189534
-0.00274151
-0.0130636
-0.0166823
0.00770784
-0.007473
-0.00729093
-0.00528125
-0.00130494
-0.00474122
0.00234395
0.00425261
-0.00173853
0.00461062
0.00786527
0.0052366
-0.0108952
0.00519341
-0.00546113
-0.00871041
0.0164023
0.0122745
0.0109251
0.0133326
0.0114494
-0.00657658
0.0192499
0.0217855
0.00733015
0.0323954
0.0277536
0.00976649
0.0309862
0.0230583
0.0101518
0.0378223
0.0427457
0.0149155
0.0456325
0.0548335
0.0156429
-0.0084864
0.0567498
0.0296594
0.0458434
0.0201951
0.0324801
0.0491799
0.0171238
0.0329552
0.0469445
0.0166897
0.0329029
0.0475465
-0.0171524
0.033936
0.0479452
0.017858
0.0336006
0.0509981
-0.0213401
0.0297623
0.055816
0.0260667
0.0391367
0.0580355
0.0322811
0.0545664
0.0749225
0.0390577
0.0610988
0.0957165
-0.0444052
0.0565026
0.105914
-0.0485156
-0.0518091
0.105418
-0.0613464
-0.0475754
-0.0335246
0.0205708
-0.0440917
-0.0903733
-0.0318947
-0.0666769
-0.081228
0.0391187
0.0175251
0.0693971
-0.101542
0.0154261
-0.0603988
-0.060438
0.00852204
-0.0436816
0.0548771
0.0319609
-0.0382897
0.0541556
0.0473339
-0.0254855
-0.0486316
-0.0650173
0.0246004
-0.00534325
-0.0111875
0.0216563
0.0795318
-0.0336622
0.0626082
-0.102281
-0.0613533
0.0204274
0.0432518
-0.110324
-0.0601451
0.105499
-0.0493547
-0.00468966
0.0284308
-0.178885
0.0151836
0.0110112
0.107743
0.230658
-0.037377
0.135653
0.263106
-0.122376
0.0513799
-0.154755
0
0
0
0
0
0
0
0
0
0
0.0036645
-0.00323985
-0.0680315
0
0.102926
0
0
0
0
0
0
0.00568552
0
-0.0020798
0
-0.00173143
0
0
0
0
4.44878e-06
0
-2.69738e-05
0
0
0
0
0
0
0
0
0
-5.87671e-06
-1.74787e-05
-1.6015e-05
0
-2.9972e-06
0
-5.58657e-05
-3.71956e-05
4.7539e-06
0
-9.14151e-05
0
0
0
0
6.78964e-06
0
-5.17798e-05
0
-7.66314e-06
-1.50436e-05
0
0
0
0
0
0
0
0
0
0
0
0
0
0
0
0
0
0
0
0
0
-3.46499e-06
0
5.34492e-06
0
0
0
-3.45356e-05
0
0
0
0
0
0
0
0
0.0746392
0.0449257
0.131961
0.0333161
0.0673811
0.0635968
0.0117159
0.0788629
0.102806
0.0737135
0.0219092
-0.0588138
0.134216
0.00553948
-0.011814
-0.0464967
0.0339477
0.00533016
-0.0257969
-0.0556488
-0.0447592
0.00980167
-0.0449599
-0.0455683
-0.0145638
0.0329152
-0.0236855
0.0222999
0.0380285
-0.0526979
-0.0278493
-0.0351252
-0.035481
0.00552853
-0.0311104
-0.0368516
-0.0306226
0.00862413
-0.0106605
-0.0315344
0
0
0
0
0
0
0
0
0
0
0
0.0459865
0.0537909
0.00502607
0.0369408
0
0
0
0
0
0
0.0322846
0.0118882
-0.0237321
0.0344095
0.0030817
-0.0296748
0.0401714
0.016724
9.15559e-05
-0.0110253
0.020506
-0.00973132
0.0117863
0.00619672
0.000929336
0.0129544
0.0112344
0.00186644
0.00344219
0.014674
-0.0286455
0.0387614
0.0495231
-0.00468405
0.0354025
0.0505988
0.00857976
0.0112527
-0.0614911
-0.0314653
0.0628319
0.0433724
-0.0155926
-0.000839131
0.0314038
-0.0103414
0.026856
0.0436731