/*--------------------------------*- C++ -*----------------------------------*\
  =========                 |
  \\      /  F ield         | OpenFOAM: The Open Source CFD Toolbox
   \\    /   O peration     | Website:  https://openfoam.org
    \\  /    A nd           | Version:  8
     \\/     M anipulation  |
\*---------------------------------------------------------------------------*/
FoamFile
{
    version     2.0;
    format      ascii;
    class       volScalarField;
    location    "17160";
    object      alpha;
}
// * * * * * * * * * * * * * * * * * * * * * * * * * * * * * * * * * * * * * //

dimensions      [0 0 -1 0 0 0 0];

internalField   nonuniform List<scalar> 
526318
(
0.00021409
7.54439e-05
0.000341315
0.000123114
0.000453168
0.000359437
0.000544417
0.00031379
0.000259161
0.000303077
0.000160762
0.000388001
0.000401326
1.96414e-05
0.000161958
4.57764e-05
0.00024487
0.000182877
0.000247801
0.000107618
0.000364549
0.000419529
0.000651706
0.000236485
0.000128261
0.00042646
0.000114868
0.000340026
8.24935e-05
4.83371e-05
0.000282798
0.000165753
0.000473369
0.000503745
0.000101382
0.000867034
0.00027715
0.000115472
0.000437883
0.000879243
0.000424724
0.000403657
0.000565034
0.000315138
0.000336409
0.000467192
0.00049999
0.000753905
0.000169636
0.00051493
0.000323599
0.000199706
0.000369896
0.000466479
0.000675203
0.000475036
0.000597282
0.000594385
0.000209352
5.21968e-05
0.000581076
0.000562804
0.000462986
0.000244816
0.000228332
0.000158712
0.000344175
0.00040716
0.000498102
0.000410898
0.000337298
0.000498503
0.000432325
0.000336112
0.000353644
0.000521046
0.000301377
0.000465306
0.000301537
0.000462189
0.000210168
0.000335079
0.000207701
0.000351348
0.000374237
0.000414946
0.00037794
0.00042036
0.000347441
0.000244031
0.00034007
0.000390774
0.000531489
0.000315562
0.000650163
0.000467132
0.00046906
0.000280871
0.000310493
0.000447348
0.00352521
0.00454063
0.00115403
0.000830112
0.00130255
0.00265717
0.000452988
0.000409175
0.000424431
0.000158396
3.49113e-05
0.000343633
0.000231947
7.93671e-05
4.54585e-05
0.000215494
0.000333011
0.000273469
0.000257825
0.000503357
0.000429533
0.000497356
0.000464476
0.000446889
0.000409686
0.000427665
0.000329127
0.00064229
0.000507884
0.000550951
0.00062339
0.000607406
0.000608945
0.000731945
0.000563879
0.00075639
0.000668634
0.000680597
0.000612388
0.000741677
0.000724787
0.000652853
0.0006812
0.00067288
0.000736984
0.00076
0.000717332
0.000768557
0.000765996
0.000757234
0.000724136
0.00075661
0.000740349
0.000734095
0.00070144
0.000823375
0.000676594
0.00077202
0.000863188
0.00101124
0.000822687
0.000849457
0.000682303
0.000288241
0.000174682
0.000338206
0.000440436
0.000486919
0.000475547
0.000503544
0.000241292
0.000390085
0.000430662
0.000438651
0.000300723
0.000413367
0.00043204
0.000512917
0.000562494
0.0003794
0.000377224
0.0003819
0.000462637
0.000387596
0.000347655
0.000613147
0.000576832
0.00052921
0.00053332
0.000553227
0.000631831
0.000549704
0.000629338
0.000602632
0.000574184
0.000634845
0.00060111
0.000612155
0.000648767
0.000705138
0.000583593
0.000723436
0.000731836
0.000746264
0.000586308
0.000762145
0.000900995
0.000800255
0.000717605
0.000816278
0.000331122
0.000698674
8.5677e-06
0.000249059
0.00108143
0.000231611
0.000233064
0.00015694
0.000526711
0.000638913
0.000101099
0.00028935
0.000318198
0.000421088
0.000292595
0.000722253
0.000242847
7.29633e-05
0.000286075
0.00104568
0.00256782
0.000704097
0.000621757
0.0302377
0.236094
0.0108045
0.0032469
0.00622283
0.0051982
0.000352641
0.000489048
0.000288593
0.00016915
0.000261049
0.000226769
0.00049425
0.000308572
0.000366885
0.000448883
0.00036188
0.000309704
0.000312432
0.000451358
0.000243348
0.00041378
0.000429688
0.000342438
0.000506625
0.000452374
0.000444404
0.00045686
0
0
0.00559041
0.0539777
0.00195748
0.00217072
0.00106001
0.000657281
0.000344027
0.000395342
0.000386612
0.000210176
8.99109e-05
0.000373569
0.00014258
0.000300994
0.000115965
0.000260854
0.000256689
0.000365924
0.000502926
0.000462682
0.000457228
0.000602005
0.000751963
0.000594213
0.000799104
0.000714482
0.000721285
0.000731693
0.000722679
0.000717147
0.00105648
0.000914064
0.000841745
0.000877843
0.00070289
0.000878653
0.000842131
0.000939092
0.000957298
0.00107415
0.000961101
0.00074439
0.0010037
0.000716382
0.000758736
0.000817209
0.000783829
0.000884507
0.000875959
0.000911215
0.00109924
0.00109289
0.00120547
0.000890594
0.000885741
0.000944932
0.000891253
0.000398031
0.000657029
0.000538044
0.000418844
0.000445895
0.0002898
0.000397076
0.000246038
0.00032159
0.000248097
0.000351379
0.000543816
0.000586479
0.000565242
0.000488778
0.000512764
0.000532256
0.000401197
0.000499125
0.000435823
0.000535448
0.000562326
0.000528684
0.000528028
0.000572186
0.000600802
0.000607157
0.000528367
0.000530447
0.000605819
0.000552929
0.000576417
0.00054802
0.000554045
0.000530508
0.000581315
0.000534672
0.000597177
0.000672426
0.000787249
0.000666344
0.000525501
0.000746463
0.000674312
0.000673144
0.000729822
0.000630983
0.000733097
0.00077944
0.000775604
0.000686424
0.000601591
0.000688954
0.000802983
0.000801125
0.000822788
0.000667238
0.000428063
0.000535802
0.000434014
0.000626311
0.00116966
0.000459033
0.000313054
0.000960849
0.000316798
0.000613134
0.000391833
0.000372368
0.00090274
0.000517664
0.000511327
5.87196e-05
0.000199867
0.000500557
0.000159297
0.000344743
0.000198765
0.000358864
0.00305633
0.00191563
0.00191288
0.00245947
0.00110245
0.00266318
0
0
0
0
0
0
0.0112551
0.00968374
0.00439953
0.0136113
0.000306384
0.000395023
0.000237389
9.88257e-05
0.00043011
0.000132411
0.000200273
0.000469247
0.000329976
0.000454167
0.000329909
0.000331142
0.000392834
0.000354524
0.000336929
0.000383173
0.000355946
0.000421618
0.000392055
0.000484598
0.00047041
0.000559667
0
0.0023082
0.000712601
0
0
0
0
0.000688502
0.00291191
0.00345769
0
0
0
0
0
0
0
0
0
0.024304
0.00146746
0.00267715
0.00153846
0.000658525
0.000325034
0.00124719
0.000306379
0.00033084
0.000232407
0.00028033
0.00023268
0.000273385
0.000227742
0.000338106
0.000217153
0.000164574
0.00030913
0.000397861
0.0005334
0.000605493
0.000678175
0.000536584
0.000631958
0.00079295
0.000734839
0.000712581
0.000690002
0.00068774
0.000751739
0.00078274
0.00102281
0.00101831
0.000965785
0.000950356
0.00106287
0.00103261
0.000968281
0.00102686
0.000828654
0.00106814
0.000946245
0.000813327
0.000843484
0.000886455
0.000894783
0.000944531
0.000843893
0.000810728
0.00101338
0.000782396
0.000904107
0.00090918
0.000859236
0.000884864
0.000739154
0.000689992
0.0007059
0.000870421
0.000821512
0.000894107
0.000888446
0.00100365
0.00115032
0.00104135
0.000374624
0.000674915
0.000386271
0.000352914
0.000567721
0.000286501
0.000299942
0.000296262
0.000200942
0.000442896
0.000284997
0.000459651
0.000517613
0.000482122
0.000545729
0.000640792
0.000502841
0.000586174
0.000652427
0.000714947
0.000549116
0.000566796
0.0005124
0.000577833
0.000572882
0.000525845
0.000575511
0.000531071
0.000606709
0.000521277
0.00058676
0.000549954
0.000539683
0.000558718
0.000573733
0.000509271
0.000506239
0.000527115
0.000475407
0.000597289
0.000721632
0.00049239
0.00058782
0.000588731
0.000703358
0.000680272
0.000580432
0.000714431
0.000597015
0.000580745
0.000664543
0.00056595
0.000620308
0.000661571
0.000779052
0.000686465
0.000638119
0.000583064
0.000631447
0.000517549
0.000554865
0.000334623
0.000485312
0.000383044
0.00142007
0.000105545
0.000695099
0.00069625
0.000128207
0.000246609
0.00031379
0.000555446
0.000718416
0.000549466
0.000201057
0.000443133
0.000258001
0.000227273
0.000275325
9.68109e-05
0.000284377
0.0144119
0.00245217
0.0025437
0.00267179
0.00108848
0.000883532
0
0
0
0
0
0
0.0163445
0
0.0135963
0.0184083
0
0
0
0
0
0
0
0
0
0
0.00530482
0
0
0.00113714
0.00158297
0.00869944
0
0
0
0
0
0
0
0
0
0
0
0
0
0
0.000470517
0.000279327
0.000257051
0.000189278
0.000335387
0.000396949
0.000317145
0.000347005
0.000444067
0.000221636
0.000408014
0.000212781
0.000378012
0.000337649
0.000338416
0.000325502
0.000355994
0.000397842
0.0004801
0.0004507
0.000572822
0.000464759
0
0
0
0
0
0
0
0
0
0
0
0
0
0
0
0
0
0
0
0
0
0
0
0
0
0
0.238618
3.71108
0.0546427
0.00412822
0.00123147
0.00170204
0.00115219
0.000937796
0.000404745
0.000752043
0.000368116
0.000336758
0.000167564
0.000280546
0.000165866
0.000182964
0.000313815
0.000103166
0.000274223
0.000162275
0.000317796
0.000301523
0.00264834
0
0
0
0
0
0
0
0
0
0
0
0
0
0
0
0
0.000502506
0.000563254
0.000487434
0.000662941
0.000761933
0.000613093
0.000740051
0.000755111
0.000812534
0.000807426
0.000879523
0.000835159
0.00109475
0.000970997
0.00107861
0.00103269
0.00125109
0.00112004
0.00125865
0.00117749
0.000931357
0.000925004
0.00100771
0.00102284
0.0008205
0.000811396
0.00088988
0.000881484
0.000921197
0.00109076
0.00110156
0.000995104
0.00051459
0.00064427
0.00052364
0.000578811
0.000609766
0.000713379
0.000543923
0.000413332
0.000414483
0.000442948
0.000994298
0.000838574
0.000871997
0.00065555
0.000892737
0.000979665
0.00102317
0.00095607
0.00125015
0.00105307
0.00051991
0.00166126
0.000242467
0.000463105
0.000751003
0.000280026
0.000426114
0.000265316
0.000243463
0.000425684
0.000508856
0.000559118
0.000612095
0.000622599
0.000636898
0.000512516
0.000725776
0.000613015
0.000760736
0.000719032
0.000780206
0.000650386
0.000604845
0.000683785
0.000621088
0.000513784
0.00051158
0.000606449
0.000577394
0.000505929
0.000553553
0.00055279
0.000521075
0.000547428
0.000510618
0.000470371
0.000495292
0.00051502
0.000471884
0.000524793
0.000489801
0.00058061
0.000479636
0.000464619
0.000588709
0.000681554
0.0004792
0.000612809
0.000569543
0.000628413
0.000570119
0.000661901
0.000526784
0.000610794
0.00058081
0.000607088
0.000494584
0.000558481
0.000469284
0.000566135
0.000443223
0.000382237
0.000331612
0.000267243
0.000333347
0.000272925
0.00024682
0.000369602
0.00021994
0.000236945
0.000144739
0.00016924
0.000161953
0.000158755
0.000120989
0.000176287
0.000128939
0.000152887
0.000179214
0.000139931
0.000160075
0.000200038
0.000195609
0.000184777
0.000163123
0.000210621
0.000183236
0.000199063
0.000214187
0.000213589
0.000186527
0.000214788
0.000194865
0.000209339
0.000202325
0.000187443
0.000191573
0.000198728
0.000199259
0.000179391
0.000192598
0.000492359
0.000517388
0.000315547
0.000732483
0.000117435
0.000541764
0.000801437
0.000731882
0.000234763
0.00115732
0.000716766
0.00016938
0.000555432
0.000642671
0.000512547
0.00075454
0.000290524
0.000297253
0.000687223
0.00052422
0.000741119
0.000649159
0.000406804
0.00915829
0.0218983
0.000969982
0.0118913
0.00244041
0.00186132
0
0
0
0
0
0.00536557
0
0.0669728
0
0.162178
0
0
0
0
0.00876989
0
0
0
0
0
0
0
0
0
0
0
0
0
0
0
0
0
0
0
0
0
0
0
0.0345331
0
0.092758
0.0918872
0
0
0.0145228
0.116401
0
0
0
0
0
0
0
0
0
0
0
0
0
0
0
0
0
0
0
0
0.000170723
0.000385144
0.00041966
0.000337697
0.000399396
0.00034907
0.000374292
0.000272094
0.000286063
0.000427611
0.000302447
0.000250629
0.000299599
0.000279814
0.000393491
0.000355748
0.000445897
0.000353831
0.000408284
0.000346389
0.000274175
0.000354107
0
0
0.00416107
0.00294582
0
0
0
0
0.00702866
0
0
0
0
0
0
0
0
0
0
0
0.0319379
0
0.00808547
0.0137615
0.00374938
0.00783974
0.0017531
0.00154451
0.000885293
0.00118712
0.000413255
0.000339497
6.40908e-05
0.000337546
0.000133471
0.000372169
9.3209e-05
0.000123615
0.000269625
0.000143148
0.000272421
0.000194604
0.000124563
0.000225575
0.00333669
0
0
0
0
7.77172e-05
0
0
3.54783e-05
0
0
0
0
0
0
0
0
0
0
0
0
0
0
0
0.537976
4.91801
0.000525962
0.000415613
0.000675454
0.00050179
0.000771216
0.000693127
0.000799871
0.000813251
0.000769572
0.000767179
0.000782494
0.000757304
0.00112776
0.0012014
0.00130927
0.00119208
0.00113166
0.00118157
0.00117375
0.00111969
0.00109051
0.00105199
0.00105771
0.00112511
0.000998391
0.000914923
0.0011416
0.00126069
0.00116479
0.00104845
0.000971196
0.000921551
0.000365372
0.000435251
0.000546623
0.000680909
0.000659843
0.000693645
0.000449606
0.000550217
0.000242313
0.000201297
0.000271558
0.000361334
0.000204332
0.000154838
0.000196813
0.000211029
0.000230436
0.000180541
0.000237377
0.000210039
0.000216544
0.000219563
0.000208585
0.000196616
0.000171817
0.000188278
0.000172016
0.000165207
0.000182298
0.00020519
0.000843469
0.00107858
0.000816848
0.000710674
0.000983182
0.000941119
0.000998281
0.000902316
0.00117668
0.00105422
0.00111198
0.000811458
0.000363076
0.000124754
0.00021216
0.00020003
0.000326781
8.73116e-05
0.000382211
0.000597738
0.000778066
0.000586929
0.000555564
0.000789579
0.000991331
0.000738831
0.00121536
0.000954327
0.000753687
0.00073309
0.000939042
0.000742706
0.000619452
0.000757472
0.000563965
0.000723981
0.000672401
0.000509642
0.00049763
0.000556572
0.000459421
0.000510516
0.000505905
0.000440898
0.000458056
0.000451286
0.000478921
0.000431297
0.000435808
0.000483354
0.000389915
0.000492506
0.000458938
0.00038572
0.000614453
0.000486451
0.000426076
0.000523704
0.000463903
0.000540157
0.000567212
0.00058311
0.000576378
0.000494775
0.000496255
0.00047203
0.000488613
0.000414941
0.000369833
0.000428797
0.000231882
0.00029801
0.000180466
0.000172541
0.000246296
0.00015879
0.000115944
0.000121783
0.000118551
0.000127789
0.000140122
0.000156921
0.000163027
0.000186704
0.000174389
0.000189333
0.000174055
0.000184163
0.000167116
0.000170847
0.000138149
0.000158862
0.000172671
0.000170893
0.000157531
0.000175598
0.00016337
0.000156916
0.000136107
0.000141241
0.00017521
0.000153916
0.000158932
0.000360093
0.000702682
0.000151431
0.00026192
0.000945538
0.0004538
0.000426772
0.000413821
0.000182021
0.000451768
0.000656864
0.00104973
0.000583124
0.00041363
0.000972262
0.000439299
0.000888325
0.00025706
4.04904e-05
0.000940659
0.000456261
0.000742699
0.000791143
0.000910484
0.000641463
0
0.11086
0.0247747
0.00519896
0.00514144
0.00437293
0
0
0
0.00629689
0
0
0
0
0
0
0
0.012297
0
0
0
0
0
0
0
0
8.68978e-05
0
0
0
0
0
0
0
0
0
0
0
0
0
0
0
0
0
0
0
0
0
0
0
0
0
0
0
0
0
0
0
0
0
0.000230777
0.00013917
0.000375922
0.000401945
0.0004732
0.000150508
0.000239539
0.000313586
0.000267224
0.000224051
0.000327153
0.000347801
0.000153366
0.000246117
0.000294244
0.000298613
0.000406627
0.000210929
0.000244571
0.000255838
0.000311213
0.0001856
0.00267441
0
0.00036968
0
0
0
0
0
0
0
0
0
0
0
0
0
0
0
0
0
0
0.0270452
0.00702328
0.0212112
0.00171834
0.0025251
0.00126918
0.00161111
0.000837761
0.00116535
0.000526324
0.000550107
0.0003619
0.000244831
0.000334057
0.000263271
0.000230579
0.000286299
0.00024987
0.000251848
0.000265034
0.000248451
0.000273569
0.000167075
0
0
0
0
0
0
0
0
0
0
0
0
0
0
0
0
0
0
0
0
0
0
0.495625
0
0
0
0
0
0
0
0
0.000546579
0.000415373
0.000499366
0.000606941
0.000681423
0.000563399
0.000566881
0.000679989
0.000252973
0.000247431
0.00037698
0.000760439
0.000657268
0.000934053
0.00101118
0.00118695
0.00121528
0.00134737
0.00121709
0.00110427
0.00125063
0.0010341
0.0012361
0.00103887
0.00103947
0.00126332
0.001163
0.00119197
0.00122072
0.00106963
0.00116149
0.000937488
0.000885104
0.00109301
0.00113874
0.000131976
0.000142287
0.000157299
0.000152998
0.000134627
0.000143153
0.000151459
0.00015809
0.000134624
0.0001125
6.58979e-05
0.00014699
0.000112803
0.00012819
0.000147182
0.000168656
0.000151144
0.000134035
0.000150924
0.000162635
0.000150661
0.000135305
0.000146767
0.000142812
0.000148472
0.000135799
0.000144831
0.000114935
0.000136954
0.000179092
0.000168381
0.000170862
0.000180692
0.000184619
0.000164947
0.000385489
0.000485159
0.000563843
0.000664687
0.00076069
0.000669043
0.000535883
0.000532207
0.000224381
0.00025819
0.000398079
0.000297206
0.000148204
0.000221495
0.000141841
0.000204971
0.000198342
0.000227024
0.000223229
0.000220261
0.0002199
0.000204379
0.000211672
0.000203215
0.000188122
0.000175602
0.000212518
0.000198327
0.00080612
0.00102125
0.00103303
0.00126518
0.000931579
0.000795194
0.000787439
0.000810966
0.000791054
0.000710706
0.00117022
0.000128998
0.000115522
0.000127862
0.000132374
0.000120551
0.000124409
0.000136848
0.000125778
0.000139951
0.000132826
0.000140337
0.000134558
0.000118053
0.000125097
0.000111492
0.000117799
0.000111153
0.000102787
0.000214976
0.000552818
0.000619608
0.0001538
0.000446554
0.00041351
0.000240745
0.000550006
0.000713302
0.000265501
0.000714052
0.000262369
0.00100569
0.000585566
0.00162494
0.00155123
0.00117614
0.00146216
0.000747905
0.000664548
0.00109507
0.000615859
0.000757069
0.000667005
0.00058325
0.000796632
0.000512414
0.000591299
0.000489615
0.000518647
0.000457199
0.00045625
0.000380221
0.000415589
0.000431592
0.000338498
0.000456211
0.000450342
0.000433459
0.000417403
0.000386623
0.000486909
0.000326394
0.000427494
0.000472376
0.000402429
0.000393724
0.000471041
0.000394823
0.000472302
0.000430253
0.000456966
0.000417656
0.000382491
0.000415252
0.000373015
0.000366989
0.000411919
0.000179968
0.000317546
0.000167377
0.000211348
0.000270812
0.000204016
0.000135043
0.000130357
0.000105996
0.00012293
0.000118023
0.000133386
0.000152172
0.000136584
0.000158826
0.000170417
0.000175003
0.000165463
0.000166532
0.000153123
0.000144162
0.000160599
0.000146495
0.000164545
0.000136484
9.68889e-05
0.000138676
0.000758611
0.000109806
0.000772178
9.38326e-05
0.00121634
0.00027341
0.00105872
0.000364895
0.000657953
0.000224195
0.000865099
0.000502923
0.000937914
0.000760672
0.00102646
0.000434774
0.00151577
0.00420965
0.00157716
0.000541817
0.000602195
0.0016405
0.0020257
0.00456634
0.00649786
0.040717
0.0986038
1.82615
0.000272292
0
0.0115417
0.00867937
0.00161356
0.00269481
0
0
0
0
0
0
0
0
0.00655483
0
0
0
0
0
0
0
0
0.206433
0
0
0
0
0
0
0
0
0
0
0
0
0.00222991
0
0
0
0
0.0133635
0
0
0
0
0
0
0
0
0
0
0
0
0
0
0
0
0
0
0
0.00215929
0
0
0
0
0.00239182
0.000100148
0.000189915
9.98272e-05
0.00011153
9.87573e-05
0.000125461
0.000222403
0.000294127
0.000200391
0.000465359
0.000321679
0.000223728
0.000208194
0.00038873
0.000269802
0.000195308
0.00020183
0.000251507
9.20559e-05
0.000167156
0.000171354
0.000132479
0.000112367
0.000159256
0.000136258
0
0
0
0
0
0
0
0
0
0
0
0
0
0.00158731
0.0012666
0.00137118
0
0
0
0
0
0
0.0119147
0.0106975
0.0031745
0.00192035
0.00094752
0.000882657
0.000550191
0.000447786
0.000326986
0.000429555
0.000200711
0.000367212
0.000125421
0.000384887
7.80511e-05
0.000305989
0.000333938
0.000156269
6.67007e-05
0.000183881
0.00038988
0
0.00100111
0
0
0
0
0
0
0
0
0
0
0
0
0
0
0
0
0
0
0
0
0
0
0
0
0
0
0
0
0
0
0
0
0
0
0
0.000193728
8.30074e-05
0.000109119
0.000406706
0.000306244
0.000465252
0.000343236
0.000625105
0.00045697
0.000485556
0.000622555
0.000114803
0.000275362
0.000819604
0.000791747
0.000993193
0.000872929
0.00133908
0.00150039
0.00134813
0.00163574
0.00100472
0.00138054
0.00115985
0.000834626
0.00149177
0.00164812
0.00170588
0.00126043
0.00101707
0.00120222
0.00101418
0.00116022
0.00114401
0.00120691
0.00189532
0.00183035
0.000138424
0.000134371
0.000121199
0.00013096
0.000155948
0.00011378
0.000204
0.00024671
0.000162555
0.000171857
0.000165526
0.000150406
0.000142078
0.000152896
0.000115966
0.000125594
0.000177607
0.000188445
0.000192838
0.000184923
0.000177306
0.000183173
0.000440947
0.000540925
0.000632967
0.000575634
0.000712008
0.000810474
0.000553305
0.000564643
0.000240488
0.00015854
0.000320677
0.000401193
0.000253193
0.00016927
0.000268824
0.000277942
0.000189797
0.000182258
0.000200209
0.000210333
0.000214653
0.000222437
0.000226155
0.000225203
0.000223004
0.000222463
0.000219434
0.000202515
0.000198717
0.00021565
0.000196713
0.00115713
0.00104611
0.000966657
0.000790228
0.00120368
0.000971004
0.000790974
0.000833233
0.000836306
0.00087701
0.000928299
0.000727386
0.000117517
0.000127034
7.76918e-05
0.000119667
0.000118047
0.000117243
0.00013014
0.000122114
0.000133714
0.000138081
0.000124422
0.000125704
0.000134051
0.000117334
0.000125003
0.00012435
0.000112652
0.000126736
0.000122903
0.000120345
0.00012145
0.000126646
0.000129282
0.000129664
0.000120826
0.000160741
0.00099694
0.000431644
0.000644609
0.000237798
0.000557358
0.000349561
0.000867026
0.00092783
9.71256e-05
0.000310093
0.000743817
0.00149895
0.00107794
0.00186074
0.00159624
0.00117043
0.00105536
0.000967289
0.000829235
0.00109318
0.000577124
0.000631413
0.000903838
0.000548318
0.000534456
0.000632545
0.000535734
0.000446112
0.000441846
0.00038175
0.000365355
0.000321299
0.000403471
0.000456445
0.000414769
0.00039976
0.000395078
0.000426701
0.000333291
0.000477758
0.000361051
0.000496465
0.000410347
0.000364677
0.00045693
0.000437332
0.000331453
0.00035993
0.000417691
0.000302951
0.000320847
0.000295847
0.000302697
0.000274823
0.000339916
0.00027584
0.000238279
0.000146505
0.000324188
0.000284054
0.000128551
0.00013441
0.000102603
0.00011158
0.000118922
9.97349e-05
0.000106614
0.000127223
0.00014474
0.000127591
0.000138069
0.000150806
0.000131308
0.000145844
0.00013464
0.000156098
0.000133314
0.000133277
0.000141926
9.85298e-05
0.000149439
0.0628985
0.00168051
0.0350517
0.00405022
0.000648467
0.00033187
0.00127243
0.000500857
0.00130454
0.000317206
0.00185298
0.0019026
0.00152842
0.00151395
0.00104404
0.00323002
0.0025288
0
0
0.00570942
0.0167385
0.00423269
0.086539
0
0
0
0
0
0.00512675
0.00531827
0
7.34556
0
0.178515
0
0
0
0
0
0
0
0
0.279415
0
0
0
0
0
0
0
0
0.20293
0
0
0
0
0.00337943
0
0
0
0
0
0
0
0.00868555
0.0105786
0
0
0.00514384
0.0029382
0
0
0
0
0.00569236
0
0.00748058
0
0
0
0
0
0
0
0
0
0
0
0
0
0
0
0
0
0.00371416
0
0
0
0
0
0
0
0
9.79723e-05
8.34966e-05
0.00014339
3.50482e-05
0.000114736
0.000102652
0.000137194
0.000157844
0.000132358
0.00011333
0.000266594
0.000161868
0.000268504
0.000419364
0.000297139
0.000225202
0.000234693
0.000171521
0.000276282
0.0002454
0.000156277
0.00020022
0.000127595
0.000123458
0.000132171
7.76305e-05
0.00013124
0
0
0
0
0
0
0
0.00134266
0.000922472
0.00124934
0
0
0
0
0.00139334
0.00241295
0
0
0
0
0.0100291
0.300588
0.00346362
0.00995027
0.00296696
0.000249829
0.000309887
0.000207803
0.000696456
0.000474287
0.000459049
0.000307287
0.000311836
0.000116136
0.000245271
0.000393654
0.000374553
0.000152437
0.00011634
0.000236708
7.33751e-05
0
0
0.000946265
0
0
0
0
0.000223911
0
0
0
0
0
0
0
0.0087422
0
0.0040774
0.0067001
0
0
0
0
0
0
0
0
0
0
0
0.0106007
0
0
0
0
0
0
0
0
0
0
0
0
0
0.00337881
9.62412e-05
0.000168645
8.74306e-05
0.000225923
0.000131053
0.000331546
0.000154973
0.000293033
0.0003562
0.000384591
0.000255593
0.000533329
0.000375249
0.000116024
0.000291597
0.000790142
0.00068743
0.000761587
0.00110201
0.00140001
0.00153828
0.00169802
0.0012222
0.000875672
0.00125018
0.000835323
0.00113938
0.00151634
0.00209414
0.00148902
0.00113611
0.00133745
0.00100387
0.00138974
0.00140405
0.00162801
0.00158254
0.00202933
0.00201594
0.000151433
0.000132298
0.000199103
0.000255458
7.29506e-05
0.000117606
0.000104485
0.000320329
5.90506e-05
0.000137402
0.000323721
0.000170197
0.000187183
0.000139557
0.000181168
0.000171386
0.000167094
0.000153502
0.000157713
0.000126136
0.000153015
0.000127778
0.000198084
0.000193758
0.000190501
0.00019854
0.000182578
0.000181426
0.000451712
0.00055571
0.000628613
0.00059982
0.000753802
0.000698228
0.000592187
0.000594648
0.000304235
0.000199225
0.000300943
0.000426011
0.000199325
0.000155649
0.00015538
0.000245698
0.000205257
0.000172352
0.00023653
0.000213299
0.000226402
0.000239579
0.000243931
0.000236489
0.000241212
0.000252826
0.000206655
0.000189239
0.000225105
0.000239466
0.00106536
0.00104223
0.000881728
0.000813674
0.000878429
0.00099206
0.000783872
0.000806596
0.000832804
0.000904947
0.000770472
0.000957308
0.000122268
5.89127e-05
0.000117799
0.000110178
0.000117462
9.85032e-05
0.000103248
0.000112977
0.000119252
0.000136478
0.000120053
0.000123221
0.000134247
0.000125648
0.000120742
0.000122704
0.000129498
0.000123251
0.000133825
0.00014052
0.000143663
0.000120523
0.000111287
0.000141355
0.000168569
0.00436114
0.000701761
0.00192582
0.000122557
0.000784929
0.000974853
0.0017382
0.00123703
0.00094788
0.000907282
0.00221961
0.00148878
0.00267516
0.00369626
0.00186911
0.00150507
0.000976665
0.00131811
0.000825638
0.00106035
0.00107691
0.000701709
0.000597469
0.000682912
0.000473702
0.000448956
0.000634374
0.000591606
0.000395812
0.000374642
0.000341716
0.000294555
0.000448587
0.000347535
0.000395063
0.00035324
0.000337069
0.00036336
0.000401859
0.00032713
0.000399659
0.000315028
0.000372315
0.000423982
0.000422048
0.000339787
0.00026527
0.000359239
0.000294029
0.000307335
0.000236948
0.000236151
0.000222247
0.000210775
0.000178443
0.000201508
0.000218433
0.00010783
0.00018108
9.64425e-05
0.000109657
9.21965e-05
9.3836e-05
0.000105216
9.88256e-05
0.000113123
0.000106579
0.000121764
0.000130617
0.000117603
0.00011508
0.000128423
0.000110314
0.000128263
9.93541e-05
0.00011604
0.000156553
0.000118245
9.86595e-05
0
0
0.117154
0
0.106003
0.000491412
0.0903819
0.000496846
0.0021655
0.0019068
0.00432392
0.00604933
0.00294161
0.00382206
0.00266665
0.00181122
0.00594325
0.00281358
0.00800977
0.240312
0
0
0
0
0
8.9739e-05
8.23822e-05
0
0
0
0
0
0
0
0
0.249721
0
0
0
0
0
0
0.568037
0
0
0
0
0
0
0
0
0
0
0
0
0
0
0
0
0
0
0
0
0
0
0
0
0
0
0
0
0
0
0
0
0
0
0
0
0
0
0
0
0
0
0
0
0
0
0
0
0
0
0
0
0
0
0
0
0
0
0
0
0
0
0
0
0
0
0
0
0
8.13876e-05
0
0
0
0
0.000136276
0.000176006
0.000149884
0.000120754
0.000155695
0.000163718
0.000136374
7.11008e-05
8.2557e-05
0.000104448
5.87591e-05
0.000108149
0.000152935
0.000156774
0.000215422
0.000284345
0.000107015
0.000172734
0.000238282
0.000212519
0.000222741
0.000259092
0.000200265
0.000446455
0.000201991
0.000251492
0.000239955
0.000156686
0.000221219
0
0
0
0
0.00120029
0.00070848
0.00127028
0
0
0.00125031
0.000999321
0
0
0
0
0.00437475
0.00190674
0.00188656
0.00592023
0
0
0.00888452
0.0654214
0.00475938
0.000136654
0.000147764
0.000321092
0.000278382
0.000235406
0.000719239
0.000429715
0.000459762
0.000329031
0.000397566
0.000417054
0.000237511
0.000361158
0.000217596
0.000411954
0.000419408
0
0.0033354
0
0
0
0
0
8.54435e-05
0
0
0.000215598
0
0
0
0.00090614
0
0
0
0
0
0
0
0
0
0
0
0
0
0
0
0
0
0
0
0
0
0.00391986
0
0.009566
0
0
0
0
0
0
0
0
0
0
0
0
0
0
0
0
0
0
0.000220846
0.000131823
0.000300192
0.000215229
1.5157e-05
0.000292201
0.00013792
0.000211382
0.000213671
0.000114905
0.000183224
0.000193477
5.61149e-05
0.000434871
0.000525641
0.000163349
0.000314193
0.00074214
0.000812717
0.000889647
0.000767148
0.00114056
0.00101088
0.00138584
0.00147697
0.00170834
0.00119778
0.00203502
0.00139929
0.0018778
0.00221265
0.00174459
0.00211814
0.00123258
0.00100021
0.00116834
0.0017472
0.00170034
0.00219744
0.0026043
0.00300387
0.000159771
7.23014e-05
0.000244493
0.000186063
0.00024598
0.000380532
0.000312306
0.000460518
0.000264338
0.000178621
0.000289292
9.72386e-05
2.99473e-05
0.000172278
0.00017246
0.00015906
0.000156541
0.000138542
0.000130538
0.000108169
0.000119423
0.000198811
0.000201971
0.000196132
0.000190412
0.00017925
0.000181096
0.000476237
0.000571188
0.000598719
0.000630614
0.000651352
0.000678292
0.000609224
0.000610427
0.000321263
0.000248197
0.000444501
0.000355505
0.000176172
0.000165121
0.000268332
0.000200181
0.000171837
0.000230204
0.000256703
0.000235386
0.000256445
0.000258762
0.000242177
0.000229745
0.000220391
0.000203441
0.000206019
0.000204774
0.000212605
0.00021456
0.000984345
0.000889119
0.000811842
0.000743336
0.000750962
0.000735111
0.000774102
0.000725927
0.00091033
0.000791794
0.000771174
0.000883831
0.00132383
0.00117898
0.000941532
0.00012313
0.000114101
0.000100236
0.000102412
6.8457e-05
0.000104074
7.78988e-05
0.000120485
0.000110586
0.000111797
0.000118147
0.000134169
0.000144535
0.000122038
0.000121092
0.000124079
0.000134932
0.000139305
0.000147148
0.00015809
0.000168508
0.000155036
0.000115563
0.000122168
0.000193973
0.000175279
0.0267744
0.000862235
0.0317956
0.00133578
0.000582452
0.00112583
0.00182361
0.00102906
0.000852881
0.000970194
0.00316302
0.00700927
0.00478497
0.00394141
0.00145254
0.00284385
0.00208942
0.00128153
0.000645713
0.000584991
0.00117778
0.000722708
0.000479176
0.000326083
0.000473088
0.000504583
0.000385631
0.000495709
0.000342545
0.000298862
0.000290499
0.000347838
0.000398512
0.000345233
0.000343864
0.000352921
0.000316676
0.000358881
0.00023716
0.000279025
0.000298478
0.000269102
0.000288272
0.00032554
0.000332953
0.00026294
0.000235274
0.000314424
0.000195149
0.000218653
0.00016177
0.000198279
0.000152416
0.000149184
0.000123506
0.000157092
0.000145275
0.000159516
0.000125652
8.16003e-05
8.72893e-05
8.78885e-05
9.57699e-05
0.000102284
0.000109721
0.000103907
0.000121043
0.000110664
0.000110081
0.000119867
0.000101176
0.000116424
9.65051e-05
0.000110364
0.00012808
9.67437e-05
0.000113423
0.000100425
0
0
0
0
0
0
0
0
0
0.00644084
0.0037474
0
0
0.00463721
0.00577985
0.00183571
0.0125015
0.0107412
0.00621106
0.0311019
0.0801322
0
0
0
0
0
0
0
0
0
0
0
0
0
0
0.191626
0
0
0
0.117355
0
0
0
0
0
0
0
0
0
0
0
0
0
0
0
0
0
0
0.764467
0
0
0
0
0
0.00205323
0.00232224
0.00418398
0
0
0
0
0
0
0
0
0
0
0
0
0
0
0
0
0
0
0
0
0
0
0
0
0
0
0
0
0
0
0
0
0
0
0
0
0
0
0
0
0
0.00587409
0
0.0028323
0
0.0104503
0
0
0
0.000170846
0.000190954
0.000187541
0.000155505
0.00018654
9.80308e-05
0.000155171
2.69706e-05
6.04114e-05
0.000111112
0.00012749
0.000110339
8.89263e-05
0.000114186
0.000200282
9.27148e-05
0.000106713
0.000155095
3.45242e-05
0.000219259
6.68423e-05
0.000189263
0.000412227
0.000163955
0.000152123
0.000653399
0.000318338
0.000278178
0.000451275
0.000326567
0.000263706
0.000361786
0.000305037
0
0
0.00109864
0.000740213
0.00112744
0
0
0.000763209
0.00142714
0
0
0.000931925
0.0015898
0
0
0
0
0.00663634
0.00592
0
0.0194428
0
1.31734
0.0342747
0.000286974
0.000148914
0.000479766
0.000204936
0.000545048
0.00076786
0.00062734
0.000374266
0.000383044
0.000138847
0.000490463
0.000167414
0.000376024
0
0
0
0
0
0
0.0136748
0.00713154
0
0
0
0
0
0
0
0
0
0.00114836
0
0
0
0
0
0
0
0.00298547
0
0
0
0
0
0
0
0
0
0
0
0
0
0
0
0
0
0
0
0
0
0
0
0.145159
0
4.46997
5.07114
0
0
0
0
0
0
0
0
0
0
0.000449383
0.000398125
0.000416607
0.000259561
0.000444949
0.000414445
0.000137874
0.000238878
0.000377188
0.00027039
0.000241711
0.000353684
0.000171621
0.000286513
0.000363155
0.000458091
0.000603415
0.00043779
0.000585238
0.000951555
0.000477253
0.00088924
0.000847467
0.00130822
0.00130484
0.00191841
0.00276363
0.00195101
0.00129244
0.00111122
0.0013435
0.00263577
0.00361506
0.00280807
0.0024048
0.00259473
0.00134057
0.0022583