/*--------------------------------*- C++ -*----------------------------------*\
  =========                 |
  \\      /  F ield         | OpenFOAM: The Open Source CFD Toolbox
   \\    /   O peration     | Website:  https://openfoam.org
    \\  /    A nd           | Version:  8
     \\/     M anipulation  |
\*---------------------------------------------------------------------------*/
FoamFile
{
    version     2.0;
    format      ascii;
    class       volScalarField;
    location    "17160";
    object      H;
}
// * * * * * * * * * * * * * * * * * * * * * * * * * * * * * * * * * * * * * //

dimensions      [0 1 0 0 0 0 0];

internalField   nonuniform List<scalar> 
526318
(
1.49162
1.42105
1.4884
1.42171
1.48053
1.44746
1.44458
1.37938
1.44123
1.3036
1.29781
1.39733
1.35109
1.38721
1.35628
1.37475
1.35408
1.55588
1.44584
1.5067
1.48904
1.45208
1.19946
1.47154
1.32677
1.19784
1.47988
1.47575
1.48588
1.49226
1.53806
1.56445
1.55239
1.42311
1.43278
1.44555
1.41477
1.49763
1.41843
1.37904
1.40982
1.43446
1.06791
1.13174
1.03318
1.06054
1.06062
1.15929
1.36378
1.23214
1.33144
1.36517
1.2863
1.25613
0.73593
1.00312
0.975108
0.803654
1.50292
1.52719
1.54961
1.48584
1.43725
1.58198
1.55735
1.533
1.50273
1.51487
1.41455
1.42276
1.51336
1.29275
1.3469
1.24999
1.19638
1.18422
1.29397
1.27677
1.20792
1.23291
1.33057
1.32092
1.2791
1.23338
1.24759
1.32136
1.32317
1.30394
1.25419
1.33255
1.23513
1.17884
1.17285
1.10855
1.10006
1.10883
1.10301
1.10022
1.09975
1.10076
0.542773
0.475714
0.578941
0.614123
0.644799
0.443217
0.992406
0.832127
1.13387
1.09491
1.13307
1.267
1.48817
1.36423
1.47457
1.49931
1.55201
1.54275
1.58151
1.09633
1.10088
1.09906
1.10113
1.05805
1.09302
1.00987
1.05151
0.96028
1.01104
0.957867
0.960214
0.950061
0.923803
0.91611
0.942249
0.884561
0.93978
0.888236
0.905856
0.852377
0.857863
0.878457
0.909308
0.895286
0.851938
0.852227
0.868045
0.857447
0.853406
0.859813
0.872891
0.860916
0.864493
0.863365
0.864738
0.829256
0.863479
0.861153
0.830196
0.785393
0.860317
0.812057
0.869234
1.37096
1.45763
1.39534
1.36606
1.19388
1.25349
1.19239
1.19923
1.18021
1.19526
1.21504
1.19733
1.12942
1.09843
1.06322
1.00338
1.06402
1.10452
1.10444
1.10736
0.992536
1.04471
0.931828
0.939878
0.948713
0.940977
0.940107
0.946419
0.931252
0.93662
0.93176
0.919502
0.903202
0.926452
0.92025
0.891541
0.869747
0.898934
0.878772
0.872368
0.890914
0.881426
0.885137
0.845963
0.866931
0.895459
0.896161
1.35437
1.38348
1.3981
1.36384
1.35081
1.36804
1.35306
1.20175
1.28646
1.00057
1.00059
0.988825
1.11681
1.23471
1.12376
1.13798
1.17634
1.10577
1.09501
0.589866
0.392576
0.737443
0.921039
0.179581
0.0393167
0.339935
0.438432
0.398442
0.38649
1.55722
1.54756
1.58661
1.58382
1.54231
1.53013
1.44662
1.53586
1.3901
1.32302
1.32537
1.32342
1.33244
1.32593
1.31293
1.30986
1.23045
1.29638
1.11076
1.17147
1.09634
1.10766
0.000847688
0.000119724
0.289551
0.0651871
0.562093
0.522943
0.577124
0.712435
1.09899
0.918259
1.15342
1.15148
1.26842
1.37031
1.49202
1.49535
1.52379
1.50445
1.57714
1.60297
1.0761
1.07989
1.03585
1.0083
0.905619
0.942313
0.867965
0.877985
0.86858
0.862289
0.851506
0.858222
0.782602
0.807289
0.843596
0.879617
0.934343
0.901076
0.865309
0.860346
0.797212
0.786204
0.836251
0.892044
0.815541
0.853333
0.852531
0.822523
0.819964
0.786898
0.785017
0.743774
0.745215
0.74857
0.735975
0.861012
0.898082
0.860092
0.900998
1.26057
1.21906
1.11074
1.20915
1.1201
1.1809
1.19138
1.18807
1.19035
1.19596
1.09989
1.01667
0.946087
0.928373
1.00546
0.945008
0.932088
1.04336
0.932355
0.983675
0.921994
0.922905
0.931824
0.921805
0.935513
0.931319
0.92968
0.931095
0.930629
0.930717
0.939667
0.934538
0.946869
0.944827
0.948326
0.926671
0.940979
0.923442
0.895348
0.896185
0.922766
0.952258
0.946076
0.921953
0.903814
0.929513
0.970375
0.970972
0.984004
0.945932
0.977046
0.993654
1.03365
0.984626
0.992345
1.01756
1.04986
1.18435
1.21829
1.1535
1.20071
1.24168
1.31802
1.2293
1.11718
1.24722
1.13793
1.13269
0.879572
0.818425
0.867831
0.833153
0.961137
1.08948
1.01098
1.07676
1.08323
1.11022
1.07562
0.345996
0.504912
0.643964
0.501832
0.729261
0.628288
0.000599399
0.00098478
0.000476803
0.00100962
1.0833e-05
0.000435874
0.163175
0.360163
0.275133
0.28268
1.57403
1.58159
1.62266
1.60246
1.58061
1.55642
1.48053
1.38954
1.33387
1.32896
1.31311
1.31512
1.29572
1.29479
1.2756
1.27414
1.22328
1.26764
1.19384
1.13319
1.07798
1.03667
0.000943425
0.00107145
0.00107145
0.000663073
0.000624844
0.000731205
0.000585884
0.00107145
0.00107157
0.00107148
0.00100999
0.00100984
0.000550093
0.00100942
0.000924102
0.000172183
0.000288255
0.000465366
0.000349152
0.088134
0.540432
0.326052
0.638756
0.612693
0.806822
0.65398
1.0145
1.18238
1.19027
1.29
1.50645
1.3931
1.53076
1.52298
1.53061
1.57053
1.59627
1.60769
0.995411
0.995404
0.948934
0.975241
0.913653
0.877008
0.868215
0.868577
0.862704
0.869309
0.822
0.814777
0.763437
0.776708
0.833361
0.805575
0.778511
0.823955
0.819869
0.839221
0.745952
0.735268
0.759563
0.772212
0.772695
0.730627
0.73354
0.728284
0.733654
0.716699
0.713098
1.0183
0.990323
0.992256
0.991664
1.01116
1.11771
1.07691
1.05767
0.937957
0.982558
0.967044
0.971561
0.870779
0.806284
0.973584
1.1097
0.980955
1.0018
0.978759
1.0493
1.03393
1.10415
1.14051
1.06071
1.04718
1.08086
0.956977
0.92948
0.927887
0.929326
0.844703
0.898233
0.823159
0.775783
0.755936
0.874233
0.873567
0.922168
0.922211
0.921682
0.924495
0.921143
0.927497
0.923579
0.934433
0.926741
0.946751
0.939652
0.948193
0.948422
0.972668
0.959062
0.983307
0.986986
0.933681
0.917327
0.983102
0.965862
0.953352
0.970766
0.953533
0.941156
0.993943
0.971145
1.07571
1.08343
1.03493
1.07597
1.0858
1.0528
1.14438
1.11628
1.18366
1.20332
1.22876
1.14907
1.15037
1.1369
1.11094
1.12393
1.06496
1.17339
0.995973
0.967422
1.02981
1.04838
0.72067
0.774496
0.851325
0.974179
1.00693
1.04503
0.953078
0.917214
0.874429
0.821272
0.172542
0.266894
0.528945
0.343421
0.652548
0.722435
0.000993891
0.000234006
0.00100979
0.000545241
0.000545481
9.13523e-05
0.200216
0.000507432
0.138252
0.142792
0.000766556
0.000551352
0.000138864
0.000388285
0.00097475
0.00101
0.000140803
0.000999779
0.000897876
0.00042644
0.0011334
0.000787444
0.000967545
0.00113307
0.00113318
0.00113323
0.00090903
0.000999494
0.0009727
0.000201819
9.59135e-05
0.000989075
0.000892979
0.0009482
0.00100959
0.000881287
0.00100965
0.000996543
2.65749e-05
0.000931251
1.58482
1.59193
1.62139
1.60105
1.58468
1.51649
1.32624
1.39912
1.29315
1.30446
1.27203
1.2771
1.26654
1.27372
1.26145
1.25876
1.2074
1.17691
1.0782
1.11968
0.975298
1.01532
0.000902499
0.000636742
0.000948563
0.000967574
0.000969466
0.000982262
0.000982954
0.000870723
0.00101
0.000925974
0.000677989
0.000965569
0.000971308
0.000759356
0.000380116
0.000991326
0.000690401
0.00100737
0.000803925
0.000839513
0.000369052
0.000975289
0.000889611
0.000439439
0.000917861
0.00051761
0.0114497
0.00101137
0.0457098
0.236225
0.684996
0.47915
0.697341
0.699015
0.995399
0.825615
1.20731
1.16228
1.22432
1.34595
1.44064
1.52293
1.53661
1.52436
1.56947
1.59434
1.57803
1.56347
0.00114302
0.0008761
0.000886173
0.000227608
0.00067575
0.000987943
0.00081396
0.000938673
0.000890554
0.000725685
0.000975785
0.00092383
0.000794854
2.99799e-07
0.000880516
0.00101
0.000170373
0.975064
0.974962
0.974629
0.939377
0.86017
0.894997
0.821195
0.812891
0.777969
0.772852
0.729734
0.726449
0.758301
0.755342
0.716941
0.749172
0.744971
0.793206
0.775122
0.774562
0.696539
0.665365
0.667755
0.711511
0.718383
0.720338
0.694418
0.69719
0.657562
0.646367
0.610043
0.616804
1.21495
1.1812
1.22372
1.23128
1.1826
1.13803
1.30534
1.32656
1.39139
1.39978
0.94768
0.990482
1.0398
1.12611
0.946558
0.89111
0.927749
0.925991
0.765035
0.819017
0.870041
0.752195
0.975725
0.963442
0.963056
0.978086
0.995318
0.972728
0.986081
1.00119
0.876712
0.874521
0.772165
0.85963
0.851245
0.810666
0.76027
0.782209
0.722835
0.741095
0.721408
0.80716
0.869938
0.802772
0.87004
0.92199
0.921575
0.922749
0.924893
0.92799
0.94717
0.940565
0.95757
0.952893
0.974337
0.968227
0.990737
0.988806
0.990984
0.987533
0.998195
0.991495
1.0304
1.00389
0.970236
0.970873
1.03644
1.00254
1.01152
1.05241
1.09508
1.09506
1.09471
1.09501
1.12656
1.17821
1.24004
1.2594
1.26792
1.24515
1.38729
1.3255
1.45294
1.49336
1.4827
1.52343
1.57786
1.44241
1.53023
1.55295
1.62907
1.67801
1.70352
1.72512
1.75449
1.69722
1.75408
1.71163
1.79214
1.79245
1.84097
1.80957
1.87146
1.90191
1.89081
1.84045
1.90498
1.92962
1.89566
1.89191
1.95796
1.93519
1.96701
1.90568
1.90569
1.96946
1.93642
1.89003
1.88962
1.92212
1.95642
0.938908
0.91355
1.0894
1.06673
1.03963
1.03484
1.01932
0.807108
0.938471
0.642548
0.671017
0.772004
0.759559
0.627158
0.718336
0.704351
0.872517
0.773021
0.786975
0.686869
0.686218
0.692938
0.716529
0.252768
0.103096
0.526615
0.289491
0.525225
0.454326
0.00101
0.000966006
0.000995857
0.000538898
2.22562e-06
0.00173622
0.00066774
0.0872269
0.000837583
0.014242
0.000275949
0.00069126
0.000943677
0.000831092
0.00137981
0.000447413
0.00012748
0.000146108
0.000949
0.000431299
6.93167e-06
1.61879e-05
0.000990101
0.00093513
0.00100829
0.000680191
0.000911134
0.000410555
0.0010095
0.000976671
0.000895735
0.000988794
0.000682483
0.00100665
0.000974989
0.000926586
0.00101
0.00057983
0.0010249
0.000922324
0.00102035
0.0010342
0.00100234
0.000989257
0.00101245
0.00101331
0.000467339
0.000557397
0.000993933
0.000773625
0.000877713
0.00099375
0.000922247
0.000776475
0.0010078
0.000994205
0.000136415
0.000956593
0.000950381
0.000921886
0.000915695
0.000919934
0.000616208
0.00101
0.000623175
0.000968314
1.56676
1.55031
1.53072
1.52022
1.44374
1.51239
1.35132
1.27632
1.26563
1.27054
1.26596
1.26702
1.20654
1.21015
1.05605
1.01594
0.974748
1.14753
1.15087
1.09743
1.09732
1.09727
0.00081225
0.000386202
0.00115869
0.00115868
0.000962471
0.000414864
0.00093308
0.000410365
0.0011587
0.000922079
0.000161511
0.00100893
0.000972717
0.000941946
0.000297472
0.000985833
0.000726155
0.00091818
0.00021426
0.00061243
0.0750635
0.000573017
0.0976289
0.105767
0.350909
0.143388
0.541881
0.701304
0.828001
0.698309
0.991744
1.15986
1.19305
1.21827
1.31528
1.41469
1.47762
1.45586
1.49204
1.44314
1.49542
1.52819
1.47858
1.48665
0.0010107
0.000865419
0.00100993
0.000849207
0.000922232
0.00119227
0.000759866
0.000801722
0.00119227
0.000964874
0.000981161
0.000996251
8.47435e-05
1.14836e-05
0.000994615
0.000373012
2.46882e-08
0.00072123
0.00101
0.000253336
0.000277025
0.000765241
0.00096459
0.000879022
0.00218418
0.00101001
0.948355
0.948742
0.868241
0.88507
0.764086
0.78491
0.724439
0.724247
0.722915
0.725522
0.697438
0.700561
0.672576
0.673767
0.649643
0.687185
0.765816
0.726877
0.765597
0.765571
0.585399
0.608053
0.649537
0.627979
0.637082
0.641583
0.585646
0.580092
0.566509
0.576359
0.585659
0.585477
1.43646
1.43584
1.2662
1.17877
1.16853
1.15487
1.4344
1.3458
1.59088
1.66857
1.56527
1.48815
1.68288
1.66364
1.73064
1.77995
1.81012
1.80879
1.83741
1.8094
1.86432
1.89109
1.88601
1.88578
1.90232
1.88957
1.88907
1.93534
1.87908
1.87534
0.999521
0.92523
1.06861
1.14362
0.925917
0.871709
0.926532
0.924814
0.75408
0.807997
0.643582
0.804041
0.696391
0.970554
0.916965
0.968413
0.965961
0.967833
0.861147
0.769878
0.690469
0.673102
0.69011
0.727259
0.654588
0.642263
0.567659
0.655011
0.734848
0.728561
0.648271
0.749014
0.81588
0.764381
0.869642
0.818993
0.861861
0.914187
0.950008
0.929612
0.963312
0.962782
0.976583
0.963941
0.997368
1.00759
1.00449
1.01933
1.0246
1.02419
1.05917
1.06844
1.05952
1.05582
1.05882
1.05271
1.07083
1.08422
1.13426
1.12524
1.09568
1.12524
1.12026
1.15448
1.18776
1.24847
1.27823
1.28045
1.29016
1.35734
1.44153
1.51342
1.52865
1.65522
1.5285
1.57992
1.73017
1.75447
1.7545
1.79147
1.84078
1.89024
1.90095
1.90498
1.9325
1.96084
1.98586
1.98618
1.98823
1.98905
1.98353
1.9664
1.90301
1.96945
1.93534
1.8891
1.88881
1.92079
1.95324
1.96335
1.8904
1.95156
1.90938
0.736055
0.724214
0.805281
0.882999
0.760352
0.827387
0.979748
0.909716
0.929258
0.766736
0.669882
0.634717
0.634002
0.740682
0.726177
0.385981
0.501285
0.672988
0.586763
0.690265
0.673926
0.697387
0.682009
0.694154
0.730746
0.000710854
0.0724287
0.152374
0.354163
0.383624
0.349501
0.00086849
0.000172666
0.00037301
0.00173611
0.00043687
0.000669169
3.02932e-05
0.000315336
0.000448048
0.00101
0.000544917
0.00137956
0.000928609
0.00101
0.000828294
0.000660221
0.000998234
0.000701989
0.000938544
0.000874495
0.00105187
0.000943519
0.000791252
0.000751098
0.000990039
7.57449e-05
0.00099613
0.000976554
0.000151024
0.000631461
0.000544652
0.000936558
0.000848613
0.000979658
0.000980118
0.000993499
0.000978339
0.000944855
0.000974885
0.00092222
0.000207016
0.000979907
0.000919067
0.00101
0.000732523
0.00100962
0.000641972
0.000367709
0.000916152
0.000960434
0.000964985
0.000892128
0.000584066
0.000479733
1.47404
1.47061
1.46923
1.46538
1.40029
1.46315
1.26862
1.32214
1.22614
1.22751
1.17255
1.15653
1.09751
1.09687
1.0128
0.908749
0.885644
1.0534
1.09681
1.09882
1.09758
1.09856
0.00115874
0.000975154
0.00115873
0.000709116
0.000973634
0.000973647
0.00094649
0.000972052
0.00100548
0.000830393
0.000135327
0.000443538
0.00093376
0.000997208
0.00060297
0.00100999
0.00098232
3.53596e-05
0.000985985
0.000645858
0.000347166
0.0992767
0.166683
0.126116
0.331478
0.513166
0.658659
0.700417
0.894708
0.722875
1.03145
1.17302
1.13704
1.24702
1.41246
1.3201
1.40377
1.3945
1.38233
1.41097
1.48076
1.46439
1.4754
1.45515
0.000769413
0.000922585
0.000563688
0.000958878
0.000712787
0.000933944
0.000627141
0.000452485
0.000820618
0.000879841
0.000957505
0.000856862
0.000968979
2.39663e-19
0.000922039
0.000873917
0.00096514
0.000987798
0.000743529
0.00100999
0.000468733
6.62009e-09
0.00201517
0.000901385
0.00101
0.000860782
0.000668131
0.000489708
0.000136748
7.90557e-17
0.00098545
0.823112
0.823096
0.787281
0.766659
0.723809
0.745186
0.712254
0.711858
0.868557
0.808213
0.78761
0.64163
0.651103
0.581074
0.583728
0.64849
0.648815
0.640274
0.679993
0.740146
0.693603
0.72787
0.713158
0.607801
0.586891
0.6006
0.621353
0.549362
0.547336
0.549063
0.558553
0.574103
0.564413
0.528091
0.534932
2.00841
2.01974
2.04763
2.02128
2.07058
2.05444
2.08094
2.06712
2.12467
2.11153
2.08095
2.13128
2.09297
2.14939
1.97907
1.93011
1.95015
1.99913
1.98242
1.9502
1.95451
2.00614
2.01164
1.98643
1.96715
2.0192
2.004
2.01249
2.03811
1.88954
1.88821
1.88818
1.88769
1.90682
1.92808
1.48358
1.42719
1.3251
1.22913
1.14203
1.21914
1.41818
1.40033
1.63942
1.66476
1.54905
1.63211
1.67085
1.72063
1.76721
1.80968
1.80586
1.80827
1.80395
1.83403
1.84678
1.87271
1.86002
1.8621
1.86633
1.87535
1.85383
1.85352
1.04936
0.976496
0.919815
0.90885
0.967884
1.14345
1.11977
0.84804
0.905218
0.778082
0.711087
1.99498
2.01617
2.032
2.03961
2.04405
2.05489
2.05985
2.08612
2.07313
2.08846
2.08678
2.1383
2.16008
2.18521
2.18504
2.18971
2.20179
2.2214
0.686683
0.636436
0.636187
0.893587
0.785495
0.959858
0.85374
0.778377
0.677157
0.674184
0.675349
0.675882
0.529102
0.606422
0.458631
0.478254
0.560568
0.478984
0.741548
0.673534
0.56845
0.76441
0.765821
0.765342
0.818782
0.780886
0.90309
0.854566
0.938937
0.90433
0.938534
0.96554
0.986912
1.01051
1.0322
1.03088
1.03882
1.03329
1.08976
1.07844
1.07263
1.06958
1.12229
1.09607
1.16677
1.12936
1.10889
1.15168
1.1976
1.18749
1.21091
1.24571
1.24705
1.19382
1.30033
1.33057
1.30098
1.28909
1.37194
1.45519
1.52795
1.5954
1.54283
1.55972
1.68913
1.74838
1.79082
1.77241
1.83679
1.86854
1.90967
1.92509
1.91945
1.93879
1.99539
1.97647
1.98981
1.99836
1.98509
1.98469
1.98808
1.99049
1.98452
1.98348
1.98622
0.721647
0.71067
0.732411
0.664626
0.671206
0.698025
0.626148
0.773919
0.672353
0.610178
0.633447
0.610752
0.506528
0.613962
0.633203
0.428093
0.404948
0.360007
0.470653
0.675113
0.581684
0.581001
0.582433
0.390007
0.257051
0.0617703
0.092491
0.00237448
0.00106035
5.56918e-06
0.362074
0.182145
0.380431
0.33691
0.000776109
0.00096702
0.000896738
0.000998449
0.00026155
0.000888291
0.00100984
0.000894905
0.00106041
0.000204127
0.000398457
0.000668916
0.00101
0.000330569
0.000740386
7.88508e-19
2.40353e-12
0.00241072
0.000379096
0.000850418
0.000694792
0.000545923
0.000997667
0.0003892
0.00100993
0.000972649
0.000977525
0.000963111
0.000999516
0.00074347
0.0010126
0.000935327
0.000728754
0.000980922
0.000664042
0.00101222
0.00089779
0.000955844
0.000631827
0.000258775
0.000729633
0.000964465
0.000941166
0.000838222
0.00101
0.000334973
0.000769708
0.000685233
0.000978177
0.000925692
0.000935309
0.000882411
0.00091709
0.000695524
0.000567275
0.00213447
0.000170273
0.000674617
0.000835469
0.00090419
0.00213443
2.18316
2.1448
2.10388
2.21541
2.25261
2.24995
1.46955
1.4609
1.4459
1.4395
1.36232
1.42701
1.26622
1.19125
1.11231
1.12659
1.10118
1.09539
1.10236
1.09614
0.974938
0.892757
0.983377
1.0614
1.06117
0.00093523
0.000753771
0.000875173
0.000890082
0.000922295
0.0009764
0.000965395
0.000493094
0.000931051
0.000554111
0.00100943
0.000959595
0.000969088
0.663552
0.688656
0.726773
0.00100998
0.000498781
0.000128694
0.000927014
0.000656953
0.000264981
0.123946
0.166013
0.322274
0.180791
0.48996
0.860727
1.0064
1.11738
1.11702
1.43832
1.34495
1.36352
1.15486
1.25895
1.33632
1.38678
1.40152
1.39676
1.39734
1.43215
1.42262
0.000692311
0.00116837
0.000627051
0.000982796
0.000704864
0.000720222
0.00100904
0.000845157
0.000718851
0.000865554
0.000823186
0.000932446
0.000763197
0.000831138
0.000896425
0.000485551
0.000627663
0.00100504
0.000978863
0.000935387
0.000938185
0.000682923
0.000770427
0.000937995
0.000997599
0.000978674
0.000347723
0.000953032
0.000978459
0.000973622
0.00101
0.000984843
0.000871643
0.000978065
0.000827832
0.000983304
0.000811322
0.823956
0.860274
0.846831
0.787382
0.787369
0.75957
0.781035
0.648943
0.67736
0.58916
0.589394
0.793705
0.780998
0.541986
0.540399
0.543968
0.54571
0.599685
0.579022
0.619037
0.565484
0.687264
0.640662
0.686847
0.69599
0.528037
0.485146
0.507462
0.537569
0.516733
0.517213
0.457313
0.494916
0.474931
0.454663
0.432195
0.432875
2.00998
2.02543
2.04864
2.06509
2.07095
2.07343
2.12168
2.09232
1.94292
1.94046
1.92467
1.94714
1.97881
1.93944
1.98169
1.95965
1.87554
1.86417
1.86194
1.89313
1.92253
1.89563
1.48741
1.40985
1.30569
1.3953
1.24401
1.1535
1.4067
1.40748
1.64587
1.64922
1.66527
1.56054
1.63784
1.75258
1.69726
1.63936
1.68239
1.78354
1.7973
1.78703
1.79349
1.80185
1.82464
1.85187
1.84169
1.85195
1.85076
1.8518
1.85043
1.85162
1.85123
0.892537
0.897018
1.03549
1.11847
0.894766
0.977781
1.13414
1.15114
0.886125
0.82864
0.739639
0.806597
2.02518
1.98653
2.0035
2.04919
2.04793
2.04954
2.05964
2.0816
2.10407
2.11601
2.11482
2.11953
2.14576
2.1838
2.16649
2.18509
2.20236
2.24948
2.22571
2.05434
2.06609
2.0812
2.25064
2.2539
2.24954
0.631368
0.632595
0.633764
0.607873
0.700338
0.720543
0.51965
0.564702
0.596375
0.480279
0.521047
0.525315
0.453947
0.455152
0.458064
0.45626
0.486087
0.519954
0.620493
0.548186
0.549383
0.693073
0.769562
0.684967
0.84182
0.869878
0.801663
0.841546
0.903119
0.869651
0.997121
0.937809
1.00728
1.02484
1.03054
1.01939
1.06929
1.10764
1.14546
1.14473
1.15094
1.13817
1.16313
1.14514
1.19492
1.20054
1.22281
1.22291
1.20057
1.20211
1.32094
1.36658
1.26745
1.32959
1.37598
1.33707
1.43908
1.48402
1.58215
1.62246
1.5983
1.69109
1.74543
1.84475
1.83045
1.88937
1.86288
1.95724
1.96414
1.95643
1.98531
2.01356
2.0125
2.06803
2.03326
2.05937
2.02277
2.0263
2.06395
1.98841
2.02234
1.99353
0.0813272
0.403943
0.0888405
0.365764
0.655504
0.637734
0.625333
0.613922
0.628405
0.485556
0.388382
0.384072
0.277228
0.480983
0.350617
0.373817
0.502214
1.35852e-07
0.000430562
0.137969
0.257607
0.261787
0.0552404
0.000375552
4.7646e-05
0.000926862
1.44182e-05
1.95721e-05
0.00106014
0.00106027
0.000328008
0.00115965
0.000552
0.0694419
5.64199e-06
0.000633624
0.0010004
0.000112849
0.00044385
0.000919656
1.33132e-14
0.000297927
0.00222988
2.81897e-13
0.000984734
5.60304e-05
0.0009581
0.000364482
0.00101
0.000172236
0.000989677
0.00220303
0.000978058
0.000134455
0.00096781
0.00100982
0.00133685
0.000362767
0.00100983
0.000979813
0.000465046
0.000983408
0.00101
0.000808151
0.00101261
0.00101245
0.000896998
0.000918694
0.00101157
0.00101245
0.000955402
0.000841815
0.000711032
0.000919589
0.00164543
6.77279e-05
0.00164532
0.000765892
0.00098702
0.000966821
0.00099923
0.00100984
0.00101
0.00100994
0.000799141
0.000805878
0.000827454
1.20946e-05
9.12481e-06
0
0.00090453
0.000799517
0.000430028
0.000837953
0.0013368
0.000898711
0.00100958
0.00100997
0.000751164
0.000998553
0.000946811
0.000914726
0.00101
2.16413
2.14193
2.14841
2.15313
2.18023
2.28557
2.26896
2.27566
2.29751
2.24051
1.35907
1.35036
1.30003
1.28982
1.25668
1.28121
1.18202
1.15073
1.14234
1.09602
1.0739
1.0688
0.982037
0.998038
0.862486
0.903932
0.905054
0.000529692
0.000965684
0.000913493
0.00101
0.000949844
0.000924031
0.000585991
0.696699
0.838916
0.688105
0.000919443
0.000220381
0.000959565
0.000979614
0.556574
0.397089
0.00101
0.000973661
0.000684422
0.000904732
0.15918
0.0129145
0.202194
0.196687
0.229393
1.23789
1.24887
1.27905
0.972862
1.12423
1.11455
1.15386
1.26852
1.34923
1.29635
1.22063
1.28983
1.31721
1.31589
1.25623
1.27905
0.000957717
0.000980684
0.00116841
0.00101
0.000643836
0.000823908
0.00101
0.00117375
0.00094658
0.000998775
0.000160682
0.000986054
0.000875008
0.000936631
0.000510229
0.00103013
0.000988293
0.00103022
0.00103015
0.00101
0.000771965
0.000895476
0.000833864
0.000976221
0.00092185
0.00100577
0
0
0
0.000693707
0.0011037
0.000992715
0.00100563
0.000944429
0.000473953
0.000911195
0.000978965
0.000968087
0.00097325
0.000338297
0.000895901
0.000914242
0.000926795
0.000883055
0.00103018
0.842135
0.852262
0.862863
0.72883
0.750395
0.708946
0.709283
0.637322
0.627055
0.541083
0.553242
0.538254
0.541348
0.642894
0.637124
0.48513
0.486544
0.451951
0.432203
0.53089
0.523643
0.551203
0.604845
0.682656
0.647925
0.713688
0.664579
0.467708
0.439332
0.497703
0.52206
0.400553
0.398095
0.370767
0.39386
0.432016
0.411489
0.434041
0.439069
2.01914
1.96635
2.05692
2.00583
2.02019
2.06751
2.03498
2.10448
2.04416
2.12775
2.07928
2.07473
2.13851
2.1139
1.90601
1.90745
1.89638
1.91033
1.92287
1.9366
1.93495
1.94971
1.85093
1.85042
1.87358
1.85775
1.88733
1.89527
1.48985
1.41191
1.33093
1.40819
1.20215
1.29587
1.40669
1.41427
1.63724
1.63782
1.6404
1.56746
1.72642
1.77407
1.68528
1.63732
1.78056
1.78014
1.79472
1.78059
1.81719
1.84132
1.8494
1.85006
1.85102
1.84728
1.85104
1.85171
1.85137
1.84587
0.890921
0.885801
1.05262
1.13145
1.0319
0.949805
1.18828
1.13
0.863094
0.886765
0.858312
0.7739
2.02829
2.05944
2.04442
2.06968
2.09022
2.0763
2.1119
2.12382
2.10032
2.11471
2.10394
2.1148
2.11998
2.14256
2.16698
2.18236
2.18402
2.2345
2.21229
2.26165
2.26912
2.13583
2.14959
2.26691
2.27734
0.371013
0.529602
0.403551
0.504772
0.431588
0.407615
0.367194
0.328492
0.356754
0.396489
0.286282
0.338131
0.342945
0.237243
0.291433
0.437003
0.548538
0.465827
0.553252
0.557474
0.549865
0.617636
0.76512
0.672865
0.857408
0.857321
0.823674
0.774344
0.894711
0.940097
0.995892
0.983385
1.00491
0.994952
1.11519
1.06146
1.16445
1.15591
1.18046
1.18663
1.16237
1.21696
1.26237
1.23518
1.22001
1.24685
1.29675
1.28389
1.26439
1.30811
1.39096
1.39006
1.38599
1.40492
1.53469
1.44973
1.62041
1.64636
1.64685
1.71483
1.79038
1.86672
1.87404
1.88606
1.93168
1.98041
2.01519
2.0158
2.05309
2.02721
2.07924
2.09479
2.09504
2.09581
2.09719
2.09621
2.06388
2.09402
2.06924
0.000743941
6.07391e-05
0.0045519
0.000432753
0.036912
0.344538
0.034511
0.505018
0.374909
0.383261
0.223273
0.248515
0.249443
0.249129
0.244662
0.242465
0.244573
0.247049
0.239524
0.00418309
0.000995534
0.000479107
1.17685e-05
0.000137322
0.000459142
0.00101
0.00101001
0.0004514
4.7216e-05
0.00100217
0.000993637
0.000687571
0.000514231
2.58949e-05
0.00101
0.00215112
0.00030652
0.000959982
0.00100986
0.000887496
0.000962023
0.000992996
0.00188023
0.000975999
0.000146754
1.36216e-05
0.000607696
0.00096357
0.000988249
0.000479144
0.000826696
0.000961729
0.00100941
0.00031059
2.05812e-05
0.000987756
0.00100992
0.000817418
0.000560979
0.000660598
0.00101
0.000799183
0.000969612
0.000279366
0.000905419
0.000941315
0.000874533
0.0010008
0.000939674
0.000880492
0.000886752
0.00100949
0.00097168
0.000773375
0.000984106
0.000952799
0.00048851
0.00098992
0.000934564
0.000964099
0.000974876
0.000974485
0.00101
0.00099424
0.000905098
0.000464111
0
0
0
0
0
0
0
0
0
0
0
0
0
0
0
0
0
0
0
0.00099334
0.000882139
0.000937661
0.000812305
0.000918993
0.000434354
0.000930589
0.00106327
0.000325168
0.000811332
0.000751538
0.000885277
2.3156
2.30875
2.32168
2.30998
2.34045
2.3295
2.16449
2.16279
2.24555
2.20398
2.2828
2.32579
2.27969
2.18
2.16383
1.22916
1.23396
1.22308
1.21557
1.23395
1.16812
1.19505
0.99218
1.05894
0.91325
0.915644
0.863553
0.86175
0.862771
4.53839e-05
0.000734828
0.000495047
0.000982711
0.670252
0.862212
0.687739
0.000948865
0.000967043
0.642474
0.541277
0.000977274
0.000684698
0.000970402
0.000977458
0.235788
0.381069
0.00101166
0.0010126
0.000817908
0.000899995
0.206854
0.0583198
0.212702
1.23011
1.22269
1.23195
1.2145
1.23134
0.941885
1.06094
0.99978
1.12746
1.18649
1.22296
1.13876
1.23342
1.17617
1.17973
1.15521
0.000954778
0.00108417
0.000910468
0.000970576
0.000973219
0.000935143
0.000653904
0.0010145
0.000148732
0.000899981
0.00101242
0.000664778
6.92933e-05
0.000748081
0.00101968
0.000508825
0.000763669
0.000853261
0.000936793
0.000942764
0.00094707
0.000987679
0.000740767
0.000908685
0.000621516
0.00100955
0.000627569
0.000973579
0.000348921
2.15212e-05
0
0
0
0
0
0.000839203
0.00110344
0.000978274
0.00110312
0.000988902
0.000872265
0.00078846
0.000950347
0.00098805
0.00100037
0.00093197
0.000953825
0.000956596
0.000926206
0.000778615
0.00101
0
0
0
0
0
0
0.838801
0.76908
0.755587
0.686466
0.678104
0.596087
0.58128
0.572326
0.573096
0.562899
0.574657
0.500441
0.514187
0.435986
0.421403
0.571571
0.578028
0.363189
0.353686
0.361945
0.368578
0.643947
0.709661
0.626062
0.523053
0.503577
0.580811
0.512685
0.594322
0.435351
0.408052
0.461341
0.418241
0.373338
0.370737
0.364788
0.384569
0.382106
0.35439
0.349772
0.331995
1.95246
1.9626
1.97482
1.97949
1.98594
1.98555
2.08365
2.07454
2.047
2.01723
2.1257
2.07556
2.06533
1.89652
1.8942
1.92357
1.90831
1.93343
1.93417
1.96444
1.94379
1.84997
1.85833
1.88029
1.86317
1.87689
1.88672
1.52859
1.4488
1.37198
1.40927
1.35739
1.26247
1.44599
1.40867
1.6422
1.64252
1.60203
1.64701
1.73374
1.78256
1.6445
1.691
1.7839
1.78244
1.80638
1.78589
1.82727
1.84703
1.8435
1.84577
1.8456
1.8441
1.84902
1.84656
1.84429
1.84478
0.883413
0.944003
1.13054
1.10578
1.02874
1.11315
1.13117
1.20865
0.878263
0.873368
0.868951
0.786009
0.624095
0.667016
0.74918
2.09653
2.09819
2.12742
2.11936
2.14091
2.15377
2.15381
2.15358
2.18823
2.16899
2.1813
2.14635
2.17932
2.18874
2.21373
2.23379
2.24631
2.24331
2.29324
2.29655
2.3199
2.29504
2.2087
2.21326
2.333
2.32979
0.149317
0.218603
0.0988583
0.330071
0.247771
0.329913
0.331428
0.318927
0.252908
0.180968
0.119738
0.118907
0.14689
0.201041
0.372656
0.27727
0.254282
0.452522
0.607705
0.567725
0.419735
0.658861
0.703011
0.718985
0.703951
0.809579
0.876315
0.75595
0.977589
0.916814
0.988145
0.992255
1.08565
1.01961
1.14028
1.17502
1.16901
1.17318
1.29806
1.2614
1.23162
1.2848
1.31024
1.30662
1.30138
1.29046
1.30485
1.30827
1.38699
1.43044
1.46639
1.4227
1.46675
1.49421
1.63419
1.56534
1.65864
1.64881
1.72782
1.80542
1.89024
1.88653
1.92028
1.95846
2.03328
2.02113
2.04442
2.04922
2.07768
2.08814
2.106
2.09946
2.11006
2.1068
2.09602
2.10853
2.09387
2.09796
0.000967493
0.000862298
0.00101
0.00067133
0.000942057
0.000584363
0.000557421
0.00024659
0.000472841
0.24516
0.251149
0.000245426
0.000464128
0.245975
0.253433
0.240197
0.249073
0.251412
0.234488
0.160858
0.0791365
0.00100986
0.000648283
0.000938422
0.000788581
0.00100179
0.000616537
0.000997704
0.000180038
0.000954666
0.000624923
0.00101
0.000209386
0.000613088
0.00100863
0.00191604
0.000996636
0.000918269
0.000977938
0.00371269
1.04919e-05
0.000210438
0.00024578
0.00100938
0.00081657
6.4021e-09
0.000992689
0.00100983
0.000219172
0.000848872
0.00100647
0.000131712
0.00100976
0.000959372
0.000157408
0.000986414
0.000975827
0.000991018
0.00357921
0.000980885
0.000662761
0.00098777
0.000776699
0.0006437
0.00128439
0.00128431
0.00128433
0.000900202
0.000946957
0.000832782
0.000987787
0.000948013
0.000941776
0.000961192
0.000871734
0.000897996
0.000947049
0.000951887
0.000925848
1.67713e-05
0.000881191
0.00092376
0.0003855
0.000414352
0.00098456
0
0
0
0
0
0
0
0
0
0
0
0
0
0
0
0
0
0
0
0.000879187
0.000943785
0.00101
0.000948967
0.00153254
0.000660833
0.00108568
0.000901989
0.00107431
0.000915765
0.000755633
0.000991424
2.34267
2.3642
2.3716
2.32798
2.33447
2.32396
2.324
2.21421
2.23019
2.25279
2.26997
2.26121
2.29313
2.32693
2.16145
2.20695
2.12497
2.16514
2.16783
1.22213
1.22962
1.13839
1.09267
1.19069
1.12454
1.13931
0.99333
1.01937
0.892539
0.860978
0.860442
0.861929
0.838848
0.000942672
0.000660908
0.774217
0.891353
0.66872
0.000952845
0.000974084
0.623406
0.613253
0.000671453
0.000632291
0.36005
0.489541
0.000832379
0.000925544
0.000943875
0.000844805
0.227052
0.224997
0.000991357
0.00102261
3.70282e-05
0.00336243
0.140441
1.19201
1.23466
1.2139
1.18205
0.951268
0.948712
0.973124
1.03939
1.15036
1.15854
1.11167
1.15288
1.16283
0.00100999
0.00060532
0.000473483
0.000951636
0.000983083
0.000985702
0.00114105
0.00114132
0.000331216
0.000835793
0.00101
0.00100946
0.00099849
0.00097296
0.00100846
0.000891625
0.0010099
0.00378066
0.00096585
0.000971022
0.000989046
0.000998604
0.000351868
0.000995064
0.000861653
0.00110317
0.000570634
0.00039799
0.00101
0.000990746
3.7271e-05
0.000733696
0
0
0
0
0
0.000500823
0.000891535
0.000776104
0.000524592
0.000635582
0.00092979
0.00099473
0.000433333
1.01074e-05
0.000839257
3.52543e-05
0.000182975
0.0323996
0.000770202
0.00110358
0.0010319
0
0
0
0
0
0
0
0
0
0
0.755431
0.671391
0.672477
0.612199
0.612655
0.586721
0.60298
0.572611
0.611558
0.541298
0.54121
0.449641
0.465994
0.371458
0.373952
0.34643
0.348083
0.496568
0.466293
0.355771
0.343461
0.347121
0.341025
0.566173
0.610752
0.450848
0.422282
0.492366
0.612131
0.67257
0.628578
0.355671
0.315249
0.378424
0.402498
0.30328
0.288129
0.277711
0.246964
0.278167
0.251905
0.275749
0.29253
2.04664