/*--------------------------------*- C++ -*----------------------------------*\
  =========                 |
  \\      /  F ield         | OpenFOAM: The Open Source CFD Toolbox
   \\    /   O peration     | Website:  https://openfoam.org
    \\  /    A nd           | Version:  8
     \\/     M anipulation  |
\*---------------------------------------------------------------------------*/
FoamFile
{
    version     2.0;
    format      ascii;
    class       volScalarField;
    location    "15960";
    object      nut;
}
// * * * * * * * * * * * * * * * * * * * * * * * * * * * * * * * * * * * * * //

dimensions      [0 2 -1 0 0 0 0];

internalField   nonuniform List<scalar> 
526318
(
0.000281671
0.00033144
0.000205439
0.000175403
8.93186e-05
0.000441269
0.00036053
0.000228457
0.000325296
0.00020669
8.62142e-05
0.000354746
6.23257e-05
0.00028763
0.000195942
0.000162409
0.000244566
4.05973e-05
0.000150167
8.64345e-05
0.00048826
0.000226077
0.00016929
0.000366654
0.000179683
0.000378571
0.000135048
0.000259221
0.000404799
0.000129697
0.000129317
0.000134188
0.000384429
5.5148e-05
0.000215566
0.000566074
5.37142e-05
0.000229085
0.000603181
0.000198306
0.000385198
0.000155882
0.000263499
0.000361463
0.000143924
0.000166069
0.000131652
1.60241e-05
0.000297672
0.000159217
5.49331e-05
0.000103259
0.000427166
0.000345111
0.000159627
0.00029326
0.00022734
0.000322199
0.000179956
0.00039466
8.9672e-05
0.000398452
0.000341462
0.000193949
0.000460436
0.000301285
0.000202465
0.000158052
0.000261789
0.000193996
0.000210266
0.000183116
0.000220713
0.000201053
0.000134937
0.000216692
0.000334678
0.00025351
0.000127841
0.000412138
0.000329523
0.000210655
0.000389675
8.81741e-05
0.000253174
0.000433971
0.000268379
9.20494e-05
0.000299857
0.000175191
0.000160072
0.00035071
0.000164869
0.000253728
0.000258144
0.00032925
0.000177305
0.000411403
0.000364127
0.000235993
0.000235776
0.000208824
0.000327643
0.000186026
0.000180023
2.37938e-05
0.000145492
0.000367635
9.89474e-05
0.000261618
0.000302065
0.000254378
0.000133376
0.000306642
0.000307289
1.38273e-05
0.000307644
0.000336737
0.000238798
0.00017111
0.00020719
0.000217441
0.000136799
0.000307833
0.000281353
0.000291245
0.000338561
0.000293129
0.000256903
0.000263062
0.00027559
0.000297677
0.000236478
0.000266689
0.000249739
0.000220425
0.000260645
0.000220216
0.000238866
0.000190878
0.000216868
0.000208207
0.000217442
0.000211428
0.000204311
0.000206455
0.000204447
0.00022606
0.000208367
0.000224921
0.000235584
0.000218158
0.000222148
0.00023457
0.000238502
0.000183973
0.000192576
0.000213965
0.000216242
0.000180853
0.000154763
0.000154185
0.000151188
9.06559e-05
6.86605e-05
0.000230946
0.000230946
0.000263416
0.000205651
5.84465e-05
0.000222507
0.000109968
0.000126905
0.000229702
0.000113075
0.000101199
0.000236385
0.000145169
0.000103882
0.000184165
0.000217238
0.000257913
0.000172438
0.000312138
0.000287215
0.000258168
0.000249675
0.000255295
0.000297037
0.000253075
0.000273347
0.000238526
0.000247245
0.000229273
0.000227382
0.000235491
0.000247062
0.000259109
0.000240124
0.000215681
0.000220155
0.000191674
0.000147964
0.000165606
0.000155129
0.000188238
0.000171318
0.00018578
0.000195297
0.000205289
0.000446462
0.000246415
0.000509828
0.000147029
0.000884238
0.000255803
0.000337076
0.000274058
0.000457878
0.000302306
8.04501e-05
0.000173613
0.000223026
0.000139761
0.000210291
0.000282555
0.000149934
0.000242026
0.000176603
0.000231717
9.29887e-05
0.000115689
0.000379564
0
0
0
0.000127452
7.48206e-05
0.000177851
0.000177632
0.000228083
0.000192121
0.000150358
0.000281744
0.000236103
0.000227274
0.000215199
0.000472751
0.000274642
0.000373846
0.000271737
0.000281161
0.000251321
8.29706e-05
0.000130214
0.000366962
0.000317051
0.000224641
0.000130541
0.000259999
0.000271355
0
0
0
0
0.000222641
0.000221887
2.31262e-05
8.23772e-05
0.000123473
0.000228952
0.000138666
0.000246552
0.000258477
4.80243e-05
0.000405426
0.000119536
0.000331258
0.000366128
0.00021019
0.000306305
0.000279453
0.000205247
0.000239399
0.000265692
0.000270214
0.000230727
0.000230236
0.000204431
0.000201002
0.000192416
0.000183564
0.000206016
0.000146465
0.000152475
0.000155154
0.000204372
0.000170725
0.000231451
0.000188231
0.000205707
0.000169308
0.000180888
0.000193937
0.000153103
0.000178719
0.000209325
0.000209251
0.000210107
0.000209753
0.000192125
0.000196498
0.000160398
0.000213921
0.00018493
0.000180034
0.000187734
0.000212267
0.00022677
0.000244919
0.000255486
0.000260217
0.000438797
0.000204305
0.000148516
0.000237598
0.000156574
3.81666e-05
0.000120423
0.000106122
0.000102672
0.000138834
0.00015241
5.14464e-05
0.000176016
0.000107426
0.00020078
0.000221377
0.000190591
0.000258126
0.00025369
0.000229994
0.000247872
0.000271178
0.000245794
0.000265424
0.000255338
0.000250695
0.000254257
0.000238397
0.000263019
0.000254679
0.000264759
0.000273874
0.000251389
0.000242707
0.000199046
0.000200028
0.000192075
0.000203918
0.000202545
0.000196103
0.000215441
0.000171713
0.000198586
0.00021488
0.000161547
0.000227191
0.000270154
0.000231209
0.000212669
0.000178822
0.000255156
0.000255057
0.000251559
0.000302026
0.00023421
0.000252342
0.000691327
0.000365677
0.000390417
0.000926493
0.000172041
0.000294211
0.000408888
0.000351751
0.000146092
0.000148171
0.000135972
0.000380974
5.5848e-05
0.000272743
0.000166779
0.000130122
0.000139903
0.00016783
0.000188295
0.000274899
0.000242417
3.14862e-05
0.000198055
9.29416e-05
0.000210591
9.08286e-05
0.000203031
0
0
0
0
0
0
2.79969e-06
0.000211949
0
4.17719e-06
0.000243213
0.000338025
0.000238538
0.000292594
0.000362861
0.000234928
0.000370276
0.000276918
0.000224435
0.000190105
0.000516207
0.000245155
0.000235194
0.000150535
0.000296988
0.00028421
0.000126495
0.000166233
0.000199561
0.000281399
0.000210046
0.000219933
0
1.52134e-11
1.17029e-10
0
0
0
0
8.06123e-11
1.23027e-10
1.68081e-10
0
0
0
0
0
0
0
0
0
0
8.13012e-05
0
0.000121937
0.00014316
0.000142614
6.46278e-05
0.000157278
0.00019858
0.000260185
9.227e-05
7.01253e-05
0.000306804
0.000224281
0.000274162
0.000262027
0.000148188
0.00033091
0.000257708
0.000196872
0.000240928
0.000250259
0.000207368
0.000207813
0.000250206
0.000207595
0.000185996
0.000173728
0.000185176
0.00018716
0.000177731
0.000151054
0.000156299
0.000216314
0.000162084
0.000192842
0.000194868
0.000176906
0.000206235
0.000121724
0.000278371
0.0001446
0.000172828
0.000196466
0.000159055
0.000180298
0.000174888
0.000179637
0.000172895
0.000179518
0.000273138
0.000305382
0.00033271
0.00029764
0.000348006
0.000399462
0.000324554
0.000305992
0.000247143
0.000251096
0.000274779
0.000301917
0.000211416
0.000219008
8.83606e-05
0.000238585
0.000252568
7.31151e-05
0.000116895
0.000197063
7.10517e-05
0.000117328
6.19544e-05
0.000103271
0.000100089
2.39053e-05
5.12484e-05
0.000118496
3.26244e-05
9.49702e-05
0.00012241
0.000127415
0.000205456
0.000154405
0.000160893
0.000187972
0.000247687
0.000220934
0.000241459
0.000259177
0.000248931
0.000242373
0.000263371
0.000237381
0.000269969
0.000261112
0.000258544
0.000280136
0.000270377
0.000248869
0.000234473
0.000236228
0.000230814
0.000219626
0.000223147
0.000209218
0.000237439
0.000217241
0.00016644
0.000213954
0.00020624
0.000184799
0.000228975
0.000150737
0.000201289
0.000274349
0.000181879
0.000254826
0.000223876
0.000294247
0.000360563
0.000263479
0.000315683
0.000351102
0.000280297
8.94587e-05
0.000153344
0.000212975
9.82442e-05
0.000563209
0.000203461
0.000188475
9.33953e-05
0.000143078
0.000113234
0.00016473
6.79612e-05
0.000153268
4.42271e-05
0.000215197
0.000233678
0.000157876
0.000236938
0.000261778
0.000113362
0.000122782
0
0
0.000119947
7.13904e-06
8.53608e-05
0.000152858
0
0
0
0
0
0
0
0
0
0
0
0
0
0
0
0
0
0
0
0
1.92264e-09
0
0
0
7.01652e-10
2.07075e-09
0
0
0
0
0
0
0
0
0
0
0
0
0
0
0.000410154
0.000356396
0.000307562
0.000430341
0.000148118
0.00033298
0.000136153
0.000373167
0.000267877
0.000235632
0.000223331
0.00013214
0.000160616
0.000165013
0.000216607
0.000283578
0.000216057
0.000259791
0.000182312
0.000184366
0.000208891
0.000186685
0
0
0
0
0
0
0
0
0
0
0
0
0
0
0
0
0
0
0
0
0
0
0
0
0
0
0
0
0
0
0.000212048
0.000111705
7.23732e-05
0.000167043
0.00022998
4.24753e-05
0.000232994
0.000128773
0.000225489
8.48226e-05
0.000279025
0.000164068
9.36749e-05
0.000243239
0.000339029
0.000246376
0.000349357
0.0001996
7.40271e-10
0
0
0
0
0
0
0
0
0
0
0
0
0
0
0
0
0.000176105
0.000204828
0.000179642
0.000229209
0.000232747
0.000182081
0.000174313
0.00016722
0.00014749
0.000155416
0.000154651
0.000163398
0.00014257
0.000163201
0.000176148
0.000166628
0.000185787
0.000193361
0.000215227
0.000198974
0.000184216
0.00014185
0.000121952
0.000144346
0.000155045
0.000131994
0.000135119
0.000146871
0.000137873
0.000137752
0.000110356
0.000118386
0.000270868
0.000357455
0.000287986
0.000344646
0.000330037
0.000400464
0.000366918
0.000246242
0.000271426
0.000316338
0.000329073
0.000336763
0.000383499
0.000352745
0.000268516
0.000253406
0.000346734
0.000303233
0.000231794
0.000237622
8.31758e-05
6.13646e-05
4.06585e-05
8.93895e-05
6.91234e-05
4.84768e-05
1.82682e-05
4.31696e-05
5.63037e-05
3.95601e-05
5.4595e-05
7.19192e-05
4.72015e-05
4.35533e-05
5.691e-05
4.20176e-05
0.000129716
0.000122646
0.000152277
0.000187749
0.000152356
0.00018319
0.00022154
0.000206872
0.000218137
0.000247212
0.000263766
0.000234046
0.00025865
0.000264752
0.000252294
0.000277626
0.000283257
0.000241613
0.000237418
0.000260386
0.000224676
0.000242663
0.000222307
0.000237694
0.000206773
0.000200931
0.000212978
0.000210678
0.000132701
0.000207152
0.000155656
0.000206435
0.000163404
0.000235672
0.000202198
0.000256278
0.000188053
0.000247155
0.000224284
0.00030796
0.00023092
0.000327448
0.000239097
0.000324758
0.000325309
0.000211934
0.00020605
0.000181892
0.000272732
0.000190136
0.000237611
0.000268572
0.000157324
0.000228004
0.000150751
0.00014778
0.000192678
0.000117312
0.000138917
0.000164321
0.000122516
0.000106621
7.06787e-05
0.000100389
9.46976e-05
8.29344e-05
2.02396e-05
6.7152e-05
4.5951e-05
2.61616e-05
4.342e-05
7.26131e-05
7.61948e-05
4.36486e-05
0.000147166
7.85424e-05
0.000175105
0.000240486
0.000167175
0.000192923
0.000181496
0.000212142
0.000143512
0.000379346
0.000265279
8.65489e-05
3.10804e-05
0.000135181
0.000207904
0.000164104
0.000275192
0.000215974
0.000149241
0.000157329
0.000133048
6.43344e-05
9.34258e-05
3.91821e-05
6.64933e-05
0.000113464
4.14456e-05
0.000171023
0.000140074
0.000295592
0.000131315
0.000108956
0.000129232
0.000163899
0
0
0.000278746
0
7.77802e-05
0.000116748
0
0
0
0
0
3.52485e-09
0
0
0
0
0
0
0
0
3.8677e-09
0
0
0
0
0
0
0
0
0
0
0
0
0
0
0
0
1.68689e-09
0
0
0
0
0
0
9.65062e-10
0
6.30436e-10
0
0
0
4.26959e-09
5.85697e-09
0
0
0
0
0
0
0
0
0
0
0
0
0
0
0
0
0
0
0
0
0.000364111
0.000245521
0.000209707
0.000212529
0.00033896
0.000211698
0.000311643
0.000272261
0.000206928
0.000176957
0.000201621
0.000332558
0.000327734
0.000234719
0.000163973
0.000178136
0.00015769
0.000105619
0.000223422
0.000222352
0.000218654
0.000181939
0
0
1.58513e-09
1.19676e-09
0
0
0
0
2.46641e-09
0
0
0
0
0
0
0
0
0
0
0
0
0
3.35006e-09
2.95794e-09
2.76758e-06
0
3.67553e-05
7.71355e-05
0.000143656
4.03315e-05
2.20294e-05
0.000222949
0.000156752
0.000290765
5.40139e-05
0.000204122
4.84586e-05
0.000307647
0.000153267
0.00014295
0.000217676
0.000270185
4.63894e-05
0.000235004
5.76841e-10
0
0
0
0
2.52335e-11
0
0
1.03069e-11
0
0
0
0
0
0
0
0
0
0
0
0
0
0
0
4.98795e-07
9.97084e-07
0.00016359
0.000144984
0.000187428
0.000123336
0.000179203
0.000138263
0.000132071
0.000125358
0.000136562
0.000118259
0.000140455
9.64893e-05
0.000136494
0.000162041
0.00016388
0.000141772
0.000192796
0.000160178
0.000208817
0.000231611
0.00012121
0.000146897
0.000155531
0.000129204
0.000132783
8.36976e-05
0.000106044
0.000107899
7.15528e-05
8.89448e-05
9.11953e-05
0.000119364
0.000238594
0.000316749
0.00032002
0.000384175
0.000352079
0.000403199
0.000313622
0.000378515
0.000222338
0.000164597
0.000223328
0.000259363
5.88733e-05
5.29798e-05
7.20843e-05
4.37564e-05
4.09825e-05
7.14697e-05
9.48542e-05
6.71402e-05
3.96645e-05
0.000106819
0.000139738
0.000186881
0.000241509
0.000245819
0.000287291
0.000281134
0.000221425
0.000185496
0.00037327
0.000373787
0.000409502
0.000402751
0.000322155
0.000281788
0.000357785
0.000350162
0.00026203
0.000298719
6.77603e-05
3.52945e-05
7.82316e-05
8.50386e-05
1.14167e-05
7.7761e-05
1.89835e-05
0.000150362
0.00011145
3.63292e-05
5.29229e-05
7.2364e-05
4.12984e-05
2.26976e-05
5.46781e-05
5.77897e-05
6.90867e-05
0.000105174
0.000157901
0.000167285
0.000114692
0.000182714
0.000214243
0.000174027
0.000260426
0.000216798
0.000256871
0.000270053
0.000251686
0.000288742
0.000294002
0.000245673
0.00024457
0.000272955
0.000228235
0.000252005
0.000245899
0.000213153
0.000208877
0.000230855
0.000175946
0.000212159
0.000212274
0.000191253
0.000224377
0.000162351
0.000171006
0.000219471
0.000177391
0.00024372
0.000199509
0.000265002
0.000244589
0.000190449
0.000205613
0.000292666
0.000298076
0.00020986
0.000188873
0.000298212
0.000154721
0.000271638
0.000143524
0.000182432
0.000221209
0.000152117
0.000148399
0.000110017
0.000116306
7.4209e-05
7.55671e-05
4.90887e-05
9.90439e-05
4.48719e-05
0.000129102
0.000112687
0.000225664
0.000299201
0.000505074
0.000215532
0.000349242
0.000103061
0.000330881
0.000304183
0.000419704
0.000319385
0.000342166
0.000325643
0.000355779
0.000378252
0.000336947
0.000349536
0.000374149
7.18619e-05
0.000121635
8.11372e-05
6.21227e-05
4.26782e-05
7.40851e-05
8.596e-05
0.00013799
0.000206703
0.000158117
0.000162917
0.000140231
0.00014244
0.000145751
9.56732e-05
3.26671e-05
0.000146048
0.000105906
0.000181313
8.34127e-05
0.000192187
0.000180872
0.000260123
0.000161407
0.000163619
0
0
0
0
2.0496e-05
7.18205e-06
0
0
0
4.15144e-09
0
0
0
0
0
0
0
5.53436e-09
0
0
0
0
0
0
0
0
2.03129e-11
0
0
0
0
0
0
0
0
0
0
0
0
0
0
0
0
0
0
0
0
0
0
0
0
0
0
0
0
0
0
0
0
0
0.00018939
0.000161018
0.000344901
0.000269133
0.000405958
0.000317077
0.000199303
0.000183589
0.000320058
0.000279347
0.000183256
9.65885e-05
0.000270426
0.000265932
0.000118565
0.000146776
0.000107851
0.000171513
0.000156583
0.000160822
0.000189172
0.000187443
1.09648e-09
0
2.05606e-10
0
0
0
0
0
0
0
0
0
0
0
0
0
0
0
0
0
0
0
0
0
4.44327e-07
0.000178216
0.000201424
0.000172442
0.000149612
7.8517e-05
4.93421e-05
0.000160973
0.000128076
7.32414e-05
0.000256791
0.000114971
0.000162175
9.54185e-05
0.000195619
4.61209e-05
0.000280215
0.000316852
0.000237882
0.000109149
0
0
0
0
0
0
0
0
0
0
0
0
0
0
0
0
0
0
0
0
0
0
4.03464e-07
0
0
0
0
0
0
0
0
0.000118066
8.66444e-05
7.12513e-05
0.00013073
0.000128616
9.26049e-05
9.88057e-05
0.000106875
7.39509e-05
0.000106303
8.47879e-05
8.07761e-05
9.15268e-05
6.41021e-05
8.64374e-05
0.000140649
0.000137478
0.000138533
0.000136789
0.00021092
0.000184296
0.000239509
0.000221519
0.000158042
0.000109347
9.67231e-05
0.000128739
8.02528e-05
8.27542e-05
5.54647e-05
8.63464e-05
8.54059e-05
6.31167e-05
7.30607e-05
0.000101006
0.000347625
0.000342302
0.000356716
0.000341933
0.000336389
0.000318498
0.000399537
0.000387603
0.000331036
0.000376515
0.000385183
0.000368356
0.000386573
0.000365279
0.000346487
0.000365115
0.000395748
0.000385905
0.000354916
0.000390854
0.000392273
0.000370185
0.000337435
0.000358506
0.000350455
0.00034394
0.000395884
0.000359815
0.000332605
0.000285031
0.000288489
0.00037268
0.000297253
0.000353735
0.000362697
0.000274035
0.000316241
0.000361073
0.000403574
0.000417214
0.000396118
0.000365688
0.000375461
0.000137957
0.000209142
0.000253626
0.000279596
0.000112743
6.9716e-05
0.00011544
7.86314e-05
0.000125807
8.41936e-05
0.000159209
8.59931e-05
0.000130383
0.000179617
0.000144606
0.000208621
0.00021631
0.000280229
0.000211047
0.000200524
0.000401911
0.000406645
0.000383416
0.000438491
0.000385591
0.000442062
0.000447462
0.000270358
0.000285303
0.000223105
0.00026711
0.000347575
0.000368619
0.000344265
0.000308869
0.000336636
0.000337035
0.000323342
0.000298304
0.000314717
0.000313816
0.000342108
0.000296583
0.000334067
0.000300445
0.000322195
0.000365675
0.000292707
0.000302873
9.20344e-05
6.24381e-05
7.98834e-05
0.000137936
3.17347e-05
2.73287e-05
0.00010904
7.06693e-05
8.68961e-05
8.42378e-05
6.93208e-05
7.86572e-05
2.76337e-05
2.12377e-05
1.53136e-05
3.0143e-05
9.72546e-05
2.58696e-05
0.000140566
0.000145879
5.32724e-05
0.000171679
0.000198249
0.000213109
0.000263008
0.000228226
0.000255197
0.00022298
0.000251345
0.000279672
0.000271742
0.000257668
0.000230746
0.000261605
0.000258656
0.000209432
0.000240246
0.000209233
0.000230045
0.000186884
0.000175842
0.000204211
0.000170713
0.000198782
0.000219984
0.000175315
0.00016845
0.000199551
0.000194619
0.000233103
0.000182611
0.000259826
0.00022249
0.00018816
0.000261054
0.000212084
0.000207328
0.000240505
0.000108878
0.000258691
0.000130473
0.000156402
0.000230922
0.000175915
0.00017081
9.10609e-05
0.000161104
3.50218e-05
0.000124674
3.24373e-05
4.47605e-05
0.000126442
0.000191068
8.7156e-05
0.000200064
0.000251954
0.000460303
0.000248917
0.000321612
0.000617364
0.000653221
0.00029283
0.000153735
0.000391072
0.000324513
0.000443668
7.95112e-05
0.000121633
5.19794e-05
4.55404e-05
6.85222e-05
0.000200859
0.000112398
9.60311e-05
0.00013907
0.000138085
3.33204e-05
5.23733e-05
7.15046e-05
0.000156706
6.08985e-05
4.35017e-05
1.98122e-05
7.15393e-05
0.000207141
7.66562e-05
0.000250117
0.000179323
3.85765e-05
0
0
0
0
6.12107e-10
7.21232e-10
1.27254e-05
0
1.44242e-06
1.97122e-06
0
0
0
0
0
0
0
0
2.36609e-09
0
0
0
0
0
0
0
0
2.66218e-07
0
0
0
0
0
0
0
0
0
0
0
0
1.04258e-10
0
0
0
0
2.75775e-09
0
0
0
0
0
0
0
0
0
0
0
0
0
0
0
0
0
0
0
2.24849e-09
0
0
0
0
2.50462e-09
0.000344616
0.000420209
0.000447895
0.000346397
0.000264316
0.000269434
0.000358153
0.000329658
0.000269408
0.00028457
0.000134049
0.000346619
7.95352e-05
0.00016654
0.000301816
0.000285064
0.000139023
0.000150098
0.000191941
0.000185159
8.59215e-05
0.000142746
0.00014114
0.000138191
0.000144129
0
0
0
0
0
0
0
0
0
0
0
0
0
0.00012747
8.07195e-05
0.000166393
0
0
0
0
0
0
0
0
0
0
9.03579e-05
0.0001145
0.000173479
0.000163775
8.80412e-05
0.000425202
0.000275416
0.00020356
0.000173101
0.000105002
0.000121115
4.17323e-05
0.000151033
0.000281223
0.000327306
0.000283925
6.98986e-05
0
2.78657e-10
0
0
0
0
0
0
0
0
0
0
0
0
0
0
0
0
0
0
0
0
0
0
0
0
0
0
0
0
0
0
0
0
0
0
0
6.01623e-05
4.02311e-05
0.000124273
9.18707e-05
3.24874e-05
8.05986e-05
3.88381e-05
8.09497e-05
5.81598e-05
5.36739e-05
5.57056e-05
3.9904e-05
8.36844e-05
5.89851e-05
1.49824e-05
2.19375e-05
6.37741e-05
0.000135572
0.000119181
0.000173189
0.000142729
0.00016798
0.000162383
0.000209309
0.000165603
6.68991e-05
2.1445e-05
9.09756e-05
0.000126925
2.8845e-05
4.65354e-05
3.2929e-05
6.4497e-05
6.71178e-05
6.1452e-05
7.76937e-05
3.60629e-05
0.000348475
0.000370436
0.000375565
0.000385831
0.000410804
0.000421488
0.000522232
0.000468078
0.000396184
0.000351182
0.000364127
0.00035645
0.000385409
0.000372447
0.000369716
0.000359502
0.000285106
0.000283457
0.000305754
0.000361295
0.000366597
0.00032056
0.000322607
0.000302639
0.000444595
0.000420296
0.000445013
0.000459306
0.000374736
0.00038483
6.65889e-05
0.000286168
0.000233685
0.000198598
0.000269624
6.40073e-05
0.000122007
0.00019753
0.000138336
0.000193831
0.00012575
0.000234304
0.000196391
0.000203356
0.000167094
0.000157061
0.000183837
0.000204814
0.000227961
0.000313509
0.000263413
0.00021806
0.00025132
0.000420569
0.000390408
0.000478964
0.0004596
0.000438168
0.000438649
0.000475236
0.000472863
0.000298025
0.00029173
0.00023199
0.000220844
0.000218152
0.000476259
0.000317608
0.000329852
0.000323583
0.000297592
0.000305712
0.000296108
0.000295525
0.000300471
0.000270116
0.000279184
0.000299256
0.000277771
0.000248701
0.000209714
0.000238734
0.000187286
0.00019555
0.000231189
0.000263164
0.000293191
0.000158871
0.000251896
0.000165181
1.84701e-05
4.55603e-05
0.000101246
9.22669e-06
4.32489e-05
5.11392e-05
3.26275e-05
9.42542e-05
4.18519e-05
5.07758e-05
6.44293e-05
0.00012196
7.49688e-05
4.70526e-05
6.52583e-05
7.13811e-05
6.1847e-05
9.8266e-05
0.000113493
7.87204e-05
5.82406e-05
0.000133748
0.000186077
0.000179245
0.000296263
0.00024541
0.000210015
0.000234073
0.000238912
0.000237685
0.000247028
0.00019898
0.000201364
0.000240882
0.000223107
0.000204888
0.000182173
0.000209841
0.000156603
0.000227924
0.000189606
0.000160196
0.000193817
0.000158948
0.000190532
0.000208082
0.000197151
0.00016221
0.000211276
0.000201181
0.000185551
0.000226297
0.000201465
0.000186899
0.00020385
0.000224958
0.000222211
0.000185634
0.000139766
0.000329425
0.000197642
0.000169072
7.32732e-05
0.000165881
1.71277e-05
2.20144e-05
0.000165677
0.000218655
8.68931e-05
0.000121768
0.000212484
0.000278381
0.000153998
0.000337356
0.000291605
0.000351427
0.000493458
0.000797672
0.000308283
0.000498064
0.000366973
0.000295629
0
7.67172e-05
0
7.93891e-05
0.000262426
7.42958e-05
0.000388284
0.0002055
0.000326505
9.22923e-05
6.08069e-05
5.56133e-05
0
0.000110637
1.16168e-05
7.08434e-05
5.22464e-05
0
0
0
0
0
0
0
0
8.32567e-11
0
0
1.78989e-09
4.85034e-10
0
0
0
0
0
0
0
0
0
0
0
0
3.19154e-07
0
0
0
0
0
0
0
0
4.61736e-07
0
0
0
0
1.26703e-09
0
0
0
0
0
0
0
2.15582e-10
7.5603e-11
0
0
1.3246e-09
2.97593e-09
0
0
0
0
3.01787e-09
0
3.99462e-09
0
0
0
0
0
0
0
0
0
0
0
0
0
0
0
0
0
1.39897e-09
0
0
0
0
0
0
0
0
0.00039879
0.000384294
0.000414519
0.000401136
0.000334374
0.000219267
0.000233522
0.000118788
0.000183459
0.000314449
0.000127274
0.00024822
0.000181197
0.000164272
0.000336849
0.000234029
0.000130664
7.01037e-05
0.00017579
0.00022243
0.000124916
0.000113719
0.000112358
0.000115705
0.000103012
7.67166e-05
9.07914e-05
0
0
0
0
0
0
0
9.48604e-05
0.000143934
0.000121004
0
0
0
0
4.76768e-05
1.67012e-05
0
0
0
1.49262e-11
0
0
0
0
0
9.84947e-05
0.000162934
0.000199742
0.000178927
0.000111616
0.000128979
6.17492e-05
0.000113982
6.3858e-05
0.000171403
4.3082e-05
4.17395e-05
0.000181545
0.000390949
0.000176667
0.00014325
0
0
2.63214e-10
0
0
0
0
8.51768e-11
0
0
0
0
0
0
0
1.94738e-09
0
8.85377e-10
1.48261e-09
0
0
0
0
0
0
0
0
0
0
0
2.61422e-09
0
0
0
0
0
0
0
0
0
0
0
0
0
7.4314e-10
2.45743e-05
9.6989e-05
3.81199e-05
5.46538e-05
7.00937e-05
5.35467e-05
1.54098e-05
1.32889e-05
3.5703e-05
4.40289e-05
2.18223e-05
5.16405e-05
1.67847e-05
3.30637e-05
6.27707e-05
1.20369e-05
1.1317e-05
4.54096e-05
5.1037e-05
8.52257e-05
0.00011579
0.000121901
0.000146195
0.000124721
0.00016012
0.000150484
0.00016223
0.000114665
7.09722e-05
4.21734e-05
5.08675e-05
2.07605e-05
9.51838e-06
1.37201e-05
1.3162e-05
6.12196e-05
1.81052e-05
3.83083e-05
4.48799e-05
0.000379907
0.000379788
0.000435491
0.000383351
0.000394057
0.00041289
0.000495727
0.000419382
0.000460064
0.000506763
0.00060966
0.000549238
0.000506548
0.000524299
0.000384969
0.000375479
0.000356395
0.000368926
0.000373828
0.000372058
0.000378842
0.000383201
0.000359433
0.000303187
0.000347427
0.000364163
0.000352541
0.000405032
0.000328559
0.000299435
0.000440094
0.00044717
0.000472282
0.000466176
0.000389427
0.000390729
0.000139057
0.000215973
0.000292772
0.000214576
0.000192569
0.000199265
0.000227411
0.000175491
0.000254297
0.000258766
0.00022391
0.000306024
0.000266964
0.000262112
0.000154151
0.000262718
0.000191602
0.000332809
0.000279727
0.000325281
0.000317122
0.000335616
0.000405072
0.000391587
0.000482625
0.000511262
0.000477031
0.000459681
0.000490629
0.000484357
0.000292829
0.000350633
0.000244539
0.000230639
0.000594144
0.000191553
0.000265726
0.000321211
0.00026418
0.000282592
0.000223215
0.000286639
0.000294308
0.000270571
0.000257516
0.00022816
0.000262936
0.000212217
0.000247623
0.000163126
0.000196288
0.0001399
0.000121278
0.000141647
9.81899e-05
0.00022961
0.00024154
0.000120811
0.000151667
5.90095e-05
8.8384e-05
4.62895e-05
3.05099e-05
4.35213e-05
2.01048e-05
1.05902e-05
0
1.80151e-05
1.2675e-05
0
1.13489e-06
0
0
0
8.75772e-05
3.43872e-05
7.12727e-05
1.99766e-05
0.000100328
0.000139201
9.81291e-05
0.000180328
0.000107134
0.000232877
0.000218723
0.000260245
0.000169503
0.000178944
0.000223846
0.000228975
0.00018865
0.000210581
0.000193722
0.000191512
0.000174699
0.000164268
0.000194751
0.000138072
0.000216164
0.00015417
0.000136434
0.000203201
0.000215173
0.000201913
0.000200464
0.000160217
0.000220848
0.000215337
0.000181106
0.000212463
0.000164725
0.000219039
0.00015495
0.000129526
0.00021794
0.00025999
5.72506e-05
0.000244415
3.56017e-05
0.000220196
3.56669e-05
0.000220395
6.65611e-05
0.000210718
9.44323e-05
0.000279682
0.000121625
0.000198662
0.00029193
0.000348279
0.000187977
0.000376034
0.000278958
0.000371197
0.000507509
0.000712572
0.000292505
0.000426316
0
0
4.30254e-07
0
0
7.75798e-06
0
0.000127102
2.03049e-05
0.000137078
0
1.52879e-07
0
0
3.6695e-08
0
0
0
1.815e-08
2.21125e-07
0
0
0
2.20655e-09
0
1.94025e-09
1.26899e-09
0
0
0
0
0
0
0
0
9.63353e-08
0
0
0
0
0
0
2.26085e-07
0
0
0
0
0
0
0
0
0
0
0
0
0
0
0
0
0
0
0
0
0
0
0
0
0
0
0
0
0
0
0
0
0
0
0
0
0
0
0
0
0
0
0
0
0
0
0
0
0
0
0
0
0
0
0
0
0
0
0
0
0
0
0
0
0
0
0
0
0
2.03658e-11
0
0
0
0
0.000161113
0.000123667
0.000197848
0.000257153
0.000206942
0.000209993
0.000456177
0.000387238
0.000231543
0.000400051
0.000255821
0.000320888
0.000263681
0.00041415
0.000399711
0.000382432
0.000176275
0.000315208
0.000149484
0.00029172
0.000160792
2.1038e-05
7.52904e-05
9.57143e-05
7.32496e-05
7.41031e-05
7.7392e-05
5.54805e-05
4.49491e-05
0
0
0
0
8.59452e-05
0.000117504
0.000134527
0
0
8.35701e-05
7.58303e-05
0
0
0
0
0
1.6338e-05
2.62386e-09
1.65556e-09
0
1.49452e-09
0
0
0
0.000264168
4.42939e-05
6.50087e-05
3.58019e-05
0.000274545
0.000162174
0.000123591
0.000133033
5.43302e-05
0.00024887
0.000181
0.000115757
2.44853e-05
4.48623e-05
0.000182829
7.36454e-05
0
8.04561e-10
0
0
0
0
0
1.94419e-11
0
0
5.47749e-11
0
0
0
1.84674e-10
0
0
0
0
0
0
0
0
0
0
0
0
0
0
0
0
0
0
0
0
0
1.01668e-09
0
2.82344e-09
0
0
0
0
0
0
0
0
0
0
0
0
0
0
0
0
0
0
3.45576e-05
1.41795e-05
3.64162e-05
5.97451e-05
5.3147e-06
4.542e-05
2.83133e-05
3.75212e-05
4.06406e-05
7.12616e-05
4.46896e-05
4.78278e-05
2.83176e-05
2.62256e-05
2.9264e-05
4.65433e-05
4.19316e-05
8.20672e-06
8.97364e-06
1.97811e-05
2.97953e-05
0.000102504
0.000138684
0.000122425
7.69849e-05
0.000121247
8.71233e-05
0.000106887
0.000140093
3.73089e-05
4.15682e-05
7.97278e-05
7.14552e-05
1.09688e-05
1.84405e-05
1.03324e-05
3.50179e-06
5.65767e-05
1.23148e-05
2.56339e-06
0
0.000447744
0.000369202
0.000384678
0.000518888
0.000474102
0.000634183
0.000421797
0.000190318
0.000616034
0.000515
0.000395096
0.000430359
0.000469121
0.000354465
0.000362659
0.000424921
0.000400369
0.000437427
0.000433783
0.000503284
0.000460561
0.000324002
0.000384836
0.000364951
0.000311474
0.000408806
0.000370236
0.000333634
0.000309363
0.000448692
0.000449846
0.000495949
0.000469252
0.000384159
0.000401994
0.000207476
0.000268394
0.000236761
0.000297236
0.000274942
0.000257212
0.000240067
0.000275623
0.000305214
0.000338099
0.000286029
0.000287342
0.000288483
0.000177672
0.000383495
0.000120827
0.000423078
0.000409704
0.000339546
0.000306191
0.000261179
0.000343658
0.000384848
0.000438046
0.000532725
0.000481768
0.000447153
0.000539833
0.000480964
0.000508208
0.000362908
0.00027751
0.000240379
0.000202984
7.96323e-05
0.000149692
0.000157685
0.000403348
0.000470061
0.000340992
0.000316695
0.000289025
0.000313404
0.000401428
0.000277512
0.00018916
0.000265198
0.000220257
0.000218452
0.000189296
0.00016577
0.000175918
0.000150075
8.24975e-05
0.000138882
7.77041e-05
0.000142298
0.000112435
0.000179191
0.000196954
0.000205308
0.000238863
0.000169274
0
0
0
1.83756e-07
0
8.63353e-09
3.50363e-08
0
0
0
0
3.55676e-09
0
0
1.2504e-05
0
0
8.5658e-05
8.90788e-05
3.18104e-05
6.66207e-05
9.21573e-05
9.0121e-05
0.000175924
0.000190135
0.000155136
0.000228125
0.000206907
0.000217535
0.000194281
0.000200821
0.000206116
0.000197446
0.000163257
0.000141496
0.000199966
0.000193636
0.000142684
0.000205443
0.000145347
0.000140376
0.000152963
0.000217512
0.00023576
0.000206314
0.000195449
0.000179816
0.000238293
0.000202492
0.000172099
0.000122954
0.000215394
0.000141115
0.000205603
6.72619e-05
0.00019991
0.000235724
9.67446e-05
0.000204393
5.45799e-05
0.000200918
8.9904e-05
0.000238896
0.000111449
0.000167341
0.000242711
0.000153551
0.000286815
0.000317373
0.000207086
0.000320336
0.000181649
0.000321314
0.000123861
0.000230553
0.000241808
0.000373638
0.000499232
0
0
0
0
0
0
0
0
0
2.62943e-07
0
0
0
2.15369e-08
3.66907e-08
3.03608e-08
2.45191e-08
1.96585e-08
1.76455e-08
0
0
0
0
0
0
0
0
0
0
0
0
0
0
0
0
1.00502e-07
0
0
0
7.93251e-07
0
0
0
0
0
0
0
0
0
0
0
0
0
0
0
0
0
0
2.59801e-07
0
0
0
0
0
7.24357e-10
7.4641e-10
1.42976e-09
0
0
0
0
0
0
0
0
0
0
0
0
0
0
0
0
0
0
0
0
0
0
0
0
0
0
0
0
0
0
0
0
0
0
0
0
0
0
0
0
0
2.87679e-09
0
6.8281e-10
0
2.52435e-09
0
0
0
0.000199395
0.00025025
0.000242172
0.00017826
0.00026771
0.000234149
0.000269098
0.000400537
0.000365604
0.000375754
0.00033422
0.000338449
0.00025555
0.000306831
0.000513979
0.000390845
0.000524472
0.000510679
0.00048842
0.000224503
6.18672e-05
8.41881e-05
0.000179843
0.000151256
4.40785e-05
0.000248756
6.01415e-05
0.000149362
5.08396e-05
2.93866e-05
2.29117e-05
7.48582e-05
2.11491e-05
0
0
0.000129041
0.000134417
0.000103444
0
0
4.35643e-05
3.0211e-05
0
0
4.37357e-06
5.99455e-05
0
0
0
0
0
0
0
0
0
0
0
0.000164608
0.000183408
4.16635e-05
0.000244054
8.9848e-05
0.000190276
0.000133829
3.42229e-05
0.000188896
0.000137489
7.35564e-05
0.000177968
6.96941e-05
0
0
0
0
0
0
2.11299e-09
1.05819e-09
0
0
0
0
0
0
0
0
0
4.80895e-08
0
0
0
0
0
0
0
3.82401e-10
0
0
2.94919e-09
0
0
0
0
0
0
0
0
0
0
0
0
0
0
0
0
0
0
0
0
0
0
2.14912e-09
0
0
0
0
0
0
0
0
0
0
0
3.82989e-05
3.7177e-06
3.24856e-05
1.65711e-05
1.89292e-05
1.51765e-05
5.20732e-05
3.65405e-05
6.28977e-05
4.81309e-05
6.78585e-05
3.57893e-05
5.29899e-05
2.49005e-05
6.64663e-06
1.52868e-05
3.50844e-06
3.40621e-05
1.96997e-05
9.77411e-06
1.33708e-06
5.56509e-06
4.78611e-07
0.000143879
9.95027e-05
5.26774e-05
5.03502e-05
4.31408e-05
8.64669e-05
0.000100971
9.56596e-05
1.74518e-05
0
1.88781e-05
1.90908e-05
0
0
0
0
0
0
0
0
0.00030944
0.0005324
0.000279137
0.000614462
0.00066971
0.00041196
0.000525875
0.000515479
0.000444478
0.0005203
0.000479348
0.000499288
0.00050017
0.00048291
0.000339321
0.000361594
0.000387279
0.000384871
0.000393686
0.000431887
0.000457103
0.000403285
0.000420317
0.000314366
0.000205742