/*--------------------------------*- C++ -*----------------------------------*\
  =========                 |
  \\      /  F ield         | OpenFOAM: The Open Source CFD Toolbox
   \\    /   O peration     | Website:  https://openfoam.org
    \\  /    A nd           | Version:  8
     \\/     M anipulation  |
\*---------------------------------------------------------------------------*/
FoamFile
{
    version     2.0;
    format      ascii;
    class       volScalarField;
    location    "17520";
    object      Hclip;
}
// * * * * * * * * * * * * * * * * * * * * * * * * * * * * * * * * * * * * * //

dimensions      [0 1 0 0 0 0 0];

internalField   nonuniform List<scalar> 
526318
(
1.57246
1.50663
1.57696
1.50448
1.56872
1.5302
1.52418
1.4539
1.53361
1.38129
1.39267
1.48751
1.44622
1.47115
1.43877
1.46182
1.44608
1.64125
1.53648
1.5913
1.58175
1.54083
1.29281
1.5476
1.41993
1.29113
1.56385
1.56324
1.57639
1.57747
1.62087
1.65229
1.64015
1.5154
1.51427
1.527
1.50013
1.58193
1.5062
1.46656
1.50146
1.51419
1.15529
1.21671
1.11472
1.16079
1.14963
1.2392
1.43473
1.32802
1.40571
1.45349
1.36986
1.34095
0.839263
1.07776
1.07424
0.875719
1.59085
1.61597
1.64048
1.57534
1.52296
1.66496
1.64472
1.61984
1.58555
1.60289
1.49886
1.50714
1.60425
1.38073
1.43049
1.33688
1.27779
1.27331
1.37219
1.36737
1.28962
1.3234
1.41164
1.40611
1.36942
1.31312
1.33594
1.41701
1.40539
1.40017
1.33967
1.41866
1.31548
1.26986
1.26077
1.19514
1.18637
1.19411
1.18636
1.18521
1.18535
1.18346
0.621542
0.567558
0.656615
0.688256
0.742864
0.525269
1.09434
0.909013
1.22342
1.18072
1.22832
1.34474
1.57124
1.45538
1.56003
1.57963
1.63657
1.62146
1.66409
1.18384
1.18617
1.17957
1.18984
1.14256
1.17658
1.0956
1.13692
1.04475
1.09724
1.04512
1.04484
1.03495
1.01092
1.00294
1.0318
0.97279
1.02624
0.975205
0.994055
0.94113
0.943066
0.964051
0.996981
0.983607
0.93617
0.939391
0.951386
0.942546
0.937087
0.942227
0.959643
0.94513
0.948996
0.947165
0.949685
0.915296
0.949614
0.949362
0.916881
0.875057
0.949886
0.899772
0.956404
1.45339
1.54933
1.48592
1.46219
1.28185
1.3432
1.27557
1.28311
1.27001
1.28528
1.30571
1.2769
1.20744
1.19229
1.15392
1.08589
1.14827
1.18847
1.19084
1.18823
1.07473
1.13124
1.01859
1.02339
1.03785
1.02577
1.02952
1.03145
1.01903
1.02309
1.01935
1.00407
0.985109
1.01365
1.00597
0.973514
0.954203
0.984417
0.968817
0.961532
0.979192
0.969269
0.971654
0.934515
0.955432
0.986093
0.982838
1.43218
1.46301
1.48812
1.4543
1.43959
1.44568
1.44154
1.28542
1.37057
1.09122
1.07648
1.07881
1.19727
1.31705
1.21807
1.23401
1.25944
1.19287
1.17639
0.681562
0.480419
0.818183
1.01989
0.271676
0.11542
0.407461
0.518162
0.479734
0.475718
1.63901
1.63317
1.67553
1.66735
1.63261
1.6155
1.53017
1.62164
1.47967
1.40828
1.41485
1.41369
1.42083
1.41351
1.39849
1.39862
1.31456
1.38557
1.19984
1.25451
1.18309
1.19043
0.00106144
0.001
0.384284
0.164915
0.658221
0.605194
0.663997
0.808419
1.19058
1.01043
1.23906
1.24701
1.36197
1.44952
1.58099
1.57994
1.60499
1.58497
1.65696
1.6858
1.16059
1.165
1.12047
1.09348
0.993019
1.02745
0.956831
0.963725
0.952979
0.950292
0.938223
0.941672
0.871806
0.894388
0.930729
0.96442
1.02314
0.986565
0.95337
0.945732
0.882929
0.872216
0.921828
0.979709
0.899886
0.937303
0.937517
0.90587
0.903937
0.871443
0.870741
0.831226
0.834432
0.83543
0.825416
0.9486
0.985245
0.946178
0.986869
1.34451
1.30933
1.20043
1.28785
1.21384
1.25876
1.27163
1.27331
1.28605
1.27386
1.18041
1.1151
1.03894
1.00854
1.09105
1.02787
1.0114
1.1307
1.01886
1.06284
1.00919
1.00359
1.01771
1.00788
1.02356
1.01735
1.01553
1.01956
1.01579
1.01656
1.02319
1.02083
1.02988
1.03115
1.03332
1.01025
1.02642
1.00946
0.985415
0.983478
1.0108
1.04003
1.03139
1.01103
0.993795
1.01666
1.05968
1.05655
1.06813
1.03219
1.06596
1.08285
1.11853
1.06899
1.07636
1.09907
1.13495
1.26143
1.30967
1.24459
1.28737
1.33262
1.42671
1.30968
1.19699
1.32506
1.21252
1.22264
0.967924
0.912746
0.947114
0.928152
1.04832
1.17374
1.10394
1.16502
1.16783
1.19729
1.15573
0.444757
0.590352
0.739552
0.585604
0.830207
0.710507
0.001
0.00104796
0.001
0.00100962
0.001
0.00381018
0.234606
0.465334
0.364965
0.382341
1.66233
1.6666
1.71132
1.68649
1.67032
1.64184
1.56547
1.47129
1.41574
1.42183
1.40519
1.39679
1.38338
1.38408
1.35926
1.36079
1.31084
1.35035
1.27775
1.21866
1.16209
1.12404
0.001
0.00107208
0.00107208
0.001
0.001
0.001
0.001
0.00107209
0.00107217
0.00107209
0.00100999
0.00100984
0.001
0.00100942
0.001
0.001
0.001
0.001
0.00240515
0.172269
0.634567
0.412364
0.72342
0.702862
0.893633
0.744575
1.10988
1.2628
1.28471
1.36748
1.5863
1.48485
1.61434
1.60343
1.61153
1.66132
1.67439
1.69202
1.08015
1.08037
1.03692
1.06027
0.999644
0.966945
0.956527
0.953527
0.948898
0.952866
0.905825
0.89981
0.848893
0.860341
0.917663
0.890276
0.861146
0.91053
0.905112
0.926375
0.832097
0.824359
0.844016
0.856045
0.856139
0.814945
0.817303
0.816236
0.820404
0.806061
0.803701
1.10187
1.0745
1.07473
1.07549
1.09545
1.202
1.16088
1.14055
1.02385
1.06777
1.05251
1.05589
0.957506
0.893022
1.07195
1.17989
1.05681
1.09063
1.06504
1.12818
1.12051
1.19354
1.23254
1.14607
1.14146
1.16102
1.03709
1.02449
1.01184
1.01573
0.924543
0.984469
0.910221
0.863189
0.834471
0.953819
0.961176
1.00668
1.00928
1.00929
1.01252
1.0076
1.01424
1.00904
1.02029
1.01203
1.03071
1.02466
1.03226
1.03133
1.05827
1.04404
1.07151
1.07213
1.02232
1.00642
1.06923
1.05554
1.04201
1.05734
1.04163
1.02888
1.07976
1.05852
1.16178
1.16625
1.1214
1.16047
1.17038
1.13517
1.22731
1.19887
1.26778
1.28763
1.31202
1.22933
1.23772
1.21722
1.19613
1.20828
1.15592
1.25015
1.09422
1.05787
1.10725
1.13184
0.811243
0.86861
0.943637
1.06611
1.09016
1.13752
1.03757
0.995354
0.954791
0.906621
0.265834
0.336367
0.630848
0.427264
0.744608
0.817235
0.001
0.001
0.00100979
0.001
0.001
0.001
0.29742
0.0532147
0.199629
0.216506
0.001
0.001
0.001
0.001
0.001
0.00101
0.001
0.001
0.001
0.001
0.00113497
0.001
0.001
0.00113474
0.00113478
0.0011348
0.001
0.001
0.001
0.001
0.001
0.001
0.001
0.001
0.00100959
0.001
0.00100965
0.001
0.001
0.001
1.66384
1.68112
1.7073
1.6839
1.67462
1.59688
1.41113
1.48667
1.38468
1.38404
1.3601
1.36222
1.35174
1.35896
1.3483
1.34378
1.28943
1.26798
1.16489
1.20351
1.06232
1.10138
0.001
0.001
0.001
0.001
0.001
0.001
0.001
0.001
0.00101
0.001
0.001
0.001
0.001
0.001
0.001
0.001
0.001
0.00100737
0.001
0.001
0.001
0.001
0.001
0.001
0.001
0.001
0.0990876
0.0670164
0.134419
0.313325
0.768449
0.568609
0.78316
0.781927
1.07724
0.91396
1.28607
1.255
1.31468
1.42401
1.5241
1.60536
1.6223
1.604
1.64977
1.68399
1.66024
1.64471
0.00114139
0.001
0.001
0.001
0.001
0.001
0.001
0.001
0.001
0.001
0.001
0.001
0.001
0.001
0.001
0.00101
0.001
1.06031
1.06298
1.06154
1.02968
0.949399
0.982213
0.907758
0.898122
0.863587
0.857057
0.814033
0.811339
0.84026
0.83635
0.798669
0.832522
0.83034
0.880103
0.862816
0.862112
0.783127
0.754065
0.750424
0.794615
0.802754
0.803993
0.780142
0.783367
0.74668
0.734979
0.698246
0.705189
1.29957
1.26634
1.30794
1.3169
1.26716
1.22211
1.39071
1.41313
1.47675
1.4867
1.03371
1.07537
1.12519
1.21042
1.03271
0.977798
1.01382
1.01347
0.852614
0.906792
0.955306
0.844371
1.0676
1.03786
1.05816
1.06219
1.07752
1.06251
1.06908
1.09436
0.959631
0.970822
0.857724
0.947304
0.931391
0.897228
0.838265
0.86987
0.81165
0.830045
0.802629
0.890458
0.956144
0.892187
0.958502
1.01111
1.01053
1.00964
1.00907
1.01531
1.03349
1.02411
1.04092
1.03731
1.05811
1.05216
1.07507
1.07502
1.07653
1.07686
1.08401
1.08074
1.12091
1.09025
1.05684
1.05751
1.1225
1.09118
1.09772
1.13812
1.17973
1.1783
1.17944
1.17863
1.20971
1.2619
1.32427
1.34405
1.35333
1.3314
1.47484
1.41175
1.53999
1.58011
1.57098
1.60947
1.66565
1.52987
1.61672
1.63947
1.71482
1.76329
1.78948
1.80924
1.83976
1.78378
1.83955
1.79733
1.87528
1.87702
1.92626
1.8945
1.95437
1.98632
1.97483
1.92449
1.98879
2.01261
1.97858
1.9761
2.04008
2.01749
2.05019
1.99024
1.98969
2.05421
2.02201
1.97499
1.97405
2.00689
2.03847
1.02822
0.99296
1.16635
1.14985
1.13474
1.12443
1.10886
0.890283
1.01934
0.722701
0.755219
0.848243
0.851804
0.715287
0.807657
0.781188
0.965507
0.862379
0.857943
0.764616
0.775218
0.797045
0.788926
0.330951
0.187015
0.61304
0.391963
0.606452
0.53929
0.00101
0.001
0.001
0.001
0.001
0.001
0.001
0.155427
0.078817
0.0884265
0.001
0.001
0.001
0.001
0.00137847
0.001
0.001
0.001
0.001
0.001
0.001
0.001
0.001
0.001
0.00100829
0.001
0.001
0.001
0.0010095
0.001
0.001
0.001
0.001
0.00100665
0.001
0.001
0.00101
0.001
0.00101323
0.001
0.00101358
0.00101352
0.001
0.001
0.0010146
0.00101421
0.001
0.001
0.001
0.001
0.001
0.001
0.001
0.001
0.0010078
0.001
0.001
0.001
0.001
0.001
0.001
0.001
0.001
0.00101
0.001
0.001
1.65708
1.62503
1.61537
1.60859
1.52497
1.6027
1.44276
1.35436
1.3607
1.35327
1.35441
1.35229
1.29658
1.29382
1.14381
1.1029
1.06218
1.23462
1.23318
1.18919
1.18345
1.18273
0.001
0.001
0.00115548
0.00115548
0.001
0.001
0.001
0.001
0.0011555
0.001
0.001
0.00100893
0.001
0.001
0.001
0.001
0.001
0.001
0.001
0.001
0.148509
0.001
0.197109
0.192436
0.431146
0.22914
0.630523
0.784218
0.910502
0.783923
1.07782
1.24288
1.27774
1.30366
1.39854
1.50055
1.56952
1.53573
1.57755
1.52241
1.58073
1.61436
1.57112
1.57022
0.00101
0.001
0.00100993
0.001
0.001
0.00119212
0.001
0.001
0.00119212
0.001
0.001
0.001
0.001
0.001
0.00101052
0.001
0.001
0.001
0.00101
0.001
0.001
0.001
0.001
0.001
0.00220252
0.00100869
1.038
1.0362
0.957671
0.973613
0.851864
0.872983
0.810461
0.811044
0.809092
0.81073
0.782279
0.784721
0.755994
0.754109
0.733687
0.773242
0.853318
0.814848
0.85411
0.853907
0.671034
0.693539
0.73449
0.710472
0.722842
0.725575
0.674387
0.664363
0.650136
0.66544
0.672517
0.670568
1.52146
1.52112
1.35004
1.26301
1.25208
1.23793
1.51835
1.43042
1.6779
1.75314
1.64956
1.57346
1.76623
1.74903
1.81531
1.86258
1.89273
1.89364
1.92077
1.89424
1.94884
1.97464
1.97022
1.97088
1.98827
1.97394
1.97508
2.02199
1.96471
1.95891
1.08533
1.01266
1.15426
1.22776
1.01329
0.959692
1.01369
1.01337
0.842463
0.897248
0.736196
0.897947
0.770837
1.0651
0.997931
1.04936
1.05579
1.05625
0.94567
0.863938
0.778277
0.760997
0.77717
0.809057
0.733571
0.726873
0.654578
0.735432
0.823783
0.813021
0.73455
0.834638
0.904157
0.854366
0.957647
0.908016
0.94781
1.00275
1.03828
1.01273
1.04473
1.04753
1.0578
1.04716
1.08205
1.09175
1.09232
1.1067
1.11173
1.11334
1.14419
1.15707
1.14693
1.14197
1.14444
1.13662
1.15406
1.16991
1.21757
1.21005
1.17975
1.20877
1.20485
1.23938
1.27234
1.33223
1.3637
1.36432
1.37503
1.44445
1.52765
1.60065
1.61508
1.73962
1.61376
1.66635
1.81741
1.83934
1.84198
1.87737
1.92704
1.97491
1.9864
1.98903
2.01656
2.04492
2.07093
2.07086
2.07178
2.06952
2.07257
2.05335
1.9896
2.05341
2.02147
1.97398
1.97546
2.00724
2.04034
2.05019
1.97495
2.03638
1.9958
0.823588
0.810156
0.875188
0.956186
0.858886
0.92295
1.06123
0.995127
1.02139
0.856274
0.757331
0.725878
0.714192
0.813342
0.821861
0.461318
0.59342
0.765869
0.650536
0.771831
0.759851
0.777724
0.78446
0.791446
0.809905
0.001
0.150188
0.253965
0.431306
0.464251
0.43362
0.001
0.001
0.001
0.00101307
0.001
0.001
0.001
0.001
0.001
0.001
0.001
0.00137823
0.001
0.00101
0.001
0.001
0.001
0.001
0.001
0.001
0.00105185
0.001
0.001
0.001
0.001
0.001
0.001
0.001
0.001
0.001
0.001
0.001
0.001
0.001
0.001
0.001
0.001
0.001
0.001
0.001
0.001
0.001
0.001
0.00101
0.001
0.00100962
0.001
0.001
0.001
0.001
0.001
0.001
0.001
0.001
1.56369
1.54974
1.55312
1.55227
1.48531
1.55158
1.35696
1.40845
1.31269
1.31089
1.25951
1.24199
1.18104
1.19055
1.09841
0.996835
0.973559
1.14086
1.18466
1.18737
1.18036
1.18594
0.00115554
0.001
0.00115553
0.001
0.001
0.001
0.001
0.001
0.00100548
0.001
0.001
0.001
0.001
0.001
0.001
0.00100999
0.001
0.001
0.001
0.001
0.0479109
0.185589
0.251989
0.215268
0.418568
0.596714
0.749818
0.7843
0.977562
0.810395
1.11912
1.25505
1.22231
1.33471
1.50232
1.40057
1.48746
1.48649
1.46454
1.49959
1.56838
1.54375
1.56448
1.54281
0.001
0.001
0.001
0.001
0.001
0.001
0.001
0.001
0.001
0.001
0.001
0.001
0.001
0.001
0.001
0.001
0.001
0.001
0.001
0.00100999
0.001
0.001
0.00205209
0.001
0.00101
0.001
0.001
0.001
0.001
0.001
0.001
0.912265
0.91163
0.875301
0.855282
0.811857
0.832527
0.799065
0.798718
0.952814
0.896183
0.875462
0.726068
0.73787
0.668118
0.668533
0.735279
0.733432
0.727898
0.767428
0.827318
0.781029
0.816468
0.799363
0.693374
0.671109
0.684447
0.708382
0.636723
0.633052
0.633814
0.64603
0.660807
0.648642
0.613371
0.621271
2.0942
2.10588
2.13405
2.10826
2.15743
2.14038
2.16708
2.1542
2.2102
2.1975
2.16785
2.21702
2.17658
2.23499
2.06346
2.01498
2.03521
2.08571
2.06636
2.035
2.03906
2.09207
2.09621
2.07126
2.05215
2.10443
2.09031
2.09741
2.12385
1.97365
1.97463
1.9739
1.97274
1.99163
2.01341
1.56735
1.51139
1.40888
1.31148
1.22491
1.3018
1.50244
1.48401
1.72484
1.74849
1.63379
1.71675
1.75651
1.80378
1.85271
1.89302
1.89158
1.89193
1.88913
1.91903
1.93161
1.9577
1.94418
1.94745
1.95082
1.96083
1.93837
1.93835
1.13567
1.06348
1.00729
0.996628
1.05482
1.22788
1.20498
0.935663
0.993893
0.866083
0.797344
2.08213
2.10342
2.11842
2.12507
2.13109
2.14166
2.14476
2.17248
2.15767
2.17505
2.172
2.22477
2.24709
2.27083
2.27166
2.27509
2.28644
2.30748
0.77592
0.718491
0.721522
0.983077
0.868399
1.04397
0.937235
0.872829
0.76407
0.761355
0.758722
0.765145
0.611263
0.687803
0.539879
0.560945
0.64577
0.561625
0.828449
0.760067
0.65048
0.850342
0.8554
0.850705
0.906226
0.869417
0.989786
0.938879
1.02303
0.986921
1.02048
1.04801
1.07154
1.09428
1.11703
1.11963
1.12635
1.12279
1.17657
1.16632
1.157
1.15411
1.20885
1.18157
1.25157
1.21229
1.19295
1.23615
1.2823
1.27193
1.29799
1.32995
1.33125
1.28034
1.38488
1.41714
1.38738
1.3744
1.45877
1.54085
1.61491
1.68013
1.62828
1.64641
1.77655
1.83272
1.87934
1.85678
1.92593
1.95345
1.99497
2.01257
2.00494
2.02344
2.08121
2.06113
2.07396
2.08039
2.07419
2.07101
2.07302
2.06991
2.0716
2.07357
2.07242
0.800567
0.788627
0.823377
0.735383
0.763951
0.777423
0.720012
0.856445
0.763816
0.700584
0.719363
0.695616
0.59959
0.696868
0.714558
0.500085
0.494683
0.436181
0.554698
0.756635
0.658523
0.66812
0.677416
0.467614
0.36148
0.130777
0.172873
0.0792914
0.00102475
0.001
0.451312
0.271617
0.441396
0.426401
0.001
0.001
0.001
0.001
0.001
0.001
0.00100984
0.001
0.00101784
0.001
0.001
0.001
0.00101
0.001
0.001
0.001
0.001
0.00238998
0.001
0.001
0.001
0.001
0.001
0.001
0.00100993
0.001
0.001
0.001
0.001
0.001
0.00101015
0.001
0.001
0.001
0.001
0.00101
0.001
0.001
0.001
0.001
0.001
0.001
0.001
0.001
0.00101
0.001
0.001
0.001
0.001
0.001
0.001
0.001
0.001
0.001
0.001
0.00213991
0.001
0.001
0.001
0.001
0.00213988
2.26887
2.2282
2.19139
2.30066
2.33874
2.33472
1.55201
1.55022
1.53516
1.52189
1.44503
1.51324
1.35712
1.27794
1.20556
1.21301
1.18773
1.17491
1.1868
1.18638
1.05794
0.98062
1.07007
1.14809
1.14493
0.001
0.001
0.001
0.001
0.001
0.001
0.001
0.001
0.001
0.001
0.00100943
0.001
0.001
0.748986
0.782009
0.80989
0.00100998
0.001
0.001
0.001
0.0368813
0.001
0.21203
0.243279
0.403825
0.273127
0.583366
0.950704
1.09059
1.2054
1.20409
1.52097
1.43553
1.45328
1.24129
1.34358
1.41951
1.47509
1.49018
1.48068
1.48333
1.52374
1.5038
0.001
0.00116951
0.001
0.001
0.001
0.001
0.00100904
0.001
0.001
0.001
0.001
0.001
0.001
0.001
0.001
0.001
0.001
0.00100504
0.001
0.001
0.001
0.001
0.001
0.001
0.001
0.001
0.001
0.001
0.001
0.001
0.00101
0.001
0.001
0.001
0.001
0.001
0.001
0.909145
0.942094
0.933728
0.876352
0.873969
0.847861
0.867546
0.736197
0.76476
0.678166
0.675554
0.878773
0.869892
0.630195
0.630622
0.632747
0.636714
0.686818
0.665428
0.704328
0.650441
0.772924
0.723736
0.770757
0.781939
0.615077
0.568225
0.591598
0.625489
0.602658
0.604102
0.543899
0.57846
0.559494
0.540783
0.518763
0.517768
2.09636
2.11202
2.13684
2.151
2.15904
2.16144
2.21083
2.17826
2.02761
2.02574
2.01043
2.03117
2.06419
2.02646
2.06729
2.04677
1.96101
1.94906
1.94805
1.97889
2.0076
1.98215
1.57289
1.49411
1.38738
1.47885
1.32713
1.23692
1.48998
1.49202
1.7315
1.73531
1.74965
1.64576
1.72433
1.83719
1.78355
1.72624
1.76852
1.86982
1.88239
1.87336
1.87933
1.88687
1.91012
1.93686
1.92654
1.93702
1.93638
1.93627
1.9365
1.93652
1.93675
0.978891
0.984176
1.12171
1.20431
0.981337
1.06422
1.21829
1.23578
0.973036
0.913909
0.823089
0.891831
2.11331
2.07321
2.09223
2.13657
2.13547
2.13722
2.1466
2.16853
2.18972
2.20154
2.20175
2.20647
2.23048
2.26897
2.25288
2.27165
2.2887
2.33463
2.3109
2.14318
2.15433
2.16928
2.33716
2.33694
2.33802
0.716852
0.72
0.728165
0.708958
0.783164
0.818378
0.604458
0.653347
0.678486
0.572511
0.606191
0.609804
0.531431
0.541141
0.54374
0.541336
0.571392
0.609212
0.706655
0.639885
0.632165
0.780175
0.853926
0.774273
0.925822
0.952634
0.88952
0.924589
0.986082
0.951665
1.07901
1.02078
1.09495
1.10774
1.11735
1.10872
1.15878
1.19523
1.23395
1.2311
1.23642
1.22337
1.24898
1.23255
1.28025
1.28386
1.30685
1.3073
1.28636
1.28593
1.40818
1.45057
1.35359
1.41332
1.46328
1.42304
1.52542
1.56962
1.66836
1.70723
1.68265
1.77666
1.82876
1.93292
1.91475
1.97509
1.95285
2.04658
2.0492
2.04226
2.07363
2.09904
2.09827
2.15223
2.11934
2.14508
2.1084
2.11085
2.14251
2.07513
2.11425
2.07498
0.18914
0.494844
0.180389
0.454374
0.733028
0.716382
0.716766
0.694185
0.714757
0.575045
0.466726
0.469472
0.369645
0.563381
0.433462
0.465331
0.591028
0.001
0.001
0.215937
0.331461
0.343738
0.136944
0.024667
0.0259883
0.001
0.001
0.001
0.00101802
0.00102345
0.001
0.001
0.001
0.183131
0.001
0.001
0.0010004
0.001
0.001
0.001
0.001
0.001
0.00221423
0.001
0.001
0.001
0.001
0.001
0.00101
0.001
0.001
0.00221616
0.001
0.001
0.001
0.00100982
0.00134106
0.001
0.00100983
0.001
0.001
0.001
0.00101
0.001
0.00100999
0.00101006
0.001
0.001
0.00100971
0.00101005
0.001
0.001
0.001
0.001
0.00165122
0.001
0.00165112
0.001
0.001
0.001
0.001
0.00100984
0.00101
0.00100994
0.001
0.001
0.001
0.001
0.001
0.001
0.001
0.001
0.001
0.001
0.00134101
0.001
0.00100958
0.00100997
0.001
0.001
0.001
0.001
0.00101
2.25092
2.22309
2.23233
2.23863
2.2682
2.37476
2.35102
2.35851
2.38063
2.32257
1.44878
1.43764
1.38742
1.37597
1.34834
1.37215
1.26479
1.23639
1.22705
1.18881
1.16212
1.14819
1.06844
1.07997
0.948325
0.986827
0.98907
0.001
0.001
0.001
0.00101
0.001
0.001
0.001
0.781108
0.920915
0.783227
0.001
0.001
0.001
0.001
0.650209
0.483086
0.00101
0.001
0.001
0.001
0.244943
0.103812
0.286119
0.284165
0.315061
1.32587
1.33733
1.36954
1.06662
1.20628
1.20503
1.23878
1.35995
1.42976
1.38873
1.3072
1.37605
1.40238
1.40232
1.34162
1.37197
0.001
0.001
0.00116954
0.00101
0.001
0.001
0.00101
0.00117366
0.001
0.001
0.001
0.001
0.001
0.001
0.001
0.00103018
0.001
0.00103027
0.00103019
0.00101
0.001
0.001
0.001
0.001
0.001
0.00100577
0.001
0.001
0.001
0.001
0.00110441
0.001
0.00100563
0.001
0.001
0.001
0.001
0.001
0.001
0.001
0.001
0.001
0.001
0.001
0.00103023
0.925079
0.938501
0.945757
0.816199
0.834927
0.796845
0.793859
0.722399
0.713529
0.627988
0.6387
0.627795
0.628416
0.726865
0.725048
0.578448
0.576137
0.543379
0.520024
0.616734
0.608673
0.632542
0.688844
0.767085
0.730714
0.796728
0.748729
0.554691
0.52209
0.584136
0.610326
0.48402
0.482847
0.458328
0.478126
0.520115
0.501234
0.518548
0.524718
2.10605
2.05576
2.14368
2.0918
2.10945
2.14768
2.1211
2.18734
2.12483
2.21395
2.16766
2.16516
2.22329
2.20621
1.99326
1.99234
1.98382
1.99623
2.01116
2.02244
2.02359
2.03585
1.93575
1.93644
1.95844
1.94428
1.97469
1.98151
1.57553
1.49626
1.41376
1.49242
1.28593
1.38076
1.49127
1.49972
1.72331
1.72486
1.72674
1.65265
1.81355
1.86094
1.77195
1.72395
1.86673
1.86649
1.88055
1.86607
1.90247
1.92643
1.93327
1.9351
1.93488
1.93155
1.93676
1.93629
1.93491
1.93235
0.977618
0.970751
1.13891
1.21651
1.11855
1.0355
1.27241
1.21423
0.947302
0.972771
0.943444
0.857735
2.11498
2.15046
2.13182
2.15768
2.17587
2.16531
2.19962
2.21107
2.18881
2.20114
2.19128
2.20161
2.20561
2.22957
2.25277
2.26858
2.27019
2.32098
2.29863
2.34767
2.35532
2.22402
2.23763
2.35257
2.36364
0.46365
0.618986
0.494468
0.588835
0.529833
0.501511
0.447456
0.419051
0.448757
0.47892
0.367938
0.42736
0.426952
0.312986
0.39073
0.518117
0.639418
0.553469
0.646421
0.642216
0.631902
0.706482
0.849511
0.75998
0.940439
0.941666
0.905222
0.859142
0.976815
1.0228
1.08161
1.06792
1.09263
1.08262
1.20078
1.15133
1.25161
1.24097
1.2663
1.27241
1.24689
1.30232
1.34686
1.32045
1.30479
1.33302
1.38218
1.36861
1.35128
1.39326
1.47881
1.47534
1.47295
1.49106
1.6189
1.53583
1.70518
1.72967
1.73153
1.79691
1.87668
1.9498
1.96203
1.96988
2.02173
2.0649
2.10393
2.10066
2.13893
2.11408
2.1645
2.1805
2.17878
2.18098
2.17858
2.18223
2.14799
2.18135
2.14891
0.00116816
0.001
0.00416975
0.001
0.129074
0.424295
0.115882
0.595889
0.449154
0.455286
0.309959
0.324115
0.328948
0.325605
0.321638
0.342671
0.328647
0.330779
0.33859
0.00391505
0.001
0.001
0.001
0.001
0.001
0.001
0.00100363
0.001
0.001
0.00100217
0.001
0.001
0.001
0.001
0.00101
0.00220647
0.001
0.001
0.00100986
0.001
0.001
0.001
0.0018905
0.001
0.001
0.001
0.001
0.001
0.001
0.001
0.001
0.001
0.00100941
0.001
0.001
0.001
0.00100992
0.001
0.001
0.001
0.00101
0.001
0.001
0.001
0.001
0.001
0.001
0.0010008
0.001
0.001
0.001
0.00100949
0.001
0.001
0.001
0.001
0.001
0.001
0.001
0.001
0.001
0.001
0.00101
0.001
0.001
0.001
0.001
0.001
0.001
0.001
0.001
0.001
0.001
0.001
0.001
0.001
0.001
0.001
0.001
0.001
0.001
0.001
0.001
0.001
0.001
0.001
0.001
0.001
0.001
0.001
0.001
0.001
0.00106322
0.001
0.001
0.001
0.001
2.40239
2.39324
2.40913
2.40297
2.41981
2.41326
2.24757
2.24744
2.3271
2.28674
2.3694
2.40518
2.36521
2.26339
2.25286
1.31815
1.32096
1.30892
1.30676
1.32085
1.25692
1.28029
1.0813
1.1364
1.00089
0.997395
0.946172
0.947733
0.94719
0.001
0.001
0.001
0.001
0.752276
0.944107
0.783815
0.001
0.001
0.735319
0.626142
0.001
0.001
0.001
0.001
0.32436
0.467806
0.00101128
0.00101163
0.001
0.001
0.286009
0.140593
0.297157
1.31301
1.31249
1.32282
1.30238
1.32137
1.03506
1.14452
1.09074
1.20962
1.27376
1.30877
1.2291
1.3175
1.26584
1.26568
1.24166
0.001
0.00108237
0.001
0.001
0.001
0.001
0.001
0.00101449
0.001
0.001
0.0010124
0.001
0.001
0.001
0.00101964
0.001
0.001
0.001
0.001
0.001
0.001
0.001
0.001
0.001
0.001
0.00100955
0.001
0.001
0.001
0.001
0.001
0.001
0.001
0.001
0.001
0.001
0.00111112
0.001
0.00110324
0.001
0.001
0.001
0.001
0.001
0.00100037
0.001
0.001
0.001
0.001
0.001
0.001
0.001
0.001
0.001
0.001
0.001
0.001
0.925882
0.852615
0.840764
0.771732
0.764556
0.68267
0.668488
0.659125
0.657231
0.650292
0.656902
0.589937
0.596904
0.521026
0.512113
0.657388
0.66473
0.452419
0.442437
0.448667
0.455374
0.728344
0.793159
0.711489
0.609545
0.589834
0.666669
0.597344
0.681512
0.522056
0.49012
0.551782
0.506925
0.457384
0.454663
0.452686
0.474021
0.471532
0.448558
0.436534
0.421781
2.03709
2.04707
2.06481
2.07283
2.0678
2.08166
2.17931
2.14956
2.13192
2.09395
2.20505
2.15992
2.15327
1.98267
1.98289
2.01005
1.99822
2.01904
2.0227
2.05026
2.02983
1.93694
1.94308
1.96618
1.95101
1.96612
1.97319
1.61479
1.53467
1.45639
1.49498
1.44162
1.3466
1.53187
1.4939
1.72813
1.72858
1.68792
1.73325
1.82008
1.86874
1.73041
1.77724
1.86976
1.8686
1.89143
1.8705
1.91149
1.9313
1.92965
1.9302
1.92972
1.93016
1.93389
1.93243
1.93015
1.9301
0.968832
1.03043
1.21661
1.19263
1.11473
1.19918
1.21681
1.29377
0.965252
0.959631
0.955899
0.87165
0.708955
0.752405
0.835915
2.18341
2.18663
2.21358
2.20398
2.22967
2.23984
2.24091
2.23998
2.27635
2.25626
2.26822
2.23333
2.26508
2.27585
2.29993
2.32067
2.33365
2.33065
2.38065
2.38346
2.40599
2.38216
2.29535
2.30035
2.41839
2.41555
0.240688
0.308489
0.18278
0.415395
0.329502
0.41085
0.421301
0.398884
0.336794
0.267966
0.205265
0.201204
0.234373
0.276156
0.455727
0.358551
0.351123
0.540674
0.693305
0.657785
0.503466
0.747466
0.790288
0.804447
0.788225
0.889543
0.959406
0.840891
1.06659
0.999196
1.07263
1.07893
1.16823
1.10746
1.22959
1.26019
1.25555
1.26023
1.38445
1.34854
1.31724
1.37254
1.39728
1.39228
1.38677
1.37765
1.39213
1.39278
1.4733
1.51693
1.5529
1.50862
1.55471
1.57874
1.71817
1.64972
1.74253
1.73065
1.81231
1.88677
1.9772
1.96898
2.00937
2.04191
2.11709
2.11121
2.12844
2.1374
2.16367
2.17224
2.19017
2.18442
2.19406
2.19204
2.18277
2.19232
2.1821
2.18062
0.001
0.001
0.00101
0.001
0.001
0.001
0.001
0.001
0.001
0.327969
0.356422
0.00108611
0.066072
0.32579
0.330791
0.339197
0.327374
0.328924
0.342841
0.270777
0.182035
0.00100986
0.001
0.001
0.001
0.00100179
0.001
0.001
0.001
0.001
0.001
0.00101
0.001
0.001
0.00100863
0.0019465
0.001
0.001
0.001
0.0037782
0.001
0.001
0.001
0.00100938
0.001
0.001
0.001
0.00100983
0.001
0.001
0.00100647
0.001
0.00100976
0.001
0.001
0.001
0.001
0.001
0.00355376
0.001
0.001
0.001
0.001
0.001
0.00128822
0.00128814
0.00128816
0.001
0.001
0.001
0.001
0.001
0.001
0.001
0.001
0.001
0.001
0.001
0.001
0.001
0.001
0.001
0.001
0.001
0.001
0.001
0.001
0.001
0.001
0.001
0.001
0.001
0.001
0.001
0.001
0.001
0.001
0.001
0.001
0.001
0.001
0.001
0.001
0.001
0.001
0.001
0.00101
0.001
0.00154509
0.001
0.00108201
0.001
0.00106977
0.001
0.001
0.001
2.42659
2.44992
2.457
2.4105
2.41842
2.40734
2.41128
2.2946
2.3199
2.34007
2.35258
2.34555
2.38137
2.41134
2.24545
2.29339
2.21321
2.25267
2.25449
1.31189
1.3192
1.22173
1.1731
1.28305
1.21233
1.21545
1.08194
1.10299
0.972486
0.949432
0.949426
0.948019
0.924794
0.001
0.001
0.868284
0.974528
0.750857
0.001
0.001
0.707537
0.703587
0.001
0.001
0.444906
0.578111
0.001
0.001
0.001
0.001
0.307245
0.311545
0.001
0.00101851
0.001
0.0793966
0.234034
1.27839
1.32731
1.30415
1.26537
1.03462
1.04077
1.06321
1.1233
1.23934
1.24879
1.20092
1.23759
1.25152
0.00100999
0.001
0.001
0.001
0.001
0.001
0.00114459
0.00114217
0.001
0.001
0.00101
0.00100946
0.001
0.001
0.001
0.001
0.001
0.0370766
0.001
0.001
0.001
0.001
0.001
0.001
0.001
0.00111233
0.001
0.001
0.00101
0.001
0.001
0.001
0.001
0.001
0.001
0.001
0.001
0.001
0.001
0.001
0.001
0.001
0.001
0.001
0.001
0.001
0.001
0.001
0.001
0.119633
0.00271699
0.0379987
0.0679409
0.001
0.001
0.001
0.001
0.001
0.001
0.001
0.001
0.001
0.001
0.843583
0.756863
0.758223
0.69983
0.700011
0.674997
0.68953
0.657136
0.700188
0.628922
0.627901
0.536597
0.554171
0.458639
0.462094
0.433436
0.432869
0.586133
0.550566
0.436402
0.425782
0.434635
0.42788
0.653664
0.697705
0.539239
0.509472
0.579232
0.6984
0.760117
0.714615
0.442182
0.402659
0.465087
0.48945
0.388938
0.372448
0.36641
0.333206
0.368136
0.342644
0.363288
0.378803
2.13306
2.06929
2.07819
2.09765
2.01647
2.09771
2.11161
2.12601
2.13213
2.17701
2.11497
2.20913
2.17797
2.24065
1.96513
1.98607
1.98306
2.00443
1.98687
2.01502
2.01192
2.00184
1.9323
1.94079
1.94824
1.95688
1.95611
1.95622
1.66823
1.58696
1.47616
1.49573
1.39732
1.4898
1.50016
1.55817
1.73466
1.7338
1.73431
1.71072
1.82523
1.87199
1.79142
1.74465
1.8722
1.87327
1.87932
1.89947
1.93027
1.9172
1.92988
1.92966
1.93024
1.92998
1.93048
1.93049
1.93036
1.93005
1.052
0.958058
1.22456
1.22594
1.1393
1.23284
1.22838
1.32973
0.955592
0.955807
0.935526
0.91717
0.856451
0.956356
2.19482
2.21499
2.23501
2.26926
2.26404
2.28333
2.29746
2.30533
2.3138
2.30127
2.30861
2.32993
2.35058
2.36289
2.36296
2.3753
2.3949
2.41467
2.42591
2.42493
2.43721
2.31142
2.30105
2.45545
2.47256
0.0575809
0.0969322
0.072188
0.167071
0.281305
0.356983
0.265872
0.274801
0.193193
0.208604
0.200781
0.221104
0.335836
0.270213
0.352969
0.345888
0.356939
0.418147
0.481624
0.660471
0.583777
0.742851
0.828522
0.819884
0.736675
0.885033
0.891648
0.985537
1.04797
1.01271
1.09263
1.0328
1.22628
1.15332
1.26287
1.25885
1.27473
1.33481
1.46332
1.46885
1.40936
1.44034
1.46915
1.41616
1.52699
1.45414
1.43244
1.46585
1.59881
1.61126
1.67048
1.72818
1.60841
1.70338
1.84138
1.79538
1.86366
1.83062
2.02667
1.99239
2.05825
2.07612
2.14737
2.15515
2.21852
2.18226
2.23141
2.21306
2.23265
2.26554
2.23915
2.26825
2.27585
2.2366
2.22672
2.26686
2.26536
2.23812
0.001
0.001
0.00101
0.001
0.001
0.001
0.001
0.001
0.001
0.001
0.001
0.001
0.0669476
0.001
0.001
0.148523
0.001
0.324591
0.159431
0.247517
0.33334
0.174559
0.0751923
0.001
0.00114983
0.001
0.001
0.001
0.001
0.001
0.00143864
0.00100993
0.001
0.001
0.001
0.001
0.001
0.00100156
0.001
0.001
0.001
0.001
0.001
0.001
0.001
0.001
0.00101243
0.00101246
0.00101255
0.001
0.001
0.001
0.001
0.00124622
0.001
0.001
0.00124615
0.001
0.001
0.001
0.00100996
0.00154503
0.001
0.00120643
0.001
0.001
0.001
0.001
0.00101
0.001
0.001
0.001
0.001
0.001
0.001
0.001
0.001
0.001
0.001
0.001
0.001
0.001
0.001
0.001
0.001
0.001
0.001
0.001
0.001
0.001
0.001
0.001
0.001
0.001
0.001
0.001
0.001
0.001
0.001
0.001
0.001
0.001
0.001
0.001
0.001
0.001
0.001
0.001
0.001
0.001
0.001
0.001
0.001
0.001
0.001
0.001
0.001
0.00108201
0.001
0.001
0.001
0.00120644
0.001
0.001
2.4798
2.46261
2.47964
2.45624
2.43496
2.46826
2.45104
2.43247
2.45193
2.3013
2.33043
2.35334
2.34607
2.40717
2.44402
2.47579
2.37945
2.26251
2.28083
2.24036
2.24896
2.24349
2.28835
2.17327
1.07596
1.17463
1.07135
1.11032
1.11072
1.03671
1.02512
1.02381
1.03667
1.02376
0.999305
0.924424
0.897117
0.81708
0.813742
0.927049
1.03555
0.001
0.001
0.704182
0.70247
0.001
0.00100999
0.637243
0.509777
0.00100155
0.001
0.380356
0.315602
0.001
0.001
0.001
0.313996
0.239787
0.001
0.0286984
0.132898
1.18411
1.1059
1.08254
1.178
1.03756
1.05764
1.19862
1.12885
1.17663
1.2449
1.24566
0.00109714
0.001
0.001
0.001149
0.001
0.001
0.00114352
0.001
0.001
0.001
0.00100995
0.001
0.001
0.001
0.001
0.001
0.0389312
0.037498
0.0382395
0.0197096
0.0378817
0.0376556
0.0379851
0.0383977
0.001
0.001
0.001
0.00373506
0.001
0.00100998
0.00369382
0.001
0.001
0.001
0.001
0.001
0.001
0.001
0.001
0.001
0.001
0.001
0.001
0.00101
0.001
0.156316
0.172642
0.124819
0.177476
0.202701
0.261376
0.160816
0.001
0.310564
0.340446
0.0880272
0.0345556
0.001
0.001
0.001
0.001
0.001
0.001
0.001
0.001
0.001
0.001
0.001
0.001
0.001
0.001
0.001
0.001
0.69828
0.699173
0.730457
0.69974
0.701366
0.699074
0.696616
0.510488
0.517472
0.600123
0.613411
0.482189
0.486748
0.439896
0.437691
0.439155
0.435421
0.402007
0.401299
0.447977
0.437681
0.341961
0.329952
0.297332
0.311906
0.622271
0.550875
0.487791
0.703593
0.607434
0.738745
0.837988
0.760582
0.440706
0.398407
0.502623
0.478392
0.272841
0.273967
0.284361
0.313367
0.336879
0.361606
0.397786
0.37814
2.02515
2.04617
2.03773
2.05458
2.04424
2.07966
2.04627
2.08227
2.11116
2.14251
2.13654
2.13765
2.17731
2.14458
2.23958
1.95592
1.9599
1.96467
1.96857
1.96642
1.96825
1.97996
2.0006
1.98598
1.93527
1.94368
1.95149