/*--------------------------------*- C++ -*----------------------------------*\
  =========                 |
  \\      /  F ield         | OpenFOAM: The Open Source CFD Toolbox
   \\    /   O peration     | Website:  https://openfoam.org
    \\  /    A nd           | Version:  8
     \\/     M anipulation  |
\*---------------------------------------------------------------------------*/
FoamFile
{
    version     2.0;
    format      ascii;
    class       volScalarField;
    location    "20760";
    object      alpha;
}
// * * * * * * * * * * * * * * * * * * * * * * * * * * * * * * * * * * * * * //

dimensions      [0 0 -1 0 0 0 0];

internalField   nonuniform List<scalar> 
526318
(
0.000240889
0.000176954
8.14198e-05
0.000253845
0.000100613
0.000320574
0.000202331
0.000207805
6.90039e-05
0.000220572
0.000183523
0.000235125
0.000188698
0.000280914
0.000151269
0.00016243
0.000230816
0.000207833
0.000200922
0.000187447
0.000379346
7.84464e-05
0.000114636
8.0844e-05
0.00023018
8.55852e-05
0.000184498
0.000206114
5.56775e-05
0.00013858
0.00019595
0.000131697
3.36991e-05
0.000102897
3.33493e-05
0.000200874
0.000249488
0.000159275
0.0003193
0.000334956
0.000333139
0.00021554
0.000208896
0.000246726
0.000230035
0.000259343
0.000282413
0.000287773
0.000165697
0.000310114
0.000233809
0.000160461
0.0003713
0.000226219
0.000166699
0.000187799
0.000153315
0.000158125
6.12136e-05
0.000172855
0.000186967
0.000163448
0.000164279
9.65215e-05
0.000179093
0.000199684
8.13708e-05
0.000216211
8.41844e-05
6.8615e-05
5.59228e-05
0.00021451
8.90225e-05
0.00014615
9.97671e-05
0.000247463
0.000204739
0.000294998
0.00019225
0.000320191
0.000120038
0.000102293
0.000146695
0.000167425
0.000239363
0.000220194
0.000205078
0.000169983
0.000203017
8.25726e-05
0.000203393
0.000188937
0.000128889
0.000240239
0.000221224
6.12127e-05
0.000293377
0.000219672
0.000179899
0.000205827
0.000530918
0.000450136
0.000290632
8.97866e-05
0.000367374
0.000568557
0.000243689
0.000198531
0.00023172
0.000167643
5.29165e-05
0.000247229
0.00016724
0.000254831
0.000162191
0.00018771
6.87386e-05
9.45822e-05
0.000128861
0.000101332
0.000206883
5.55961e-05
0.000161302
0.000150685
8.12355e-05
9.17703e-05
0.000173505
3.41205e-05
7.22824e-05
2.79217e-05
4.08914e-05
3.14252e-05
5.44981e-05
3.63706e-05
6.53412e-05
7.35008e-05
7.21203e-05
8.41527e-05
9.02704e-05
6.13554e-05
0.000112321
9.82994e-05
6.63508e-05
4.3252e-05
0.000115025
7.81543e-05
0.000106373
0.000118856
6.52345e-05
0.000118428
8.73065e-05
0.000225635
0.000402034
3.91033e-05
0.00018166
0.000432005
0.00032335
0.000440592
9.82925e-05
0.000294805
0.000192614
0.000381761
0.000568458
0.000210008
7.66495e-05
0.000185779
0.000145367
0.000186797
0.000183554
0.000106253
0.000206823
0.000195933
0.000145086
0.000245302
0.000247589
0.000249312
0.000190744
0.000157264
0.000266287
0.000216596
0.000125234
0.000244835
0.000101571
0.000108813
0.000179126
9.54016e-05
6.16597e-05
2.94546e-05
8.21495e-05
7.97712e-05
4.50823e-05
6.89584e-05
3.21826e-05
4.03474e-05
9.17926e-05
9.10169e-05
6.6434e-05
6.38125e-05
0.000166097
7.28051e-05
0.00012906
9.21728e-05
0.000150424
0.00028999
1.51137e-05
0.000311599
0.00024102
0.000208645
0.000202725
0.000169795
0.000404956
0.000133025
9.95056e-05
0.000208636
0.000249524
0.000177702
0.00014195
0.000283104
0.000304848
0.00026636
0.000147855
0.000162882
0.00017655
0.000337524
4.95787e-05
0.000230753
0.000224795
0.000238393
0.000162394
0.000223963
0.000237044
6.37132e-05
0.000179659
0.00248356
0.00323225
0.000934376
0.000751813
0.000614088
0.0004403
0.000126068
0.000117491
0.000136683
0.00011368
0.000187814
0.000118528
0.000136956
0.000197351
0.000151954
6.98572e-05
4.76259e-05
0.000183711
0.000239468
0.000187258
0.000192798
9.93767e-05
0.000100964
0.000199537
0.000120219
0.000168994
0.000177671
0.000165047
0.00226392
0.00580525
0.00114243
0.00078426
0.000480547
0.000635253
0.000474013
0.000349973
0.000199377
0.000262114
0.000118003
0.000247284
0.000166311
0.000267613
6.63861e-05
0.000170389
6.38059e-05
0.000130698
0.00010699
8.75793e-05
0.000128929
0.000152031
0.000134683
6.73617e-05
5.79661e-05
8.32607e-05
8.3571e-05
7.94887e-05
8.91604e-05
6.54594e-05
2.91288e-05
8.61094e-05
0.000187738
9.62309e-05
0.000165791
0.000203086
0.000157634
0.000232225
0.00019388
0.000240491
7.83915e-05
0.000182772
0.000207607
0.000158545
0.000209254
0.00010793
0.000115688
0.000156151
8.87261e-05
0.000364009
0.000160016
6.38832e-05
0.000209025
0.000203973
0.000144054
0.000205963
0.000187784
0.000223458
0.000247446
0.00015053
0.000207288
0.000259068
0.000208525
0.000221943
0.000156698
0.000155954
0.000271855
0.000206113
0.00019784
0.000242066
0.000262095
0.000238875
0.000291312
0.000141908
0.000269189
0.00011436
0.000180177
0.000241329
9.97524e-05
0.00014273
0.000145175
0.000146276
0.000131222
6.49524e-05
6.71721e-05
5.77265e-05
6.21836e-05
7.12961e-05
4.20978e-05
9.17927e-05
4.1248e-06
0.000114448
6.44716e-05
7.29109e-05
0.000122303
5.07753e-05
0.000147795
8.08724e-05
0.000191892
9.41189e-05
3.5011e-05
0.000176468
7.36885e-05
0.000114442
0.000172303
0.000129772
0.000184597
0.000242628
0.000183278
0.000182602
0.000165948
0.000198646
0.000247247
0.000218974
0.000255873
0.00018982
1.01902e-05
0.000130628
0.000219609
0.00053472
0.000236561
0.000155856
0.000260238
0.000390373
0.000341473
0.00023299
0.000287727
0.000268852
0.000170132
0.000351596
0.000286662
0.00021313
0.000209753
0.000221498
0.00032406
0.000178613
0.000310101
0.000258763
0.000344155
0.000445917
0.000331626
0.000545917
0.000297073
0.000349651
0.013563
0.000889941
0.000250287
0.00899917
0.103152
0.00636206
0.00143132
0.000674826
0.000802559
0.00016738
0.000100078
8.86912e-05
2.70956e-05
0.000139399
0.000135243
5.01052e-05
0.000147914
0.000157188
0.000133691
0.000180621
0.000237769
9.76974e-05
0.000186822
8.31742e-05
0.000187007
0.000100541
0.000165806
0.000122712
0.000190447
0.000163941
0.000200959
0.000146498
0
0.0025865
0.000240776
0
0
0
0
0.000520507
0.0023822
0.00200255
0.016674
0
0
0
0.0289663
0
0.00191347
0.00250589
0.00185238
0.000593832
0.000479989
0.000630286
0.000534555
0.000420884
0.00023103
0.00048632
0.00023057
0.000200053
0.000197569
0.000114717
4.2999e-05
0.000166568
0.000126341
0.000115164
3.14144e-05
4.03415e-05
2.5657e-05
0.000153215
0.000137611
0.000131191
8.03011e-05
0.000128801
9.70945e-05
9.01815e-05
8.72596e-05
9.55035e-05
6.12295e-05
7.96473e-05
5.8017e-05
3.7772e-05
0.00012224
0.000157814
0.000190624
0.000145602
0.000183579
0.000192126
0.000274256
0.000210754
0.00016396
0.000287087
0.000125164
7.0074e-05
0.000138358
5.84946e-05
9.2595e-05
0.000130031
0.000221418
4.35502e-05
0.000158206
0.000221747
0.000268884
0.000282833
0.000222961
0.000270258
0.00024087
0.000217447
0.000253462
0.000222834
0.000165016
0.000226809
0.000213553
0.000209302
0.000257307
0.000175392
0.000220703
0.000361217
0.000339506
0.000300259
0.000258274
0.000178101
0.000229985
0.000168241
0.000194933
0.000183257
0.000289257
0.000294146
0.000205615
0.000263524
0.000176232
0.000165275
0.000235593
0.00018534
0.000200089
1.7977e-05
0.000140197
0.0001166
0.000185657
0.000166535
0.000141841
0.000119615
0.000142021
3.74977e-05
0.0001312
6.36111e-05
5.3752e-05
8.67859e-05
2.51257e-05
3.41197e-05
0.000141305
9.9621e-05
6.57607e-05
8.43375e-05
7.70472e-05
6.29213e-05
0.000108977
3.00081e-05
0.00010125
0.000176934
0.000160083
0.000167552
0.000109565
0.000182131
0.00017582
0.000182733
0.000191172
0.000198276
0.000163355
0.000212305
0.000229483
0.000218497
0.000231494
0.000210274
0.000210074
0.000211601
0.000140771
9.53653e-05
0.000249777
0.00037974
0.000144527
0.000460044
0.000197074
0.000226051
0.000345259
0.000253751
0.000246386
0.000308431
0.000308248
0.000193252
0.00025907
0.000175705
0.00023718
0.000168448
0.00022203
0.000267882
0.000305233
0.0010955
0.00067659
0.000215221
0.00071039
0.000413884
0.000318884
0.0324845
0
0.0542144
0.0399265
0.0158766
0
0.00132573
0.00418197
0.00104024
0.000773476
0
0
0
0
0
0
0
0
0
0
0.00593473
0
0.00126196
0
0.00162843
0.00635545
0
0
0
0
0
0
0
0
0
0
0
0
0
0
9.66131e-05
4.10447e-05
7.5212e-05
5.26545e-05
0.000180247
2.48581e-05
0.000175497
0.000142755
0.000212072
6.0898e-05
6.04782e-05
0.000133421
0.000120302
0.000170081
0.000175334
0.000121735
0.000174342
0.000155844
0.000180923
0.000146591
0.000147609
0.000179462
0
0
0
0
0
0
0
0
0
0
0
0
0
0
0
0
0
0
0
0
0
0
0
0
0.0549467
0.00244326
0.000791893
0.000538074
0.00068901
0.000776593
0.000360448
0.000411231
0.000421153
0.000343521
0.000174079
0.000330095
0.00012909
0.000146231
0.000112722
0.00012225
0.000245723
6.19347e-05
6.00366e-05
0.00014033
8.90096e-05
0.000146605
0.000168537
0.000131729
0.00293084
0
0
0
0
0
0
0
0
0
0
0
0
0
0
0
0
0.000141915
9.86759e-05
0.000114143
7.40428e-05
0.000102018
0.000112576
8.38353e-05
0.000113793
6.88475e-05
9.99033e-05
8.44885e-05
6.99703e-05
0.000121561
0.000163899
0.00021628
8.47857e-05
0.00023803
0.000218536
0.000264898
0.000244114
0.000177225
0.00015542
0.000187598
0.000206414
0.000110785
7.27424e-05
6.21913e-05
8.34269e-05
4.99171e-05
7.29908e-05
0.000105131
0.000148164
0.00021423
0.00023021
0.000202965
0.00022061
0.000192344
0.000240715
0.000221972
0.000205992
0.000183231
0.000191435
0.000271891
0.000220801
0.000259325
0.000194274
0.0001975
0.000220358
0.000224486
0.000218249
0.000289067
0.000254278
0.00027876
0.000206492
0.00039532
0.000150057
0.000142462
0.000154256
0.000167898
0.000284086
0.000313007
0.000199578
0.000329754
0.000171298
0.000343389
0.000132658
9.74504e-05
0.000310406
5.31736e-05
0.000265314
0.000231343
0.000175344
0.000267947
0.000215981
0.000232293
0.000164297
0.000231217
0.000160623
9.05562e-05
0.000175803
9.10608e-05
1.08523e-05
5.86146e-05
0.000108196
1.51102e-05
8.21487e-05
9.83317e-05
4.67794e-05
5.95995e-05
0.000123122
7.06688e-05
7.93734e-05
8.30605e-05
0.000117973
7.7092e-05
8.95061e-05
0.00016278
0.000173326
0.000138257
0.000162685
0.000202851
0.000156252
0.000210914
0.000182912
0.000201843
0.000173022
0.000202781
0.00018208
0.000181198
0.000183066
0.000200563
0.000206654
0.000187027
0.000208258
0.000179826
0.000168923
0.000163125
0.000178221
0.000161272
0.000185466
0.000168606
0.000152364
0.000160536
0.000152372
0.000141913
0.000156427
0.000148911
0.000154504
0.0001535
0.000180069
0.000167348
0.0001557
0.00016455
0.000186817
0.000170304
0.000168623
0.000153088
0.000200868
0.000166737
0.000181526
0.000189718
0.000204977
0.000178965
0.000196605
0.000188049
0.000200451
0.00019803
0.000188224
0.000193811
0.000191419
0.000189313
0.000185656
0.000190736
0.00035002
0.000330643
0.000207257
0.000122546
8.28727e-05
0.000305359
0.000190782
0.000423079
0.000274324
0.000460247
0.00027887
0.000301059
0.000350976
0.000301668
0.000234634
0.000273244
0.000218851
0.000281561
0.000201787
0.000288226
0.000309936
0.000324007
0.00026324
0.000142977
0.00219307
0.000138031
0.00132034
0.000318749
0.000580275
0
0
0
0
0
0
0.0132667
0.00455965
0.00689272
0.00165678
0
0
0
0
0.0138963
0
0
0
0
0
0
0
0
0
0
0
0
0
0
0
0
0.00042996
0
0.000511481
0
0
0
0
0.00645319
0
0.00876622
0.00816154
0
0.00591394
0.0161355
0.0231358
0
0
0
0
0
0
0
0
0
0
0
0
0
0
0
0
0
0
0
0
0.000152746
0.000129683
0.000111325
0.000116441
0.000142131
0.000141524
0.000105784
4.55925e-05
0.000108091
0.000121949
0.000155345
0.00013906
0.000207183
9.5122e-05
0.000143666
0.000138083
0.000106467
0.000173031
0.000168701
0.000200336
0.000199593
0.00014684
0
0
0.00389461
0.0028853
0
0
0
0
0.00691247
0
0
0
0
0
0
0
0
0
0
0.0703071
0.0010948
0.0037538
3.05585e-05
0.000863521
0.000397058
0.000285775
0.000335111
0.000352186
0.000254051
0.000353248
0.000236098
0.000125198
0.000184018
0.000151262
0.000215572
0.000180328
6.38642e-05
5.71391e-05
0.000151399
0.000186947
7.41171e-05
0.000178751
5.3666e-05
5.38097e-05
0
0
0
0
0
5.7057e-05
0
0
3.51563e-05
0
0
0
0
0
0
0
0
0
0
0
0
0
0
0
0.540061
3.24788
8.99919e-05
0.000145737
8.7484e-05
0.000127013
0.000112306
0.000142977
0.000115282
0.000100217
8.61162e-05
7.26708e-05
7.74235e-05
6.46271e-05
0.000165416
0.000205612
0.000244806
0.000229438
0.000257853
0.00024851
0.000293775
0.000294659
0.00015631
0.000213545
0.000221875
0.00018849
7.90388e-05
7.2239e-05
7.03353e-05
7.34538e-05
0.000104631
8.55301e-05
0.000149
8.14124e-05
0.000186701
0.000193942
0.000199962
0.000246929
0.000195808
0.000243458
0.00017813
0.000227638
0.000171919
0.000154993
0.00017147
0.000188717
0.000170546
0.000177877
0.000195407
0.000177888
0.000198147
0.000204278
0.000213252
0.000218412
0.000207502
0.000202507
0.000188194
0.000188494
0.000177216
0.000176001
0.000177252
0.000183434
0.000177285
0.000178143
0.000228623
0.000263581
0.000248934
0.00019856
0.000221238
0.00022934
0.000233742
0.000228214
0.000320322
0.00027508
0.00056409
0.000203477
0.000256484
0.000370751
0.000188928
0.000142031
0.000125139
0.000304271
0.000383222
0.000104837
8.1805e-05
0.000483614
0.000450518
0.000122764
0.000169865
0.000442483
0.000351791
0.000259641
6.1248e-05
0.000312011
6.18649e-05
0.000297888
0.000258494
0.000230369
0.00016701
0.000269175
0.000127362
9.7954e-06
6.63715e-05
0.00012134
6.35839e-05
1.99098e-05
7.73002e-05
5.64661e-05
3.81344e-05
7.24149e-05
0.000103533
7.68908e-05
6.35582e-05
0.00011157
7.54188e-05
0.000112632
7.76084e-05
8.27133e-05
0.000165315
0.000177273
0.000137222
0.000130387
0.000194733
0.000158249
0.000209775
0.000186676
0.000183984
0.000210849
0.000202747
0.000187458
0.000195502
0.000194697
0.000197777
0.000188918
0.000168387
0.000148742
0.000161302
0.000142058
0.000147316
0.000168231
0.000151154
0.000139647
0.000152504
0.000155104
0.000147825
0.000153231
0.00015086
0.00016371
0.000165092
0.000172117
0.000173467
0.00017773
0.000180225
0.00018296
0.000182042
0.000177186
0.000175399
0.000176161
0.000174924
0.000173546
0.00016947
0.00017089
0.000169832
0.000164385
0.000168193
0.000161212
0.000164573
0.000329394
0.000238435
0.000374184
0.000234649
0.000366543
0.000216278
0.000181016
0.000329929
0.000162848
0.000184895
0.000559986
0.000367774
0.000380208
0.000294631
0.000298118
0.000741677
0.000369459
0.000302779
0.000335629
0.000189092
0.000291484
0.000256745
0.000266014
0.000281798
0.000199861
0.0138212
0.00236928
0.0012397
0.00037535
0.000830805
0.00138998
0
0
0
0
0
0
0.046918
0
0.00890714
0
0
0.0186054
0
0
0
0
0
0
0
0
6.67401e-05
0
0
0
0
0
0
0
0
0
0
0
0
0
0
0
0
0
0
0
0
0
0
0
0
0
0
0
0
0
0
0
0
0
0.000162018
0.000131766
0.000159033
0.000219848
0.000183371
5.16979e-05
0.000183463
0.000111402
0.000194425
5.44028e-05
0.000102737
0.000137985
0.000188301
0.000228091
0.000129334
0.000151998
0.000104629
0.000128855
0.000103505
0.000236209
0.000128689
0.000127073
0.00231026
0
0.000142654
0
0
0
0
0
0
0
0
0
0
0
0
0
0
0
0
0.0103392
0.00142077
0.00109072
0.000500509
0.000302988
0.000344669
0.00037303
0.000268006
0.000353533
0.000248544
0.000301006
0.000169881
0.000165628
8.40223e-05
9.04594e-05
0.000136617
0.000101402
0.000170636
0.000118941
1.84665e-05
0.000140803
9.18771e-05
4.87845e-05
8.37765e-05
0.000104015
0
0
0
0
0
0
0
0
0
0
0
0
0
0
0
0
0
0
0
0
0
0
0.500582
0
0
0
0
0
0
0
0
0.000106151
0.000162209
0.000137224
0.000117266
0.00012464
0.000122743
0.000102085
0.000113169
0.000134407
0.000160627
0.000135552
0.000124348
7.25147e-05
5.51035e-05
0.000123806
0.000234949
0.00022412
0.000263679
0.000274818
0.000291841
0.000290233
0.000339835
0.000335631
0.000241474
8.15499e-05
0.000163634
0.000290363
0.000114516
6.41732e-05
6.4019e-05
0.000100193
0.000113525
0.000108756
0.000170272
0.000200949
9.17162e-05
0.000149262
0.000115596
0.000132892
0.000138406
0.000139496
0.000130624
0.000147811
0.000122261
0.000135441
0.000109985
0.00015296
9.4599e-05
0.000135335
0.000152811
0.00015452
0.000154994
0.000156574
0.000150991
0.000153285
0.000150625
0.000154509
0.000152438
0.000143258
0.000129108
0.00015152
0.000141283
0.00013379
0.000140002
0.000172505
0.000168097
0.000165196
0.000170243
0.000161049
0.000157457
0.000183948
0.000207645
0.000191641
0.000241784
0.000247282
0.000196812
0.000190106
0.00021315
0.000175155
0.000160074
0.00018644
0.000159898
0.000204018
0.000177258
0.000211465
0.000193231
0.000219681
0.000216437
0.000218612
0.000212618
0.000196168
0.000191086
0.000180866
0.000180451
0.000176067
0.000172961
0.000179081
0.00017911
0.000228385
0.000241411
0.000241422
0.000250768
0.000230326
0.000220662
0.000225911
0.000303087
0.000275493
0.000357739
0.000365062
0.000161834
0.000159342
0.000153442
0.00015353
0.000155547
0.000155843
0.000153206
0.000153215
0.000150131
0.000139505
0.000155186
0.000143713
0.000148588
0.000148084
0.00015569
0.000151749
0.000154998
0.00013561
0.000552767
0.000302803
0.000514312
0.000281521
0.000159797
0.0001514
0.000384381
0.000138766
2.61886e-05
0.000525045
0.000221694
0.000524934
0.000342052
0.000571814
0.000602725
0.000409056
0.000432935
0.00032447
0.000164213
0.000447457
0.00015116
0.000349339
0.000270491
0.000294619
0.000133097
0.00013263
0.000128621
0.000254565
5.32436e-05
0.000132167
0.000127426
3.11668e-05
8.17381e-05
9.57254e-05
0.000114396
8.18268e-05
7.2371e-05
4.13997e-05
0.000101076
7.60146e-05
0.000110397
9.95856e-05
5.6038e-05
5.77498e-05
0.000147567
0.000185121
0.000140982
0.000124262
0.000187583
0.0001597
0.000197305
0.000178277
0.000166054
0.000187956
0.000177723
0.000166519
0.000186379
0.000197918
0.000185746
0.000159503
0.000164311
0.000146296
0.000138714
0.00016709
0.000152848
0.000133998
0.000143755
0.000146215
0.000140374
0.000144921
0.00014724
0.000138237
0.000153106
0.000157366
0.000160892
0.000161014
0.000171369
0.000172331
0.000182774
0.000174528
0.000174059
0.000180415
0.000167832
0.000171637
0.000165892
0.000308553
0.000307678
0.000329962
0.000540817
0.000288318
0.000268151
0.000468634
0.000387354
0.000144552
0.000401453
0.0005817
0.000511719
0.000420786
0.000462199
0.000435472
0.000288378
0.000688234
0.000534359
0.000481508
0.000404281
0.000332927
0.000539639
0.00017281
0.000708874
0.000423861
0.000961174
0.000879496
0.00109185
0.0122157
0.0272281
0.000948786
0.00288622
0.000982395
0.00101392
0
0
0
0
0
0
0
0
0.00100797
0
0
0
0
0
0
0
0
0.195908
0
0
0
0
0
0
0
0
0
0
0
0
0.00184926
0
0
0
0
0.0118489
0
0
0
0
0
0
0
0
0
0
0
0
0
0
0
0
0
0
0
0.00194752
0
0
0
0
0.00212608
0.000151948
0.00017153
0.000123566
0.000176148
0.000158999
0.000128927
8.22705e-05
0.000201291
6.55124e-05
0.000155263
3.47791e-05
0.000104595
0.000135253
0.000129907
0.000221482
0.00019289
0.000290436
5.4505e-05
0.000187196
0.000137439
0.000128444
0.000136557
0.000105856
0.000212379
0.000133653
0
0
0
0
0
0
0
0
0
0
0
0
0
0.000285719
0.000270848
0.00032425
0
0
0.253739
0.0380949
0.00166271
0.00457438
0.000932539
0.000315309
0.000308962
0.000483867
0.000238341
0.000241603
0.000202696
0.000240897
0.000139263
0.000278238
0.000106092
6.16561e-05
0.000134427
0.000145525
0.000275578
0.000168186
9.80565e-05
0.000164228
0.00014606
0.000173301
0.000306524
0
0.000962467
0
0
0
0
0
0
0
0
0
0
0
0
0
0
0
0
0
0
0
0
0
0
0
0
0
0
0
0
0
0
0
0
0
0
0
0.000144392
0.00017458
0.000127191
0.000128869
0.000150098
0.000138658
0.000131572
0.000157372
0.000142725
0.000157213
0.000153357
0.000141471
0.000133431
0.000149338
0.00015993
0.000168918
0.000151611
0.000330201
0.000264929
0.000357699
0.000356071
0.00035815
0.000364074
0.000360897
0.000376366
0.000244211
0.000165234
0.000203442
0.000310229
0.000143441
0.000175508
0.00019119
0.000225164
0.000235138
0.000263919
0.000245623
0.000337102
0.000138666
0.000121201
0.000109641
0.000100293
0.000159213
0.000106696
0.000181475
0.000180832
0.00015039
0.000148565
0.000153176
0.000144267
0.000138498
0.000141961
0.000122187
0.000114498
0.00016787
0.000175332
0.000170602
0.000161126
0.000154589
0.000164187
0.000194915
0.000207809
0.000224327
0.000181809
0.000219272
0.000244889
0.000206915
0.000202763
0.000187871
0.000220668
0.000171381
0.000190839
0.000190788
0.000201572
0.000217101
0.0002167
0.000218041
0.000223145
0.000218884
0.000222144
0.000221784
0.000201339
0.000200007
0.000183774
0.000181277
0.000183043
0.000179091
0.000175934
0.000178261
0.00017931
0.000180871
0.000285762
0.000281165
0.000236584
0.000217858
0.000272614
0.000255483
0.000232207
0.000239118
0.000320507
0.000310109
0.000331769
0.000338883
0.000161704
0.000171253
0.000164834
0.000156474
0.000159349
0.000159837
0.000157832
0.000158885
0.000154676
0.000157794
0.000151758
0.000155868
0.000161446
0.000158039
0.000153441
0.000155545
0.000162784
0.000174562
0.000168984
0.000160831
0.000163626
0.000158291
0.000175964
0.00017294
0.000120713
0.000661872
0.00067034
0.000498072
0.000301016
0.000550341
0.000165652
0.00074502
0.000116753
0.000294672
0.000871118
0.000790592
0.000513408
0.000671846
0.000521351
0.000607025
0.000455944
8.44204e-05
0.000522742
0.000362299
0.000556452
0.000405968
0.000442924
0.000151605
0.000160853
0.000166287
0.000102705
0.000186435
0.000143615
0.0001229
5.49079e-05
8.63345e-05
0.000132771
0.000131906
9.45917e-05
0.000106974
7.8013e-05
3.07991e-05
6.95243e-05
5.2924e-05
0.000135961
9.45257e-05
8.95581e-05
1.32048e-05
8.82176e-05
0.000163962
0.000138672
0.000113911
0.000133286
0.000169853
0.000158911
0.000156863
0.000141137
0.000172686
0.00012858
0.000156702
0.000163047
0.000157206
0.000164847
0.000138331
0.00013479
0.000145988
0.000144401
0.000132742
0.000132778
0.000129004
0.000132293
0.000130354
0.000126288
0.000129189
0.000142672
0.000137105
0.000147669
0.00014712
0.000153125
0.000153971
0.00016505
0.00016606
0.000168278
0.000169279
0.0001721
0.000172647
0.000171539
0.00141157
0.000824372
0.000181719
0.00068489
0.000395118
0.000536359
0.000444118
0.000792704
0.000628853
0.000132492
0.000809584
0.000720736
0.000554624
0.000606489
0.000437277
0.000701166
0.000811477
0.00267903
0.0063321
0.00125507
0.00162995
0.000910773
0.00118667
0.000883655
0.00329827
0.00190095
0.0275425
0.0108048
0.0182275
0.013938
0.052497
0.0147857
0.0258564
0.00570702
0.0119481
0.0334857
0
0
0
0
0
0
0.280683
0
0
0.144265
0
0
0
0
0
0.566283
0
0
0
0
0.00307558
0
0
0
0
0
0
0
0.0013132
0.0022787
0
0
0.00709267
0.00747294
0
0
0
0
0.00500587
0
0.00646135
0
0
0
0
0
0
0
0
0
0
0
0
0
0
0
0
0
0.00333958
0
0
0
0
0
0
0
0
9.50869e-05
0.000142748
0.000240702
0.000199996
9.48327e-05
0.000176156
0.00020999
0.000142072
0.000206227
7.38997e-05
0.000122516
0.000186738
0.000176058
0.000220463
0.000208344
0.000116213
8.02702e-05
0.00022656
0.000236662
0.000168545
0.000334901
0.000163863
0.000126401
0.000115252
0.000119814
0.000185784
0.000118063
0
0
0
0
0
0
0
0.00025628
0.000289923
0.000272004
0
0
0
0
0.000308201
0.000238973
0.0138224
0.08528
0.00892486
0.00265242
0.000519745
0.00120807
0.000577787
0.000205189
0.000457131
0.000165747
5.20728e-05
0.000138185
0.000173211
0.000196778
0.000144073
0.000153711
0.000114813
0.000203417
0.000240173
0.000222246
2.06283e-05
4.14188e-05
0.000244066
0.000252638
3.62046e-05
0
0
0.000911052
0
0
0
0
0.00276305
0
0
0
0
0
0
0
0
0
0
0
0
0
0
0
0
0
0
0
0
0
0
0
0
0
0
0
0
0
0
0
0
0
0
0
0
0
0.000172323
0.00011741
0.000199027
0.000170558
0.000138495
0.000148867
0.000154758
0.000172261
0.000168186
0.000193766
0.000195626
0.000187123
0.000213687
0.000155994
0.000157562
0.000210174
0.000261003
0.000246546
0.000284034
0.000377762
0.000272048
0.000400123
0.000383992
0.000369873
0.000426888
0.000373565
0.000410196
0.000235696
0.000302757
0.00027284
0.000261516
0.000284188
0.000245896
0.000290798
0.000288338
0.000255059
0.0003587
0.000403708
0.000263375
9.48389e-05
0.000155471
0.000141265
0.000243165
0.000125559
0.000100953
0.000257588
0.000366496
0.000193238
0.000271048
0.000349602
0.000225855
0.000178593
0.000192894
0.000159331
0.000151565
0.000155803
0.000145978
0.000149365
0.000136214
0.000165519
0.000116994
0.000166023
0.000171504
0.000161893
0.000171407
0.000167021
0.000156632
0.00020877
0.000208178
0.000222619
0.000195586
0.000242088
0.000227896
0.000207106
0.000205247
0.000202747
0.000221861
0.000209535
0.000202219
0.000231582
0.000222274
0.000242124
0.00023895
0.000224074
0.000224276
0.000205963
0.000205896
0.000185307
0.000186837
0.000179192
0.000184976
0.000184163
0.000181159
0.000168122
0.000168737
0.000172475
0.000170946
0.000313817
0.000279192
0.000257356
0.00022835
0.000271705
0.000273338
0.000232755
0.000249504
0.000287489
0.000312836
0.000315404
0.000344516
0.000169912
0.000161235
0.000164271
0.000159705
0.000159691
0.000156701
0.000153744
0.000156972
0.000159143
0.000163508
0.000160652
0.000159457
0.000162765
0.000156792
0.000163594
0.000166323
0.000175073
0.000160678
0.000173138
0.000180827
0.000156675
0.000156394
0.000154657
0.000167031
0.000174159
0.00125568
0.00100962
0.00105362
0.000946741
0.000620923
0.000356957
0.000363641
0.0014164
0.00129572
0.000816012
0.000870304
0.000954456
0.000742198
0.000744702
0.000513307
0.00128676
0.000457294
0.00104064
0.000297583
0.000247119
4.11741e-05
0.000274676
0.000196036
0.000319235
0.00013072
6.90076e-05
0.00017689
0.000299564
0.000131044
0.000146049
0.00013813
0.000185187
9.00519e-05
0.000137064
6.52559e-05
5.15528e-05
6.22204e-05
5.98466e-05
0.000146467
7.27206e-05
6.88098e-05
0.000107267
7.34628e-05
4.65797e-05
0.000129548
0.000152667
9.574e-05
0.000100284
0.000163151
0.000121602
0.000148107
0.000124305
0.000132568
0.000106256
0.000116663
0.000148584
0.000135616
0.000128073
0.000142652
0.000133375
0.000129313
0.000117599
0.000120889
0.000124434
0.000119081
0.000119397
0.00012145
0.000124025
0.000132332
0.000133391
0.000138606
0.000133965
0.000146627
0.000143024
0.000151809
0.000150088
0.000156442
0.000155293
0.000168716
0.0134891
0.00862492
0.0122165
0.012238
0.00199909
0.00127799
0.00175244
0.000139248
0.00116291
0.00114787
0.00102108
0.00116814
0.000395529
0.000946992
0.000364042
0.00040699
0.00154628
0.00170502
0.00104636
0.0116386
0.0301148
0
0.0893069
0.00485623
0.116216
0.0192702
0.0283073
0.0590593
0.0654
0
0
0
0
0
0
0.236615
0
0
0
0
0
0
1.74252
0
0
0
0
0
0
0
0
0
0
0
0
0
0
0
0
0
0
0
0
0
0
0
0
0
0
0
0
0
0
0
0
0
0
0
0
0
0
0
0
0
0
0
0
0
0
0
0
0
0
0
0
0
0
0
0
0
0
0
0
0
0
0
0
0
0
0
0
0
6.31736e-05
0
0
0
0
0.000147299
0.000207458
0.000143983
6.63593e-05
0.000112579
0.000181854
0.000141777
0.000109468
0.000296913
0.000183974
0.000278221
0.000231153
1.32138e-05
0.000147048
9.42971e-05
0.000344066
0.000111202
0.000310249
0.000140572
0.000193593
0.00029403
5.42915e-05
8.55373e-05
0.000183699
0.000277093
0.000171369
0.000121847
0.000229405
0.00011025
0
0
0
0
0.000285169
0.000258202
0.000270819
0
0
0.000265768
0.000135682
0
0.0191883
0
0
0.000175826
0.000347367
0.00498922
0.00195161
0.000853663
0.00195622
0.000170255
0.000686127
0.000612706
0.000290198
0.000216368
0.000184792
0.000209811
8.81979e-05
0.000190328
0.000219492
0.000164274
0.000116415
0.000253825
0.00013415
0.00023315
0.000162088
0.000251314
0.000158472
0.000157371
0
0
0
0
0
0
0
0
0
1.15793
0
0.144355
0
0
0
0.0192373
0.0267043
0.0849014
0
0
0.0330367
0
0
0
0
0
0
0
0
0
0
0
0
0
0
0
0.00939932
0
0.00293847
0
0
0
0
0
0
0
0
0
0.132922
0.792709
0.027933
0
0
0
0
0
0
0.000231144
0.000237507
0.000124012
0.000132232
0.000221694
0.000153333
0.000194017
0.000149886
0.000142296
0.0001311
0.000130088
0.000194398
0.000174721
0.000244403
0.000321756
0.000137268
0.000137038
0.000392852
0.000349252
0.000330952
0.000332737
0.000433526
0.000415405
0.000444885
0.000337702
0.000333396
0.00041848
0.000417686
0.000475702
0.000274031
0.000429124
0.000289024
0.000392369
0.000315874
0.000292136
0.000348453
0.000298345
0.000329718
0.000372652
0.000404001
0.000449702
0.000106286
7.14583e-05
0.000166472
0.000400048
0.00014468
0.000481112
0.000174301
0.000444689
0.000328663
0.000245852
0.000224105
8.05312e-05
0.000143894
0.000152598
0.000164264
0.00014627
0.000158966
0.00013722
0.000129359
0.000175767
0.000166112
0.000166759
0.00016384
0.000158723
0.000164206
0.00016199
0.000156288
0.000205134
0.000197687
0.000217903
0.000203382
0.000205227
0.000237421
0.000195148
0.000207324
0.000223506
0.000244488
0.000209565
0.000224261
0.000240157
0.000230187
0.000262623
0.00025658
0.000215971
0.000214601
0.000195807
0.000197415
0.00018918
0.00018798
0.000186556
0.000188015
0.000174258
0.000174458
0.000166715
0.000165448
0.000170494
0.000172023
0.000286019
0.000300115
0.000251156
0.00024502
0.000254995
0.000239024
0.000249043
0.000242097
0.000327195
0.000289589
0.00034179
0.000342699
0.00046249
0.000399699
0.000394129
0.000144766
0.0001556
0.000151387
0.000153302
0.000148397
0.000149511
0.00014483
0.00014727
0.000145875
0.000147804
0.000158225
0.000163404
0.000176619
0.00015779
0.000162876
0.000158843
0.000161946
0.000170707
0.00016606
0.000167093
0.000182319
0.00015609
0.000151772
0.000154464
0.000177535
0.000138915
0.00251554
0.00214969
0.00137786
0.00154228
0.000805673
0.000475508
0.00156778
0.000919995
0.00132695
0.00184811
0.00152077
0.00102504
0.00129527
0.00140564
0.00144802
0.00197004
0.000224113
0.000453144
0.000334776
0.000685593
0.000674675
0.00022016
0.000265861
0.000318996
0.000267248
0.000103607
0.000171994
0.000186636
0.000171855
0.000194442
0.000235567
0.000138099
0.000101539
0.000117569
5.86987e-05
7.42855e-05
7.3647e-05
2.13526e-05
4.62419e-05
8.01862e-05
3.96747e-05
7.67682e-05
5.19103e-05
7.032e-05
0.000112623
0.00012123
8.27007e-05
8.93947e-05
0.000102511
9.17289e-05
0.000117557
0.000133205
9.92027e-05
9.80878e-05
0.000115915
0.000127812
0.000129119
0.000135904
0.000133546
0.000122672
0.000111127
0.000115889
0.000107666
0.000116863
0.000113717
0.000107188
0.000122581
0.000115983
0.000125393
0.000126428
0.000131539
0.000130932
0.000137931
0.000139427
0.000150396
0.000139719
0.000148421
0.000147753
0.091326
0.118604
0.0215719
0.035299
0.0327189
0.0332232
0.0182588
0.00781802
0.0792429
0.0018032
0.000822525
0.0153894
0.0034786
0.00118933
0.00127057
0.000604469
0.0017271
0.00183211
0.000575433
0.00192742
0.00186413
0
0
0
0
0
0.00677305
0
0
0
0
0
0
0
0
0.738844
0
0
0
0.0144656
0
0
0
0
0
0
0
0
0
0
0
0
0
0
0
0
0
0
0.0204217
0
0
0
0
0
0.00172884
0.00248884
0.00384145
0
0
0
0
0
0
0
0
0
0
0
0
0
0
0
0
0
0
0
0
0
0
0
0
0
0
0
0
0
0
0
0
0
0
0
0
0
0
0
0
0
0.00521782
0
0.00287399
0
0.0101226
0
0
0
0.000108644
0.000158254
0.000165921
0.000214017
0.000167065
0.000212829
0.000202031
6.19819e-05
0.000187564
0.00019587
0.000135114
0.000256019
0.000223161
0.000239541
0.000244417
0.000277922
0.000209398
0.000162628
0.000155463
4.44179e-05
1.59614e-05
0.000244233
0.000167324
0.000201542
6.82639e-05
0.000151172
0.000276089
0.000197001
0.000166821
0.000210923
0.000226089