/*--------------------------------*- C++ -*----------------------------------*\
  =========                 |
  \\      /  F ield         | OpenFOAM: The Open Source CFD Toolbox
   \\    /   O peration     | Website:  https://openfoam.org
    \\  /    A nd           | Version:  8
     \\/     M anipulation  |
\*---------------------------------------------------------------------------*/
FoamFile
{
    version     2.0;
    format      ascii;
    class       volScalarField;
    location    "18480";
    object      Hclip;
}
// * * * * * * * * * * * * * * * * * * * * * * * * * * * * * * * * * * * * * //

dimensions      [0 1 0 0 0 0 0];

internalField   nonuniform List<scalar> 
526318
(
1.71566
1.67853
1.75749
1.66645
1.74753
1.68042
1.71808
1.61459
1.67676
1.56688
1.52816
1.67284
1.60203
1.66536
1.61363
1.64701
1.60472
1.80834
1.73428
1.76721
1.7677
1.7182
1.46036
1.71123
1.60409
1.46029
1.73281
1.7376
1.72186
1.75377
1.76494
1.83359
1.81234
1.68693
1.69357
1.62496
1.64521
1.74197
1.67645
1.64381
1.70332
1.64941
1.32519
1.37676
1.27833
1.32766
1.29395
1.44084
1.60645
1.51054
1.605
1.58012
1.55064
1.51016
1.0056
1.2531
1.25047
1.04254
1.76322
1.77885
1.79432
1.75983
1.6924
1.82837
1.82403
1.7625
1.75665
1.75968
1.65517
1.64122
1.7633
1.55091
1.60295
1.50029
1.45557
1.44298
1.53916
1.54241
1.44122
1.49497
1.56965
1.56974
1.5218
1.4836
1.50678
1.57837
1.58975
1.55818
1.50932
1.57666
1.48768
1.43068
1.43013
1.3681
1.35797
1.36181
1.36082
1.35314
1.34871
1.35326
0.799786
0.723902
0.819173
0.855997
0.916425
0.702934
1.25674
1.07937
1.38904
1.35895
1.39309
1.5096
1.72457
1.62393
1.73968
1.75378
1.81571
1.77608
1.835
1.35316
1.35085
1.35299
1.35174
1.30752
1.3444
1.26023
1.30268
1.21458
1.25932
1.20823
1.21009
1.19959
1.17348
1.16921
1.19291
1.13834
1.19147
1.14112
1.15968
1.10699
1.11383
1.13304
1.16301
1.15024
1.10667
1.10604
1.12155
1.11057
1.10722
1.11399
1.1275
1.11464
1.11615
1.1169
1.11821
1.08034
1.11586
1.11558
1.08282
1.03855
1.11527
1.06428
1.12091
1.62216
1.72085
1.65009
1.64273
1.44411
1.50793
1.44411
1.44392
1.44249
1.44659
1.45919
1.44764
1.3845
1.34407
1.31619
1.26078
1.32278
1.35787
1.3574
1.36317
1.24596
1.30008
1.17781
1.19244
1.19846
1.19042
1.19144
1.19534
1.18512
1.18876
1.18697
1.17398
1.15789
1.18144
1.17445
1.14571
1.12154
1.1528
1.13389
1.12659
1.14489
1.13553
1.13601
1.10189
1.12011
1.15161
1.15079
1.6013
1.61488
1.63679
1.59666
1.60463
1.59229
1.58112
1.49343
1.50927
1.27322
1.23738
1.23086
1.36746
1.52484
1.3595
1.41185
1.41002
1.37618
1.32938
0.850672
0.648512
0.98296
1.19644
0.430642
0.286789
0.574264
0.690813
0.645396
0.644371
1.8225
1.79258
1.84501
1.83441
1.80861
1.80909
1.71293
1.78982
1.63499
1.57942
1.58288
1.58553
1.5803
1.58244
1.56767
1.57149
1.48544
1.54878
1.36682
1.42458
1.34568
1.3618
0.158906
0.0894473
0.553218
0.332019
0.829056
0.768111
0.829336
0.977358
1.35525
1.17612
1.39687
1.41443
1.52031
1.63217
1.74453
1.74191
1.80786
1.76543
1.82872
1.86534
1.33069
1.3269
1.28501
1.2642
1.16169
1.19153
1.1226
1.13002
1.12438
1.11481
1.10326
1.11426
1.03726
1.05998
1.09416
1.13122
1.18658
1.15292
1.1183
1.11212
1.04768
1.04067
1.0901
1.14275
1.06722
1.108
1.10441
1.07393
1.07346
1.03791
1.03727
0.996262
0.997712
1.00046
0.989177
1.11343
1.15222
1.11313
1.15389
1.51233
1.45781
1.36385
1.45618
1.37658
1.43054
1.43835
1.43718
1.43864
1.44832
1.35577
1.26597
1.19565
1.18298
1.25855
1.2003
1.18913
1.29979
1.18709
1.2399
1.17172
1.17724
1.18242
1.17412
1.18491
1.17891
1.18327
1.18243
1.18395
1.1858
1.19527
1.19104
1.20406
1.19998
1.20054
1.18014
1.19255
1.17321
1.15161
1.14918
1.17321
1.20605
1.19984
1.17534
1.16061
1.18456
1.22276
1.22365
1.23615
1.19951
1.23136
1.2468
1.28517
1.23869
1.24472
1.26991
1.30208
1.41134
1.51448
1.4255
1.48691
1.54391
1.58996
1.53037
1.37143
1.49237
1.37374
1.40646
1.14204
1.07491
1.10321
1.08986
1.21812
1.3316
1.26063
1.34671
1.33252
1.35643
1.3399
0.618252
0.759512
0.925933
0.731519
1.00081
0.860302
0.013308
0.162354
0.105006
0.0254263
0.001
0.177119
0.389592
0.640295
0.512152
0.559764
1.84561
1.83229
1.86161
1.85579
1.84225
1.81665
1.73237
1.6448
1.58107
1.59772
1.57078
1.57134
1.55317
1.54446
1.52757
1.52657
1.47518
1.52427
1.44202
1.38118
1.33072
1.28992
0.001
0.00107232
0.00107232
0.001
0.001
0.001
0.001
0.00107232
0.00107233
0.00107231
0.00788728
0.00100984
0.001
0.00100942
0.00100917
0.001
0.0601002
0.163273
0.163236
0.341486
0.794883
0.574817
0.888433
0.868116
1.06482
0.906764
1.27366
1.43781
1.44842
1.54443
1.76032
1.65396
1.762
1.7802
1.79123
1.79435
1.85454
1.87263
1.24498
1.2501
1.20659
1.22501
1.16553
1.13285
1.12116
1.12358
1.11296
1.12534
1.07673
1.06548
1.01673
1.0271
1.08588
1.05599
1.03036
1.07844
1.07141
1.09182
0.999259
0.988174
1.01051
1.02598
1.0247
0.983052
0.985903
0.980891
0.987079
0.969076
0.966982
1.26888
1.24574
1.24682
1.24322
1.26608
1.37278
1.32733
1.30675
1.19245
1.23623
1.22246
1.22375
1.124
1.0612
1.24022
1.36066
1.2439
1.2417
1.2239
1.3112
1.28742
1.36212
1.39099
1.32041
1.29318
1.3405
1.21359
1.17787
1.18166
1.18146
1.10057
1.15216
1.07669
1.02963
1.01421
1.13126
1.12575
1.17749
1.17176
1.16972
1.17416
1.17535
1.17829
1.17797
1.18877
1.18527
1.20379
1.19653
1.20014
1.20485
1.22599
1.20854
1.23377
1.2364
1.19007
1.17162
1.23528
1.21773
1.20726
1.22541
1.20948
1.19749
1.24681
1.22302
1.32746
1.33506
1.28663
1.32689
1.3366
1.3057
1.39845
1.36558
1.43385
1.45781
1.47837
1.39683
1.39624
1.4092
1.34068
1.30607
1.28617
1.37197
1.24105
1.21344
1.27902
1.30224
0.969323
1.02714
1.10906
1.22483
1.26317
1.29273
1.20496
1.16372
1.13379
1.07392
0.408404
0.546681
0.822595
0.56794
0.900406
0.981451
0.001
0.001
0.00100305
0.001
0.0857189
0.001
0.446778
0.224529
0.389264
0.359061
0.001
0.001
0.001
0.001
0.001
0.00101
0.001
0.001
0.001
0.001
0.00113784
0.001
0.001
0.00113767
0.00113767
0.00113768
0.001
0.001
0.001
0.001
0.001
0.001
0.001
0.001
0.00100959
0.001
0.00100965
0.001
0.001
0.001
1.83086
1.83866
1.85781
1.85398
1.82832
1.75111
1.59674
1.66711
1.5508
1.54439
1.53183
1.53162
1.51827
1.5221
1.50744
1.51447
1.45851
1.4291
1.32509
1.37339
1.22889
1.26799
0.001
0.001
0.001
0.001
0.001
0.001
0.001
0.001
0.00101
0.001
0.001
0.001
0.001
0.001
0.001
0.001
0.001
0.00100737
0.001
0.001
0.001
0.001
0.001
0.001
0.001
0.0938809
0.260819
0.23875
0.305173
0.487652
0.937541
0.729612
0.947032
0.955079
1.25436
1.07582
1.4619
1.40946
1.48161
1.58687
1.69037
1.76967
1.78005
1.76925
1.80873
1.83057
1.8382
1.8369
0.00113713
0.001
0.001
0.001
0.001
0.001
0.001
0.001
0.001
0.001
0.001
0.001
0.001
0.001
0.001
0.00101
0.001
1.22793
1.2318
1.22677
1.19601
1.1143
1.1493
1.07275
1.06867
1.02905
1.02705
0.983049
0.979768
1.00986
1.00616
0.968069
1.00267
0.998919
1.04668
1.02787
1.02954
0.948166
0.918907
0.920634
0.96456
0.972311
0.973097
0.947117
0.951627
0.910945
0.898595
0.860308
0.867459
1.46693
1.43524
1.47606
1.48587
1.43428
1.39136
1.55898
1.58253
1.64678
1.65459
1.20305
1.24191
1.29369
1.37769
1.19865
1.14689
1.17919
1.18149
1.02029
1.0709
1.12856
1.0011
1.21818
1.22387
1.22499
1.22979
1.24644
1.23195
1.24697
1.25082
1.13785
1.12503
1.02671
1.11137
1.10507
1.06298
1.01773
1.03534
0.976792
0.993379
0.980094
1.06559
1.12326
1.05108
1.12025
1.17557
1.17088
1.17276
1.18073
1.17969
1.20122
1.19732
1.21243
1.21075
1.23062
1.21891
1.23868
1.24188
1.24046
1.23997
1.25324
1.24699
1.28557
1.25717
1.22421
1.22555
1.29228
1.25974
1.26423
1.30418
1.34577
1.34562
1.34547
1.34394
1.37657
1.43137
1.49163
1.51461
1.52107
1.50137
1.64352
1.58102
1.70931
1.74963
1.73803
1.77684
1.83168
1.69687
1.78477
1.80581
1.8815
1.92948
1.95494
1.97442
2.00532
1.94929
2.00528
1.96247
2.04059
2.04198
2.09197
2.05993
2.12032
2.15252
2.14024
2.09029
2.15465
2.1798
2.1448
2.14222
2.20699
2.18384
2.21667
2.15625
2.15573
2.22012
2.18808
2.14096
2.14079
2.17268
2.20501
1.19342
1.16822
1.3322
1.33478
1.29731
1.31587
1.30936
1.07224
1.2189
0.905181
0.924332
1.02606
1.01638
0.891663
0.957074
0.96187
1.11437
1.02703
1.03453
0.943529
0.936266
0.948605
0.972724
0.534898
0.343452
0.781193
0.550037
0.757896
0.725781
0.00101
0.001
0.001
0.001
0.001
0.001
0.0699149
0.346956
0.209952
0.285289
0.001
0.001
0.001
0.001
0.00137289
0.001
0.001
0.001
0.001
0.001
0.001
0.001
0.001
0.001
0.00100829
0.001
0.001
0.001
0.0010095
0.001
0.001
0.00102112
0.001
0.00101581
0.001
0.001
0.00101
0.001
0.001
0.001
0.00102412
0.0010242
0.001
0.00102354
0.00102339
0.00102358
0.001
0.001
0.001
0.001
0.001
0.001
0.001
0.001
0.0010078
0.001
0.001
0.001
0.001
0.001
0.001
0.001
0.001
0.00101
0.001
0.001
1.8139
1.81172
1.78152
1.78876
1.7049
1.76647
1.59589
1.53085
1.52039
1.5166
1.51985
1.52015
1.45699
1.45968
1.30923
1.27163
1.22895
1.39634
1.40376
1.34667
1.35021
1.35223
0.001
0.001
0.00114712
0.00114711
0.001
0.001
0.001
0.001
0.00114713
0.001
0.001
0.00100893
0.001
0.001
0.001
0.001
0.001
0.001
0.001
0.001
0.318522
0.153484
0.353055
0.372443
0.604304
0.397727
0.799777
0.951554
1.08214
0.953914
1.24651
1.41465
1.44947
1.47596
1.54984
1.67421
1.73251
1.72296
1.77329
1.68702
1.73405
1.78519
1.73734
1.72497
0.00101
0.001
0.00100993
0.001
0.001
0.00119174
0.001
0.001
0.00119174
0.001
0.001
0.001
0.001
0.001
0.00101
0.001
0.001
0.001
0.00101
0.001
0.001
0.001
0.001
0.001
0.00220961
0.00101127
1.2045
1.20372
1.12289
1.1396
1.01707
1.04021
0.978527
0.976798
0.977851
0.978515
0.952184
0.95367
0.927773
0.925288
0.903207
0.942036
1.01876
0.981083
1.01944
1.01798
0.838066
0.861401
0.90648
0.882847
0.8911
0.895628
0.839209
0.832368
0.81419
0.828515
0.837003
0.833298
1.69063
1.68937
1.519
1.43143
1.42064
1.40688
1.68836
1.59882
1.84393
1.91871
1.81608
1.74088
1.93106
1.91438
1.98038
2.02801
2.05879
2.05874
2.0875
2.05984
2.11479
2.14139
2.1368
2.13762
2.15496
2.14115
2.14136
2.1873
2.13137
2.12639
1.25182
1.17976
1.32239
1.39613
1.17681
1.12667
1.17866
1.17937
1.00775
1.06058
0.881388
1.04874
0.955874
1.21845
1.17858
1.22219
1.21408
1.22332
1.12371
1.01814
0.942891
0.933208
0.942715
0.979479
0.910967
0.893541
0.822721
0.913575
0.984816
0.986044
0.90209
1.00594
1.07306
1.00997
1.12061
1.0638
1.11114
1.16727
1.20234
1.18206
1.21833
1.21814
1.23154
1.21782
1.24809
1.26252
1.25874
1.26992
1.27622
1.27895
1.31473
1.32559
1.31545
1.30972
1.31253
1.3053
1.32508
1.34005
1.38417
1.37564
1.34567
1.37616
1.3701
1.40415
1.43996
1.50294
1.53531
1.53385
1.54527
1.61483
1.69783
1.76902
1.78355
1.90604
1.78179
1.83352
1.98248
2.005
2.00593
2.04279
2.09171
2.14153
2.1518
2.15618
2.18329
2.21267
2.23775
2.23851
2.23774
2.23794
2.23761
2.21909
2.15569
2.22002
2.18708
2.1417
2.14238
2.17377
2.20648
2.21699
2.14346
2.20436
2.16375
0.992831
0.973037
1.05838
1.13066
1.01165
1.08259
1.21371
1.14735
1.1828
1.02013
0.925393
0.875169
0.897942
0.987755
0.980411
0.65319
0.735995
0.92612
0.835293
0.938188
0.937888
0.953592
0.935524
0.953913
0.974602
0.160165
0.330439
0.412598
0.592596
0.610474
0.611491
0.001
0.001
0.001
0.00101
0.001
0.001
0.00106599
0.001
0.072047
0.001
0.001
0.00137269
0.001
0.00101
0.001
0.001
0.001
0.001
0.001
0.001
0.00105182
0.001
0.001
0.001
0.001
0.001
0.001
0.001
0.001
0.001
0.001
0.001
0.001
0.001
0.001
0.001002
0.001
0.001
0.001
0.001
0.001
0.001
0.001
0.00101
0.001
0.00100962
0.001
0.001
0.001
0.001
0.001
0.001
0.001
0.001
1.74117
1.75096
1.71706
1.72611
1.6315
1.71452
1.52448
1.58846
1.473
1.47516
1.42306
1.40785
1.34926
1.34717
1.26718
1.16575
1.1399
1.30917
1.34913
1.35582
1.34931
1.35243
0.00114718
0.001
0.00114718
0.001
0.001
0.001
0.001
0.001
0.00100548
0.001
0.001
0.001
0.001
0.001
0.001
0.00100999
0.001
0.001
0.001
0.0326777
0.206894
0.355839
0.424318
0.381478
0.592103
0.758262
0.926768
0.944709
1.1458
0.981871
1.27986
1.42639
1.39083
1.50232
1.67268
1.5761
1.64146
1.64292
1.65035
1.67202
1.71892
1.71763
1.71595
1.69369
0.001
0.001
0.001
0.001
0.001
0.001
0.001
0.001
0.001
0.001
0.001
0.001
0.001
0.001
0.001
0.001
0.001
0.001
0.001
0.00100999
0.001
0.001
0.00207185
0.001
0.00101
0.001
0.001
0.001
0.001
0.001
0.001
1.07734
1.07934
1.04207
1.01965
0.97593
0.999008
0.965033
0.96643
1.12117
1.06472
1.03957
0.895257
0.904179
0.836711
0.834331
0.905229
0.90476
0.894227
0.933449
0.992268
0.945572
0.982122
0.965316
0.863732
0.840326
0.857166
0.879791
0.798448
0.801612
0.799251
0.810589
0.826168
0.81163
0.778597
0.789508
2.25958
2.27355
2.29975
2.27093
2.32173
2.30544
2.33219
2.3186
2.37575
2.36155
2.33297
2.38283
2.3428
2.40211
2.23153
2.18378
2.2039
2.25332
2.23451
2.2034
2.2066
2.26022
2.26181
2.2397
2.21968
2.27198
2.25627
2.26146
2.28985
2.14194
2.14168
2.1422
2.14164
2.16093
2.18155
1.73569
1.68021
1.57814
1.48065
1.39444
1.47103
1.67139
1.65281
1.89082
1.91336
1.80151
1.8828
1.92119
1.96866
2.0172
2.05881
2.05647
2.05861
2.05459
2.0862
2.09782
2.12495
2.11131
2.11471
2.11913
2.12847
2.10619
2.10563
1.30314
1.23045
1.17137
1.16277
1.22094
1.3965
1.37398
1.10052
1.15865
1.03284
0.964015
2.24809
2.27042
2.28552
2.29212
2.29839
2.30897
2.31172
2.33884
2.32349
2.34102
2.33608
2.39083
2.4129
2.43681
2.43782
2.44257
2.45296
2.47478
0.929606
0.89498
0.87935
1.14354
1.03679
1.21197
1.11089
1.02473
0.924481
0.933333
0.927387
0.931785
0.784208
0.85718
0.713452
0.735705
0.817059
0.735516
0.989503
0.929361
0.821331
1.02148
1.01002
1.01999
1.07476
1.02483
1.15444
1.102
1.19156
1.15781
1.19349
1.21912
1.24069
1.26647
1.28603
1.28354
1.29278
1.2854
1.34402
1.33172
1.32768
1.32544
1.37721
1.35164
1.41914
1.38086
1.36311
1.40622
1.44773
1.43678
1.46325
1.49874
1.49771
1.44397
1.55673
1.58524
1.55716
1.54637
1.62904
1.7112
1.78414
1.84795
1.79796
1.81419
1.94258
1.99925
2.04417
2.02366
2.08969
2.12053
2.16239
2.17736
2.17144
2.19218
2.24982
2.22923
2.2416
2.24982
2.2406
2.23854
2.23782
2.23877
2.23773
2.2385
2.23917
0.968473
0.967717
0.989582
0.912997
0.924799
0.948847
0.883354
1.02854
0.937142
0.873515
0.888236
0.872247
0.757938
0.8646
0.892058
0.667352
0.651587
0.609188
0.713612
0.935803
0.835079
0.838884
0.835718
0.62723
0.52114
0.317129
0.338668
0.240771
0.0772081
0.0763298
0.619558
0.43304
0.608641
0.590676
0.001
0.001
0.001
0.001
0.001
0.001
0.00100984
0.001
0.0709752
0.001
0.001
0.001
0.00101
0.001
0.001
0.001
0.001
0.00241091
0.001
0.001
0.001
0.001
0.001
0.001
0.00100993
0.001
0.001
0.001
0.001
0.001
0.00101303
0.001
0.001
0.001
0.001
0.00101335
0.001
0.001
0.001
0.001
0.001
0.001
0.001
0.001
0.00101
0.001
0.001
0.001
0.001
0.001
0.001
0.001
0.001
0.001
0.001
0.00215406
0.001
0.001
0.001
0.001
0.00215402
2.43396
2.39561
2.36123
2.46882
2.50632
2.50304
1.70042
1.71369
1.69058
1.67919
1.62451
1.68026
1.51024
1.42975
1.36294
1.38471
1.3614
1.34571
1.35158
1.34713
1.22985
1.14807
1.23717
1.31852
1.31502
0.001
0.001
0.001
0.001
0.001
0.001
0.001
0.001
0.001
0.001
0.00100943
0.001
0.001
0.905231
0.955384
0.969759
0.00100998
0.001
0.001
0.001
0.213082
0.0831986
0.369407
0.416608
0.568846
0.439226
0.756223
1.11932
1.25347
1.36416
1.37261
1.70448
1.61965
1.62686
1.4105
1.49251
1.58509
1.63381
1.628
1.63539
1.65902
1.67507
1.68732
0.001
0.00117252
0.001
0.001
0.001
0.001
0.00100904
0.001
0.001
0.001
0.001
0.001
0.001
0.001
0.001
0.001
0.001
0.00100504
0.001
0.001
0.001
0.001
0.001
0.001
0.001
0.001
0.001
0.001
0.001
0.001
0.00101
0.00100979
0.001
0.001
0.001
0.001
0.001
1.07503
1.1134
1.1003
1.03944
1.04312
1.01072
1.03482
0.901964
0.930327
0.841221
0.843152
1.04847
1.03172
0.793066
0.793932
0.794303
0.793054
0.853999
0.834858
0.869584
0.816484
0.940425
0.890891
0.94037
0.952404
0.785725
0.739032
0.762593
0.793954
0.763164
0.76653
0.705444
0.747222
0.729937
0.705845
0.688508
0.688613
2.26191
2.27717
2.30234
2.31712
2.32835
2.32702
2.37922
2.34386
2.1965
2.1947
2.1782
2.19882
2.23233
2.19349
2.23606
2.21243
2.12885
2.11789
2.11695
2.1472
2.17625
2.15069
1.73998
1.66271
1.55686
1.6472
1.49511
1.40672
1.65835
1.65918
1.89745
1.90041
1.9147
1.8131
1.89013
2.00244
1.94794
1.8911
1.93347
2.03406
2.04851
2.03839
2.04599
2.05268
2.07715
2.10384
2.09307
2.10369
2.10364
2.10379
2.10474
2.1043
2.10384
1.14471
1.14997
1.2896
1.37245
1.14845
1.23152
1.38794
1.40357
1.13933
1.08104
0.993581
1.06056
2.27957
2.23834
2.25809
2.30342
2.30229
2.30394
2.31322
2.33507
2.35568
2.36804
2.36809
2.37205
2.39492
2.43212
2.41893
2.43889
2.45478
2.50049
2.47792
2.30926
2.32016
2.33609
2.50506
2.50441
2.50928
0.890116
0.900142
0.884571
0.859654
0.9533
0.968575
0.770476
0.808343
0.844404
0.736833
0.776936
0.77694
0.707959
0.711875
0.714506
0.713519
0.742362
0.774639
0.870815
0.80143
0.80159
0.947291
1.02235
0.933549
1.09315
1.12105
1.05027
1.09206
1.15627
1.12386
1.25062
1.19149
1.26018
1.27685
1.28342
1.27086
1.32174
1.36137
1.40025
1.39959
1.40711
1.3927
1.4187
1.40027
1.44698
1.45042
1.47562
1.475
1.44998
1.45145
1.57366
1.62091
1.51687
1.58116
1.63097
1.59476
1.6944
1.74033
1.83819
1.87658
1.85214
1.94431
1.997
2.09827
2.08197
2.14154
2.11683
2.21125
2.21753
2.21157
2.23902
2.26727
2.26846
2.32189
2.28887
2.31432
2.27833
2.27639
2.31204
2.24269
2.27991
2.24318
0.341798
0.662874
0.345495
0.624138
0.908964
0.889397
0.886286
0.863908
0.878967
0.747675
0.631942
0.638141
0.5307
0.736953
0.614886
0.649132
0.751136
0.0193813
0.0169927
0.400073
0.515791
0.51511
0.307775
0.200564
0.200356
0.001
0.001
0.001
0.063511
0.0773268
0.001
0.147901
0.0716886
0.325239
0.108055
0.0348987
0.0010004
0.001
0.001
0.001
0.001
0.001
0.0022451
0.001
0.001
0.001
0.001
0.001
0.00101
0.001
0.001
0.00220413
0.001
0.001
0.001
0.00100982
0.00135203
0.001
0.00100983
0.001
0.001
0.001
0.00101
0.001
0.00101306
0.00101288
0.001
0.001
0.00101275
0.00101289
0.001
0.001
0.001
0.001
0.00166611
0.001
0.00166601
0.001
0.001
0.001
0.001
0.00100984
0.00101
0.00100994
0.001
0.001
0.001
0.001
0.001
0.001
0.001
0.001
0.001
0.001
0.00135199
0.001
0.00100958
0.00100997
0.001
0.001
0.001
0.001
0.00101
2.41394
2.39472
2.40166
2.40676
2.44043
2.54649
2.51436
2.52639
2.54409
2.49233
1.6239
1.60513
1.55153
1.55832
1.4948
1.54208
1.43944
1.41027
1.38126
1.33945
1.33692
1.32807
1.23603
1.24683
1.11526
1.1575
1.15888
0.001
0.001
0.001
0.00101
0.001
0.001
0.001
0.941717
1.08665
0.947938
0.001
0.001
0.001
0.001
0.817761
0.646756
0.001
0.001
0.0162883
0.108926
0.411286
0.278154
0.44319
0.456697
0.483875
1.46963
1.47502
1.52092
1.225
1.3756
1.36419
1.40732
1.53797
1.60115
1.5598
1.47182
1.56296
1.5927
1.60232
1.49979
1.52422
0.001
0.001
0.00117255
0.00101
0.001
0.001
0.00101
0.0011734
0.001
0.001
0.001
0.001
0.001
0.001
0.001
0.00104592
0.001
0.00104599
0.00104597
0.00101
0.001
0.001
0.001
0.001
0.001
0.00100577
0.001
0.001
0.001
0.001
0.001
0.00102356
0.00100563
0.001
0.001
0.001
0.001
0.001
0.001
0.001
0.001
0.001
0.001
0.001
0.00104602
1.09473
1.10409
1.11568
0.980635
1.00339
0.959366
0.962668
0.890483
0.878922
0.796728
0.805624
0.793121
0.79504
0.895229
0.888739
0.736846
0.737563
0.703202
0.67914
0.782786
0.777042
0.801094
0.856135
0.93811
0.900496
0.96889
0.919452
0.722461
0.69328
0.751547
0.776191
0.652762
0.64494
0.621507
0.647928
0.687136
0.664174
0.687733
0.691784
2.27169
2.22183
2.30803
2.25576
2.27623
2.30743
2.29048
2.35087
2.29808
2.38149
2.34478
2.33622
2.38739
2.37835
2.16109
2.16154
2.15076
2.16488
2.17755
2.19017
2.19056
2.20171
2.10406
2.10492
2.12742
2.11249
2.14196
2.15053
1.74139
1.66395
1.58234
1.65878
1.45472
1.54684
1.65835
1.66507
1.8897
1.88985
1.89232
1.81975
1.97804
2.02618
1.93725
1.88964
2.03277
2.03135
2.04686
2.03159
2.06868
2.09264
2.10004
2.10147
2.1016
2.09864
2.10463
2.1042
2.10215
2.09895
1.14445
1.13794
1.30711
1.38453
1.28581
1.20308
1.43926
1.38257
1.11554
1.13923
1.11057
1.02704
2.27972
2.31557
2.2989
2.32341
2.34275
2.33127
2.36648
2.37753
2.35477
2.368
2.35765
2.36774
2.37112
2.39636
2.42127
2.43532
2.437
2.48738
2.46534
2.51398
2.52369
2.39058
2.40324
2.52209
2.53317
0.643801
0.797207
0.65174
0.759287
0.68413
0.65608
0.611933
0.579632
0.616042
0.642593
0.546055
0.593997
0.599051
0.484525
0.53962
0.694164
0.802171
0.716418
0.803894
0.811104
0.800944
0.869086
1.01896
0.925594
1.11108
1.11091
1.0762
1.02395
1.14841
1.19268
1.24983
1.23616
1.25913
1.24605
1.36581
1.31369
1.41709
1.40676
1.43573
1.43913
1.41604
1.47103
1.51566
1.48832
1.4708
1.49718
1.54852
1.53547
1.51373
1.5586
1.64406
1.64548
1.63639
1.65796
1.7902
1.70388
1.87429
1.90049
1.90041
1.9662
2.0437
2.1176
2.12766
2.13774
2.18605
2.23346
2.26957
2.27072
2.30975
2.2815
2.33385
2.35133
2.3491
2.35128
2.3488
2.35044
2.31727
2.34886
2.31658
0.00104489
0.001
0.0116884
0.001
0.290225
0.586284
0.281274
0.773461
0.611244
0.60892
0.492531
0.49974
0.513956
0.501083
0.515243
0.527016
0.488201
0.484314
0.5019
0.0100494
0.00154137
0.001
0.001
0.001
0.001
0.001
0.001
0.001
0.001
0.001
0.001
0.001
0.001
0.001
0.001
0.00216479
0.001
0.001
0.00100986
0.001
0.001
0.001
0.0018898
0.001
0.001
0.001
0.001
0.001
0.001
0.001
0.001
0.001
0.00100941
0.001
0.001
0.001
0.00100992
0.001
0.001
0.001
0.00101
0.001
0.001
0.001
0.001
0.001
0.001
0.0010008
0.001
0.001
0.001
0.00100949
0.001
0.001
0.001
0.001
0.001
0.001
0.001
0.001
0.001
0.001
0.00101
0.001
0.001
0.001
0.001
0.001
0.001
0.001
0.001
0.001
0.001
0.001
0.001
0.001
0.001
0.001
0.001
0.001
0.001
0.001
0.001
0.001
0.001
0.001
0.001
0.001
0.001
0.001
0.001
0.001
0.00106308
0.001
0.001
0.001
0.001
2.5755
2.56039
2.57995
2.58654
2.58903
2.58426
2.41089
2.41672
2.49224
2.4572
2.53427
2.5667
2.52821
2.42435
2.41539
1.48377
1.47448
1.48705
1.46503
1.47928
1.43493
1.46746
1.2432
1.29815
1.16739
1.17043
1.11696
1.11326
1.11556
0.001
0.001
0.001
0.001
0.923113
1.11522
0.942608
0.001
0.001
0.900565
0.793045
0.001
0.001
0.001
0.001
0.492174
0.638496
0.0210002
0.0226182
0.156323
0.020401
0.450656
0.316855
0.45736
1.50598
1.48745
1.4909
1.49279
1.48175
1.19497
1.31025
1.25753
1.37644
1.44159
1.4649
1.38955
1.47109
1.42467
1.42075
1.4243
0.001
0.00107758
0.001
0.001
0.001
0.001
0.001
0.001
0.001
0.001
0.001
0.001
0.001
0.001
0.001
0.0197463
0.021574
0.001
0.001
0.001
0.001
0.001
0.001
0.001
0.001
0.00100955
0.001
0.001
0.001
0.001
0.001
0.001
0.001
0.001
0.001
0.001
0.00108374
0.001
0.0010837
0.001
0.001
0.001
0.001
0.001
0.001
0.001
0.001
0.001
0.001
0.001
0.0102347
0.001
0.001
0.001
0.001
0.001
0.001
1.09084
1.0229
1.00854
0.939954
0.932425
0.85056
0.836563
0.823453
0.824635
0.817952
0.824914
0.756867
0.766286
0.686939
0.672917
0.823772
0.830146
0.61724
0.606638
0.614558
0.62541
0.899602
0.961753
0.878517
0.776613
0.757134
0.837162
0.766725
0.850102
0.687378
0.65721
0.716919
0.670546
0.626225
0.623446
0.616845
0.637702
0.634525
0.60596
0.600157
0.583191
2.20898
2.2098
2.23611
2.2476
2.23066
2.26792
2.34327
2.29958
2.29671
2.25933
2.36954
2.32906
2.31751
2.15173
2.14957
2.17871
2.16466
2.18786
2.18932
2.21855
2.19642
2.10424
2.11153
2.13491
2.11769
2.1324
2.14209
1.78039
1.70114
1.6232
1.65993
1.60737
1.51331
1.69707
1.65968
1.89523
1.89463
1.85504
1.89981
1.98597
2.03461
1.89775
1.94388
2.036
2.03456
2.05718
2.03683
2.07763
2.09689
2.09586
2.09615
2.09637
2.09668
2.10161
2.09896
2.09666
2.09738
1.13588
1.19715
1.3833
1.35992
1.2815
1.36612
1.38318
1.45988
1.13085
1.12606
1.12039
1.03771
0.875922
0.916878
0.999763
2.34832
2.35278
2.37881
2.3709
2.39435
2.40575
2.40689
2.40598
2.44318
2.42151
2.43459
2.40143
2.43209
2.44253
2.46615
2.48745
2.50145
2.49875
2.54857
2.55191
2.57309
2.54945
2.46212
2.46752
2.58694
2.5867
0.409235
0.481922
0.359252
0.580292
0.506819
0.581591
0.584379
0.567114
0.509819
0.433557
0.366793
0.375218
0.398289
0.467678
0.623642
0.529076
0.508741
0.704878
0.863
0.813643
0.67144
0.905399
0.960451
0.977974
0.949569
1.06251
1.12831
1.00552
1.23237
1.17171
1.2395
1.24387
1.33183
1.27096
1.39315
1.42459
1.42129
1.42813
1.5521
1.5187
1.4879
1.54134
1.56498
1.55914
1.55098
1.54097
1.55736
1.55776
1.63649
1.6808
1.72156
1.67524
1.7203
1.74403
1.88823
1.81923
1.91299
1.90059
1.98156
2.05568
2.14381
2.13716
2.1745
2.21044
2.28745
2.27593
2.30069
2.30367
2.33166
2.34446
2.35969
2.35548
2.36351
2.36171
2.35078
2.36121
2.34872
2.34847
0.001
0.001
0.00101
0.001
0.001
0.001
0.001
0.119923
0.001
0.490525
0.512714
0.0258811
0.236654
0.50769
0.502143
0.513631
0.486594
0.478282
0.513026
0.42458
0.325347
0.001
0.001
0.001
0.001
0.00100179
0.001
0.001
0.001
0.001
0.001
0.00101
0.001
0.001
0.00100863
0.00192162
0.001
0.001
0.001
0.00393546
0.001
0.001
0.001
0.00100974
0.001
0.001
0.001
0.00100983
0.001
0.001
0.00100647
0.001
0.00100976
0.001
0.001
0.001
0.001
0.001
0.00336492
0.001
0.001
0.001
0.001
0.001
0.00129824
0.00129816
0.00129818
0.001
0.001
0.001
0.001
0.001
0.001
0.001
0.001
0.001
0.001
0.001
0.001
0.001
0.001
0.001
0.001
0.001
0.001
0.001
0.001
0.001
0.001
0.001
0.001
0.001
0.001
0.001
0.001
0.001
0.001
0.001
0.001
0.001
0.001
0.001
0.001
0.001
0.001
0.001
0.00101
0.001
0.00157816
0.001
0.00107237
0.001
0.00105776
0.001
0.001
0.001
2.59721
2.62099
2.62874
2.57496
2.58808
2.57743
2.58055
2.46589
2.49958
2.50927
2.52258
2.51411
2.5473
2.57349
2.41052
2.46767
2.37997
2.41516
2.41833
1.48179
1.49032
1.38281
1.34415
1.42996
1.36309
1.3778
1.25996
1.27844
1.14319
1.11393
1.11124
1.11637
1.09364
0.001
0.001
1.02941
1.14695
0.928036
0.001
0.001
0.880247
0.868923
0.001
0.001
0.612211
0.749589
0.001
0.0579537
0.001
0.001
0.472994
0.47527
0.0662357
0.104339
0.146759
0.243602
0.39674
1.44174
1.47228
1.47005
1.44608
1.20413
1.20194
1.22735
1.29823
1.40967
1.41294
1.37297
1.42605
1.41564
0.00100999
0.001
0.001
0.001
0.001
0.001
0.00101296
0.00101485
0.001
0.032911
0.0480843
0.0796183
0.073201
0.0867303
0.13117
0.163279
0.119256
0.204333
0.167379
0.114213
0.162648
0.168612
0.165188
0.001
0.001
0.00108317
0.001
0.001
0.00101
0.001
0.001
0.001
0.001
0.001
0.001
0.001
0.001
0.001
0.001
0.001
0.001
0.00130018
0.0252981
0.102394
0.118476
0.187035
0.0698714
0.001
0.001
0.294668
0.165213
0.208978
0.235246
0.001
0.001
0.001
0.001
0.001
0.001
0.001
0.001
0.001
0.001
1.00648
0.926517
0.926521
0.866387
0.866674
0.843986
0.859592
0.830141
0.868907
0.792086
0.794221
0.702073
0.719851
0.622137
0.625021
0.598127
0.599561
0.748737
0.724264
0.609733
0.597786
0.605165
0.595232
0.824297
0.863496
0.707716
0.677872
0.749037
0.865718
0.922979
0.877881
0.609587
0.567082
0.631362
0.657464
0.554203
0.539706
0.528023
0.498294
0.532366
0.506463
0.528063
0.546366
2.29065
2.24705
2.21175
2.2729
2.18952
2.2651
2.28278
2.29184
2.29464
2.34076
2.28024
2.37619
2.34098
2.4078
2.13183
2.1546
2.1502
2.17298
2.15497
2.18338
2.1811
2.16901
2.09853
2.10922
2.11441
2.12529
2.12286
2.12417
1.83485
1.75332
1.64164
1.6613
1.56287
1.65593
1.666
1.72482
1.9023
1.90183
1.90245
1.87819
1.9928
2.03872
1.95929
1.91334
2.0394
2.03917
2.04578
2.0645
2.09541
2.08368
2.09602
2.09584
2.09623
2.09683
2.09798
2.09645
2.0975
2.09663
1.21807
1.12369
1.39103
1.39212
1.3043
1.39928
1.39396
1.49644
1.11978
1.12067
1.09889
1.08168
1.0215
1.11994
2.36073
2.38061
2.39976
2.43473
2.42921
2.44989
2.46352
2.47208
2.47983
2.46773
2.47577
2.49721
2.51979
2.5297
2.53014
2.54295
2.5607
2.5852
2.59514
2.5942
2.60703
2.47803
2.46932
2.62404
2.64115
0.224417
0.27031
0.251079
0.327529
0.444569
0.525751
0.427281
0.451814
0.357426
0.371124
0.375503
0.400973
0.500075
0.450587
0.516256
0.513583
0.514971
0.578982
0.648
0.826887
0.745664
0.902996
1.00152
0.983074
0.906202
1.06247
1.05818
1.14721
1.21042
1.18426
1.25578
1.19918
1.39027
1.31663
1.42694
1.42431
1.44339
1.50199
1.63309
1.63716
1.58064
1.60736
1.63722
1.58303
1.69019
1.61666
1.59488
1.63027
1.76253
1.77476
1.83922
1.89613
1.77552
1.86899
2.0124
1.96487
2.03313
2.00119
2.195
2.16055
2.22648
2.24248
2.31308
2.32503
2.38472
2.35413
2.39857
2.385
2.40422
2.4344
2.40871
2.43715
2.4446
2.40458
2.39229
2.43406
2.43171
2.40347
0.001
0.001
0.00101
0.001
0.001
0.001
0.001
0.001
0.001
0.001
0.001
0.001
0.230527
0.001
0.001
0.319281
0.0773406
0.48195
0.354247
0.412065
0.527908
0.371164
0.255128
0.001
0.00115174
0.001
0.001
0.001
0.001
0.001
0.00143239
0.00100993
0.001
0.001
0.001
0.001
0.001
0.00100156
0.001
0.001
0.001
0.001
0.001
0.001
0.001
0.001
0.0010095
0.00101
0.00100891
0.001
0.001
0.001
0.001
0.00125707
0.001
0.001
0.001257
0.001
0.001
0.001
0.00100996
0.0015781
0.001
0.00121873
0.001
0.001
0.001
0.001
0.00101
0.001
0.001
0.001
0.001
0.001
0.001
0.001
0.001
0.001
0.001
0.001
0.001
0.001
0.001
0.001
0.001
0.001
0.001
0.001
0.001
0.001
0.001
0.001
0.001
0.001
0.001
0.001
0.001
0.001
0.001
0.001
0.001
0.001
0.001
0.001
0.001
0.001
0.001
0.001
0.001
0.001
0.001
0.001
0.001
0.001
0.001
0.001
0.001
0.00107237
0.001
0.001
0.001
0.00121874
0.001
0.001
2.65062
2.63113
2.65019
2.63266
2.60375
2.64267
2.62051
2.60461
2.62057
2.46599
2.47994
2.51892
2.52203
2.58641
2.59041
2.64104
2.57055
2.43511
2.45414
2.40307
2.41292
2.40887
2.45466
2.33835
1.23864
1.34802
1.24281
1.27724
1.29357
1.20064
1.1995
1.19918
1.19957
1.19137
1.16766
1.09015
1.06078
0.981139
0.986997
1.09453
1.20312
0.001
0.001
0.878753
0.870233
0.001
0.00100999
0.807353
0.678945
0.001
0.001
0.546163
0.482348
0.151428
0.11553
0.0728992
0.478121
0.408414
0.161258
0.193627
0.297898
1.34311
1.27652
1.25209
1.33242
1.20663
1.22553
1.35895
1.29496
1.34784
1.41233
1.40999
0.001
0.001
0.001
0.001
0.001
0.001
0.001
0.0029063
0.00260398
0.0292965
0.0887956
0.0555652
0.0883334
0.0842376
0.148652
0.110379
0.210867
0.20683
0.202004
0.188978
0.207658
0.205431
0.209331
0.204831
0.001
0.001
0.001
0.00367999
0.001
0.00100998
0.00368531
0.001
0.001
0.001
0.001
0.001
0.001
0.001
0.001
0.001
0.001
0.001
0.001
0.00101
0.001
0.317673
0.349436
0.293007
0.351796
0.374534
0.421844
0.324447
0.0347339
0.486928
0.501237
0.259397
0.204233
0.001
0.001
0.001
0.001
0.001
0.001
0.001
0.001
0.001
0.001
0.001
0.001
0.001
0.001
0.001
0.001
0.866605
0.866264
0.897114
0.866588
0.866035
0.864658
0.863615
0.687999
0.688954
0.769869
0.786
0.646671
0.646839
0.602231
0.601393
0.60307
0.601711
0.572132
0.573169
0.609607
0.607197
0.51704
0.504601
0.461737
0.477664
0.790394
0.720006
0.655273
0.869342
0.774765
0.902747
1.00175
0.924579
0.609541
0.565419
0.670053
0.64441
0.437658
0.4447
0.450976
0.483679
0.505498
0.529269
0.560876
0.541912
2.18982
2.23165
2.20414
2.21292
2.21124
2.2452
2.21111
2.2475
2.27514
2.3065
2.3022
2.30281
2.34534
2.3104
2.40539
2.12347
2.12779
2.13296
2.13652
2.13512
2.13684
2.1495
2.16765
2.15591
2.1015
2.11147
2.11903
2.12471
2.12419
1.80164
1.87746
1.68425
1.68031
1.59748
1.69898
1.75876
1.69065
1.91403
1.9257
1.92946
1.9147
2.03977
2.00527
1.97436
2.00736
2.05194
2.04572
2.07609
2.08844
2.10759
2.10246
2.10301
2.11008
2.10457