/*--------------------------------*- C++ -*----------------------------------*\
  =========                 |
  \\      /  F ield         | OpenFOAM: The Open Source CFD Toolbox
   \\    /   O peration     | Website:  https://openfoam.org
    \\  /    A nd           | Version:  8
     \\/     M anipulation  |
\*---------------------------------------------------------------------------*/
FoamFile
{
    version     2.0;
    format      ascii;
    class       surfaceScalarField;
    location    "18480";
    object      phi;
}
// * * * * * * * * * * * * * * * * * * * * * * * * * * * * * * * * * * * * * //

dimensions      [0 3 -1 0 0 0 0];

internalField   nonuniform List<scalar> 
788991
(
-0.0458221
0.0195633
-0.0427477
-0.0271621
0.0130944
-0.0977199
-0.0523793
0.0439934
-0.0117233
0.060384
0.0279243
0.0220066
0.0582602
-0.0564087
-0.0239795
-0.059242
0.0776429
0.0377879
-0.0419628
0.0686978
0.0333585
0.0308808
-0.0126937
0.0369528
-0.0725485
-0.0190391
0.0130715
0.00588626
-0.0222806
-0.00561548
-0.0387743
0.0145238
0.0474097
-0.00473714
0.0191379
-0.00165814
-0.0337546
-0.0384092
-0.0570077
0.0379604
-0.0527842
0.0502062
0.0240947
-0.0635645
0.0497167
0.0144147
-0.0261252
-0.0243934
-0.0252676
-0.0873437
-0.0403597
0.0897942
-0.0501157
0.0641892
0.0660352
0.0334966
0.00413363
0.0110707
0.00366196
0.00304912
0.0380547
0.00259566
-0.0511483
0.0330592
0.000305565
0.0407114
0.0229226
0.011611
0.0783775
0.000223803
-0.0048361
0.0726917
0.00718049
0.0075054
0.0209821
-0.0524053
0.0350935
0.0191576
0.0432603
0.0401176
0.042702
-0.0823348
0.0452003
-0.0245984
0.0131628
-0.0620863
0.064375
-0.04739
-0.0297356
-0.0443704
0.069875
0.00462467
-0.0733781
-0.0562069
0.0187413
0.0558189
-0.00654859
0.0907356
-0.0573752
-0.0263674
0.0877484
-0.0108595
-0.116457
-0.0885428
-0.0341906
0.0152554
-0.031806
0.0882011
-0.0616274
0.0424345
-0.0254522
-0.0805215
-0.0675478
-0.0900133
-0.0998745
-0.0732713
-0.11538
-0.0507398
-0.0411029
0.0926451
0.065367
-0.135383
0.0352104
-0.0454433
-0.0435921
-0.105146
0.0411945
-0.0322194
-0.0408696
0.0905057
0.0614254
-0.0164308
-0.167284
-0.0528312
0.110753
-0.00940409
0.026417
0.0267061
0.0282135
0.00608225
-0.0110483
0.012033
-0.00622229
0.00290959
-0.00787823
-0.0122522
-0.0157684
-0.0151015
0.00828343
0.00592463
-0.0353766
-0.0365477
-0.0166947
-0.0406612
0.02061
0.015622
-0.00821746
-0.0352318
-0.0879194
0.0317146
-0.0567521
0.0830935
-0.0191216
-0.0669617
0.0384434
-0.0418258
0.0686038
-0.000780832
-0.0603112
0.0382465
-0.0493044
0.0411081
0.00245159
-0.043912
-0.0398043
-0.0392773
-0.0290538
0.00831056
-0.0345669
-0.0332258
-0.0361243
0.0150645
0.00826232
-0.0204718
0.025029
-0.0262201
0.00891159
0.00994811
-0.0124103
-0.0230657
-0.0225991
-0.00902641
0.0160401
-0.00985732
0.0245443
-0.0258593
0.00821066
0.0153298
-0.00577584
0.0264973
-0.0273558
-0.0134573
0.00997064
-0.0139953
-0.0349524
-0.0325173
0.0218429
0.0385555
-0.026532
-0.0378117
-0.0355435
-0.00021796
0.00803928
-0.00459192
0.0285035
0.00705831
0.00600402
-0.00645534
0.100684
-0.0207748
0.0668344
0.0775394
-0.00422801
-0.0956153
0.0547912
-0.0346104
-0.101642
-0.00268112
-0.0446451
0.0957811
-0.0893641
-0.0895061
-0.053048
-0.0872934
-0.148701
0.0331833
-0.0759031
-0.121577
-0.00994813
0.0590808
-0.053206
-0.0215723
-0.0324707
-0.0597149
0.0143685
-0.0206945
-0.0619258
-0.0361513
-0.00703238
-0.0572841
0.0352229
-0.00105284
-0.0514115
0.0375707
0.00659157
-0.0404923
0.0324388
0.00867307
-0.0233436
-0.024381
0.0125204
-0.0136788
0.0222009
0.0203169
-0.00740535
-0.0226564
0.0220103
-0.00818611
0.0281538
0.0109209
0.0392016
5.36983e-05
-0.0379349
-0.0147106
0.0507534
-0.040562
-0.0446301
0.0147003
0.00347346
0.0567709
-0.0419888
-0.0281191
0.0182059
0.0541022
0.0350948
-0.0280269
0.00296418
0.058767
0.0593328
0.00209373
-0.0147282
-0.0541157
-0.0209627
-0.0160796
0.0408631
-0.0230444
0.0264592
0.100564
0.0135936
-0.0432778
0.0340853
0.0217732
0.0489814
0.0676152
-0.017252
-0.0264976
0.0358161
-0.0147571
0.0678327
-0.00333899
-0.0686447
0.0514595
0.0308997
-0.0462623
-0.0418375
-0.122831
0.35066
0.0219083
0.216564
0.00830335
-0.0136416
-0.113198
0.0640133
-0.0366911
-0.014519
-0.00187401
-0.00225894
0.0296268
-0.0537322
-0.0333611
-0.0565354
-0.0466602
-0.0303441
-0.0139413
0.0415268
-0.0305827
-0.0439935
-0.0458262
-0.0245644
-0.045843
-0.0515361
0.0182728
-0.0815529
-0.0613953
0.0466409
-0.0512663
0.0770838
0.0551268
-0.0492672
0.0953429
0.0400432
-0.0450458
0.083537
0.0311614
-0.0624915
0.094275
0.186185
0.00326348
-0.00145803
-0.00957677
-0.00421565
0.116943
0.203415
-0.0123716
0.0336754
0.113708
-0.000789024
0.00717248
0.0441593
0.0128809
-0.0224349
0.00184804
0.0017886
0.010682
0.00107564
-0.0115951
0.00650509
-0.00267651
-0.0117766
-0.0235852
-0.0239594
0.0101326
0.0300828
-0.0108928
-0.0528434
0.013032
-0.0641914
0.0672585
0.000764944
-0.05497
-0.0478148
-0.00679233
-0.0451602
0.025878
-0.0131624
-0.0376356
0.0107225
-0.0121574
-0.0287294
-0.00193111
-0.0133535
-0.0232612
0.00316064
-0.0590349
-0.0426847
0.0196993
0.088426
-0.0386729
0.023136
-0.0939886
-0.0534776
-0.0627267
0.0748208
-0.0511193
-0.0506039
-0.0162442
0.0153509
0.0572128
-0.0197752
-0.0604387
-0.0144451
-0.0241996
-0.0052163
-0.0126164
-0.0264379
0.00953823
-0.0108836
-0.0296153
0.0151493
-0.0324982
-0.0339827
0.00735846
-0.0622597
-0.0184967
-0.0428614
-0.0489265
-0.0997012
-0.0568267
0.079193
-0.0299862
-0.0115678
0.00550436
-0.042196
0.0943462
0.0639536
-0.0695188
0.0921509
0.0142004
-0.0995306
0.0696662
0.00983669
0.101786
0.0350622
-0.0133748
0.0745676
-0.043152
-0.0566229
-0.0456601
-0.119534
-0.10662
0.0249934
-0.1134
-0.141487
0.00850135
-0.0767651
-0.115221
-0.00325453
0.0763816
-0.0457791
-0.00504088
-0.0394469
-0.0513854
-0.0228368
-0.0200262
-0.0575463
0.0198002
-0.0122406
-0.0592942
0.0389104
-0.00467844
-0.0543772
-0.0328261
0.00441002
-0.0425099
0.0296368
0.00824568
-0.0227086
0.0237845
0.0152162
-0.00938543
0.0182446
0.0224423
-0.00395786
-0.0203431
0.0318573
-0.00937838
-0.0301255
0.00841801
0.0428225
-0.0370574
-0.00894692
0.0513131
0.0397484
0.0148259
0.0708393
0.0476635
0.00950627
0.0558883
-0.0398555
0.0807877
0.0157894
-0.0514498
0.0383026
-0.074513
0.0340269
0.0404751
0.0248959
0.0817267
-0.0417148
0.0630789
-0.0414394
0.0204395
0.0352799
0.0388199
-0.0677039
-0.0311997
-0.0171489
-0.06681
-0.0477307
0.0571787
-0.018182
-0.00342453
0.0303985
-0.0123567
0.0399226
0.0533289
0.00565125
0.000348413
-0.0428177
-0.0329341
0.0721445
-0.00448975
0.0332957
0.0558011
0.0385903
0.0453464
-0.00399251
0.0616472
0.0431721
0.0327072
0.0168685
0.0194266
0.048734
-0.0166101
0.00355273
-0.00420154
0.00417907
-0.0612629
-0.108628
0.0405893
-0.0767195
0.0946418
0.0331691
-0.0249913
0.0912667
-0.0121994
-0.0714823
-0.0421038
0.0399043
-0.00464198
-0.438636
-0.0543723
0.232633
-0.0586057
-0.143072
-0.0583295
0.0324786
-0.149216
0.117972
-0.0163798
-0.000706489
-0.00349649
-0.0222968
0.019391
-0.0434178
0.0495012
-0.0329516
-0.0288781
-0.0305584
-0.0407161
-0.0440657
-0.00650944
-0.0591043
0.0296411
0.00177656
-0.0767519
-0.0791211
0.0274663
-0.0436259
0.0644442
0.0402772
-0.0565699
-0.0791796
0.0249725
-0.0522893
0.0702242
0.0180398
-0.0573344
-0.0705976
0.00843965
-0.0644144
-0.0719956
2.48945e-06
0
6.187e-06
0
0
-2.9159e-06
5.06488e-06
-7.29381e-06
5.39497e-06
1.42698e-06
3.26232e-07
0.01489
-0.10286
0
0
0
0
-0.035494
-0.162705
0.0520796
0.222946
0.0321014
0.0296873
-0.046384
0.11492
0.0500543
-0.00725759
0.0960666
0.115727
-0.00608659
0.0374149
0.0952446
0.0248835
0.00751867
0.0309611
-0.0182972
0.0011466
0.0086786
-0.0105652
-0.0201706
-0.00697368
0.0130767
0.01794
0.00394307
-0.0282626
0.028716
-0.0155017
-0.0196707
-0.0353437
-0.0332722
-0.0065217
-0.00704209
-0.0595738
-0.0428857
-0.00884915
-0.0447042
0.0252944
-0.014825
-0.0343838
-0.00914507
-0.0163455
-0.0280742
0.00207426
-0.0201765
-0.0226607
-0.000392922
-0.0230361
-0.0250269
-0.000738956
-0.0706404
-0.0493243
0.0174476
-0.0857843
-0.0394991
0.0621851
-0.0578072
-0.0164165
-0.0833252
-0.0988224
0.0518125
0.0276906
-0.0630657
-0.0692184
0.048752
0.00918676
-0.0176593
-0.0231588
-0.0019064
-0.0166814
-0.0228626
-0.00565635
-0.0238817
-0.0299962
-0.00880814
-0.0146444
-0.0417866
0.0219206
-0.0759491
-0.0481059
0.0264868
-0.0528957
0.0171409
0.0232539
0.0598175
-0.107761
-0.0631324
0.0392379
-0.0588477
-0.0493892
0.0177597
-0.0642035
-0.048254
0.0119615
-0.0566626
-0.0666905
-0.014588
0.0268011
-0.0180524
-0.0580559
0.0771668
0.0439822
-0.0733379
0.143595
0.133049
-0.130834
0.119767
0.0405912
-0.101613
0.0542751
0.0171769
0.054952
-0.0221428
-0.015011
0.019801
-0.0836101
-0.0396111
-0.00922122
-0.133455
-0.08957
0.0119066
-0.128948
-0.116438
-0.0241737
-0.0641624
-0.102115
0.025685
-0.0818163
-0.0488699
0.00155054
-0.0273915
-0.0468235
-0.00777519
-0.0287748
-0.0527397
0.0331309
-0.0110431
-0.0643025
0.0251921
-0.00774178
-0.0508044
0.0330155
6.9762e-05
-0.0383187
0.0245313
0.00606499
-0.0158691
0.0187024
0.0152854
-0.000750624
-0.0140974
0.0239102
-0.000779516
0.0203671
0.0352655
-0.00658807
0.0317938
0.0108168
0.0462975
-0.0360957
-0.00253472
0.0485633
-0.0368045
0.0169085
0.0677281
-0.0466884
0.0152456
0.0569927
0.0394041
0.0747554
0.0195864
0.0450232
0.0388232
0.0704491
-0.0337264
0.0308374
0.0762923
-0.0364248
0.0733874
0.0395027
-0.0420715
0.0814419
0.0312044
0.0520513
0.102822
0.0416217
0.0223101
0.0569918
-0.0700191
-0.0499513
-0.0201261
-0.102329
0.0592797
0.0203061
0.109502
0.116372
0.0126532
0.0158945
0.0707467
0.0260929
-0.0470772
-0.0171441
-0.0562808
0.0107348
0.0732862
-0.0369179
-0.0410554
0.0544381
0.018932
-0.0198162
0.048295
0.0261837
-0.0125989
0.0315932
0.0106378
0.0158925
-0.0412402
0.0038135
-0.0158906
0.0511029
-0.131111
-0.156604
0.0947977
-0.0552999
0.0985583
0.0140693
0.0246075
0.00646569
-0.0298287
0
0
0
0
0
-0.515432
0
-0.331486
-0.0370497
-0.198262
-0.08973
0.0321613
-0.172286
0.126822
0
0
0
0
0
0
0
0
0
-3.58049e-07
0
-1.07913e-07
0
-2.03755e-05
-2.11578e-05
-1.07826e-05
0
1.26485e-05
-4.19959e-05
1.21268e-05
0
1.78515e-05
0
0
0
0
0
0
0
0
0
0
0
0
0
0
0
0
0
-0.0221822
-0.023062
0.0270357
-0.0450325
-0.0062316
-0.0259604
0.0125279
-0.0540176
-0.0242123
-0.0247132
-0.0607517
0.0439428
0.0037494
-0.0550658
0.0491185
0.0168392
-0.049415
-0.0660055
0.0252626
-0.0594917
0.0657276
0.0208172
-0.0502865
0.0679908
0.00415657
-0.0557682
-0.0617208
-0.00732171
-0.0632412
0.0494541
-0.0136173
0.0391661
-0.0514654
0
0
0
0
0
0
0
0
0
3.37212e-06
0
0
0
0
0
0
0
0
0
0
0
0
0
0
0
0
0
0
0
0
0
0
0
0
0
-0.102499
0
0.0929844
0.00307093
-0.0327782
0.00856528
0.0637986
-0.0751442
0.0192762
0.109688
0.0342238
0.00777091
0.112123
0.0850099
-0.0299421
0.0458247
0.0795212
0.027913
0.0162103
0.0204678
0.0177151
0.0202646
-0.00602835
-0.0188494
0.00933436
0.00304439
-0.0154042
0.0125055
-0.00462725
0.0158528
-0.00175986
-0.0190579
-0.0191917
-0.0347485
-0.0409411
-0.0069546
1.76429e-05
0
0
-4.77163e-05
-1.43322e-06
0
0
2.04361e-05
0
0
0
0
0
0
0
0
0
0
0
0
0
0
-0.0156583
-0.0413531
-0.0209781
-0.0157782
-0.0268156
-0.00578408
-0.014996
-0.0227144
0.00348986
-0.0207834
-0.0209343
0.00364976
-0.0301857
-0.0247635
0.00613842
-0.0279095
-0.024907
-0.00345852
-0.0753482
-0.0595248
-0.00338835
-0.043895
-0.0656871
-0.0164702
-0.0787152
-0.0527433
0.0236864
-0.0713132
-0.0559556
-0.0124829
-0.0651533
-0.0492305
-0.000820198
-0.0668495
-0.0657371
-0.00598116
-0.026277
-0.0183833
0.00262293
-0.0269804
-0.0247915
-0.00667919
-0.0209245
-0.0381761
0.01045
-0.0564881
-0.0426849
0.00969934
-0.0620364
0.115537
0.040003
-0.0560766
0.0556271
-0.0669791
-0.120883
-0.0568388
0.0548574
-0.0543218
0.107229
-0.0557758
0.0517735
-0.105406
-0.0596239
0.03354
-0.126078
-0.0708383
0.0560362
-0.0588299
-0.055614
-0.00626045
-0.0953883
-0.0580392
-0.0248756
-0.0604891
-0.0652757
0.00412352
0.0504509
0.0399915
0.0547192
-0.165836
0.0210092
-0.0922834
-0.109453
0.131977
-0.072351
0.0788864
0.0427021
0.0559555
0.00388762
0.0383745
0.000284264
-0.0425676
0.00426379
0.0172362
-0.110874
-0.0268846
0.041288
-0.143063
-0.0684363
-0.0567483
-0.127596
-0.0901787
-0.0512994
-0.0568013
-0.0809489
0.0275132
-0.0704095
-0.0410665
0.00346295
-0.0390085
-0.0430119
0.0155419
-0.017296
-0.0618615
-0.014854
-0.0154678
-0.0565198
0.0337085
-0.00765976
-0.0516814
-0.0234828
-0.0019417
-0.0283312
0.0187427
0.00542743
-0.00614751
-0.0106605
0.0163989
0.00330309
0.0111166
0.0265492
0.000687878
-0.0208652
0.0355943
-0.00331167
-0.0302617
0.0141348
0.0481599
-0.0343737
0.00196273
0.0468091
0.0320672
0.0205141
0.0689429
-0.044297
0.0176722
0.061324
-0.0373786
0.0763403
0.0261928
-0.0399709
0.0440791
0.0780704
-0.0356956
0.0379062
0.0826503
-0.0359873
0.0780493
0.0447825
-0.0435144
0.0745794
0.0298463
-0.0503972
0.0976163
0.019495
-0.0537945
0.111833
0.0377692
0.0521135
0.117755
0.0519573
0.0541185
-0.0593721
0.0682376
-0.0650047
0.136141
-0.0593454
0.0577065
0.134288
0.0654072
0.128761
0.0650366
-0.0674729
0.120352
-0.0712997
-0.0582599
0.0662337
-0.0622877
0.112345
-0.0640352
0.0605487
0.0565141
-0.0523877
0.0984512
-0.0545503
0.0624862
0.0565793
0.0406416
-0.0630868
-0.0386323
0.0383136
0.0553885
-0.0257851
0.0442343
-0.0257074
0.0245355
0.0350545
-0.0162339
0.0406216
-0.0198208
-0.0243971
0.0258525
-0.0119291
-0.0156247
0.0417002
-0.0301311
0.0268326
0.0083064
-0.0897215
-0.037227
-0.0433086
0.138871
-0.0762133
0.00161124
-0.0934979
-0.0437543
0.0439105
0.0163294
-0.0103347
0.0855449
0.000749278
0.0831696
0.0502598
0.0439426
-0.0263135
-0.100428
-0.0528568
0.037981
0.0174838
-0.0102429
0.0473184
0.0192738
-0.0201222
0.0350956
0.0149081
0.000709449
0.00401381
0.00848782
-0.0156164
-0.0555122
-0.00641814
0.070386
0.0813097
-0.0995618
0.103578
0.0313848
0.0290909
-0.00639173
0.028803
0.0275782
-0.00445302
0
0
0
0
0
0
-0.403199
0
0
-0.0441581
-5.64134e-05
-0.146227
-0.0290478
-0.135293
-0.00569028
0
0
0
0
0
0
0
9.37848e-05
1.62905e-05
0
0
0
0
0
0
0
0
0
0
0
0
-5.80307e-05
0
0
0
0
0
-4.77993e-05
2.48014e-05
0
-5.4843e-05
0
2.87442e-05
0
0
0
-2.08198e-05
0
0
0
5.33653e-05
-3.05004e-05
0
-3.60545e-05
-5.47283e-05
3.69734e-05
8.81825e-06
0
-3.98147e-05
-5.13947e-05
0
-2.06224e-05
0
5.97147e-05
0
0
0
0
0
0
0
0
0
0
0
0
0
0
0
0
0
0
0
0
0
0
0
0
-0.0326174
-0.0448575
-0.0500872
-0.033555
0.0153421
0.0185443
0.00179279
-0.0243624
0.0315528
0.0246685
-0.0156932
-0.0769191
0.017578
-0.0431733
-0.064433
0.0163454
-0.0697115
0.0750477
0.00921784
-0.0501779
0.0570967
-0.0250128
-0.0208918
-0.0172051
-0.0353964
-0.00643674
-0.0624261
0.0462479
-0.00710029
-0.0450948
0.0434025
0.0250161
-0.0548402
0
0
0
-2.71027e-05
2.68466e-05
5.41205e-05
0
0
0
0
0
0
4.00938e-05
0
-1.48335e-05
0
0
0
0
0
0
0
0
0
0
0
0
0
0
0
0.0117273
0.00208585
0.0692927
-0.00573847
0.00942014
-0.0599632
0.0482232
0.00853818
0.0166726
0.125286
0.0286145
-0.0320994
0.104137
0.080749
0.0310725
0.0292746
0.0636796
-0.0219607
0.0274115
0.0043172
-0.0232325
0.0424168
0.013649
-0.024502
0.0148864
-0.0148531
0.0120449
-0.0115494
-0.0161749
0.0239775
0.0293164
0.00338327
-0.0330551
0.00722017
-0.0324366
-0.00135599
0
0
0
0
0
0
0
-5.15381e-07
0
2.89635e-07
0
-5.16828e-07
-7.0567e-08
0
0
0
0
0
0
0
0
0
0
0
0
0
0
0
0
0
0
0
0
0
0
0.00492248
0.049342
-0.0144112
-0.0240219
-0.0250303
0.00167713
-0.0153843
-0.0184602
-0.00422517
-0.0149053
-0.0195245
0.00062164
-0.0238126
-0.0226448
-0.0107999
-0.021639
-0.0247036
0.0107701
-0.0218284
-0.0168838
0.0064655
-0.0430885
-0.0625029
0.0129102
-0.0755746
-0.0438087
0.0223102
-0.0703647
-0.0515379
-0.0158432
-0.0691156
-0.0605995
0.00255729
-0.0681432
-0.0632312
-0.00339067
-0.0445404
-0.0610716
0.0135504
-0.0250246
-0.0203175
0.00989877
-0.0332359
-0.0363254
0.0173192
-0.0554463
-0.0457777
0.0105258
-0.0624588
-0.0543409
-0.00909712
-0.0557921
-0.124008
-0.0505014
-0.0629033
-0.112535
-0.0550272
-0.0680662
-0.119477
-0.0541892
-0.107279
-0.0577118
-0.0503912
-0.0753133
-0.131354
0.0578145
-0.0713751
-0.135192
-0.0529951
-0.127732
-0.0760386
-0.058979
-0.11995
-0.0682467
0.0707941
-0.0789533
-0.0504369
-0.0428898
-0.0522006
-0.0359561
-0.0237207
-0.0457761
-0.0280451
0.0223048
-0.0464106
-0.0236236
0.0275165
-0.0111153
0.0310667
0.00462012
-0.0416366
0.0360819
-0.0189245
-0.0478591
-0.035507
-0.131807
-0.0714614
-0.0543128
-0.121347
-0.0715776
0.0518251
-0.0844948
-0.0581308
-0.0199525
-0.127567
-0.0481427
-0.06286
-0.069609
-0.0859304
0.0069571
0.067429
0.0835106
-0.0535588
0.126533
0.0738316
-0.0461281
0.15658
0.125369
-0.0487299
0.0475503
0.0633276
0.001998
-0.0190978
0.0244989
0.0273014
-0.0860347
0.0162542
-0.0576995
-0.138154
-0.012082
0.0823977
-0.153454
-0.0622826
-0.0978407
-0.11482
-0.0727644
0.0703818
-0.0462071
-0.0594197
-0.0153019
-0.0521966
-0.0412819
0.00165851
-0.0274113
-0.04434
0.00421151
-0.0280354
-0.0540892
0.0252942
-0.00968281
-0.064514
-0.0206965
-0.00860574
-0.041592
0.0215783
-0.00140139
-0.0210478
-0.00872428
0.00751874
-0.000673828
0.00425857
0.0183346
0.00487246
-0.00956158
0.0264297
0.00129502
0.0195079
0.0344065
-0.000856739
-0.026328
0.0167019
0.0486374
-0.0299133
0.00496239
0.0444175
0.0260938
0.0250444
0.0746971
0.0380979
0.018681
0.0645664
-0.0317391
0.0813433
0.0337048
-0.036134
0.0494811
0.0848696
-0.0388435
0.042834
0.0895048
0.0369676
0.0734722
0.0461729
-0.0465573
0.0696075
0.0253725
0.0501874
0.0923321
0.0179402
-0.0491372
0.11387
0.0404757
-0.0536908
0.0636591
0.0595013
0.132818
0.126038
0.0657934
0.064409
0.125867
0.0670705
-0.0628664
0.107847
0.0637306
-0.0520656
0.0953431
0.0559287
-0.0409539
0.0807598
0.0537457
-0.0283837
0.050625
0.0509833
-0.0156161
0.0374355
0.0328917
-0.0080626
0.0355637
0.0274103
0.00472532
0.0356004
0.0283408
-0.00237656
0.0352728
0.0360097
0.031719
0.00208002
0.0340458
0.00095851
0.0397331
0.0360324
-0.00698714
-0.0314914
0.00591972
0.0421872
0.0112413
0.0400635
-0.107866
-0.051902
0.0164985
0.151748
-0.115922
0.0117426
-0.126299
0.033886
-0.0110734
0.0791106
0.112078
0.0697042
0.042658
0.104613
0.0393514
-0.0467425
0.159019
0.0596048
-0.04292
0.00723107
-0.0697575
-0.0571262
0.0470247
0.0103322
0.0171249
0.0288078
0.0574269
0.00504814
0.0226149
0.0174568
0.0274646
-0.0460761
0.0404504
-0.0951926
-0.0287952
0.0428574
0.0549135
0.0705854
0.0434174
-0.0310408
0.0349558
0.0782419
-0.0181656
0.0301264
-0.00358235
-0.030217
0
0
0
0
0
0
-0.0945234
0
0
-0.193025
0
-0.0209201
0.0647861
-0.038114
-0.0794573
0
1.0098e-05
0.000134575
0
0
0
0
6.69084e-05
0
0
0
0
0
0
0
0
-2.50082e-09
-6.09615e-07
0
0
0
0
0
0
0
0
0
0
0
0
0
0
0
2.36515e-05
0
0
-9.45014e-05
0
0
0
0
0
0
0
0
0
0
0
0
0
0
0
0
0
0
0
0
0
0
0
0
6.07483e-07
0
0
0
0
-0.0254986
0.0201101
-0.0495794
-0.0274587
0.0311804
-0.00585165
0.00763985
-0.00321717
0.0330714
-0.0115121
-0.0857799
0.037114
0.00938066
-0.0574626
0.0602116
0.00650144
-0.0392533
-0.0546953
-0.00174863
-0.0510634
-0.038092
-0.0215409
-0.0319221
-0.00112932
-0.0286127
-0.0153948
0.0129451
0.0367127
-0.0235988
-0.0508935
0.019898
0.0216188
-0.0271592
-3.22904e-05
0
-9.35744e-06
6.46494e-05
-1.12513e-05
-1.12691e-06
0
0
0
0
0
0
0
0
0
0
0
0
0
0
0
0
0
0
0
0
0
-0.0737138
0
0.106717
-0.0231826
0.107066
0.000912293
-0.0186776
-0.0531495
-0.00878232
0.074087
-0.0197129
-0.0149904
0.120766
-0.0316448
0.0417288
0.0890696
0.0813307
0.0289372
0.0466174
0.0575935
-0.0277102
0.0172484
0.000570934
-0.0209732
0.0149612
-0.0103338
0.0253163
0.0213205
0.00581558
-0.0302458
-0.000639656
-0.0162583
-0.00837819
0.00328701
-0.0261193
-0.0477867
0.0247886
0.00152091
0.0113249
0
0
0
0
0
0
0
0
0
0
2.84252e-07
0
0
0
0
0
0
0
0
-0.00755053
0
0
0
0
0
0
0
0
0
0
0.0103136
0
0.00282138
0
0
0
0
0
0
0
0
0
0
-0.00657743
0
-0.0259718
-0.0210126
-0.00896056
-0.0183232
-0.0181576
0.010231
-0.0189192
-0.0194913
0.00158314
-0.00999657
-0.0222305
-0.0108451
-0.026583
-0.0253411
-0.0332733
0.00519119
-0.00795878
-0.0155161
0.00899936
-0.00993245
-0.0167816
-0.0125009
-0.0581206
-0.0483784
-0.0100414
-0.0731886
-0.0499873
0.0149937
-0.0716133
-0.0645194
-0.00180011
-0.0851859
-0.0761636
-0.00287946
-0.0445842
-0.0577281
0.00588492
-0.0526883
-0.0493389
0.00355876
-0.0243814
-0.0361906
0.0296822
-0.0570587
-0.0467386
-0.00586797
-0.0615779
-0.0481017
-0.00963248
-0.048295
-0.0480266
0.00182941
0.0102911
0.00652935
0.0377226
-0.0193799
0.0221543
-0.0326747
0.0167718
0.0385648
0.0281588
0.0231699
-0.0416025
0.0444052
-0.0348568
-0.00749055
0.0379337
0.0342215
-0.0266076
0.0105117
0.0412906
-0.0145927
0.0412801
-0.028259
0.0398402
-0.0177737
0.0145393
0.0430984
-0.0285436
0.0458636
-0.0193487
0.0178995
-0.0485056
0.044182
-0.0247333
-0.0329316
0.0178073
0.0451535
-0.0395023
-0.00524358
0.0396327
-0.0367726
9.83389e-05
-0.0427487
-0.031879
0.00603393
0.0433108
-0.0626669
-0.125604
-0.0424174
-0.0613312
-0.111229
-0.0543013
-0.067854
-0.116343
0.0520351
-0.107963
-0.0609187
-0.0416382
-0.0814236
-0.136287
0.0577781
-0.0840465
-0.14113
0.0367462
-0.141409
-0.079159
0.0778841
-0.0941497
-0.0640249
0.0460437
-0.0603797
-0.0490136
0.0228363
-0.0513096
-0.0380577
0.0197483
-0.0517679
-0.0320341
0.0264591
-0.0543666
-0.0266872
0.034924
-0.0124583
-0.0450097
0.0394652
-0.0199443
-0.0515044
0.0386465
-0.0712412
-0.123139
-0.0442358
-0.114598
-0.0672549
-0.116166
0.0343726
-0.117659
-0.0714361
-0.046243
-0.0735817
-0.0444522
-0.0186243
-0.0824142
-0.0565977
0.00718708
0.0266931
0.0283323
0.0407783
0.0162082
0.0230544
0.0420987
-0.0188419
0.026459
0.0404391
0.0215908
0.0261051
0.0469312
0.0221138
0.0201193
0.0495761
0.0248616
0.00443781
0.036542
0.0320449
0.00224954
0.0343211
0.0390934
0.0418531
0.000147834
0.0424583
0.0431616
0.110396
0.113486
0.0370517
0.153942
0.0861206
-0.0305076
0.11903
0.0927222
-0.0284226
0.013388
0.0608421
0.0164343
-0.0464911
0.0321079
-0.058556
-0.107378
0.0291488
-0.0829221
-0.179158
-0.0123477
-0.117912
-0.148002
-0.0569153
0.114907
-0.0858455
-0.0432598
-0.0418903
-0.0345403
-0.0283014
-0.0105892
-0.0479278
-0.0348388
0.00405476
-0.0312842
-0.0374896
-0.0123523
-0.0218032
-0.056064
0.0163881
-0.0123553
0.0225979
-0.051476
-0.00355189
-0.0302881
0.0108552
0.00191927
-0.00984466
-0.00489498
0.0111553
0.00439614
-0.00172794
0.0187278
0.00542356
0.00875207
0.0250309
0.00334797
0.0174198
0.0300166
0.00146094
0.0231749
0.0180369
0.0496795
-0.0258992
0.00384567
0.0415949
-0.0189148
0.0293613
0.0762069
0.0337574
0.0224296
0.0667911
-0.0300988
0.0821558
0.0363044
-0.0351226
0.0502068
0.0868035
-0.0413097
0.0412334
0.0858478
0.0377457
0.0701536
0.0417184
0.045214
0.068272
0.0256191
-0.0493766
0.0972291
0.0205594
-0.0482603
0.0606538
0.0490433
0.130682
0.108861
0.0499111
0.0611243
0.12662
0.0673202
-0.0625692
0.115474
0.0625606
-0.0543841
0.0954324
0.0604038
-0.040817
0.0806821
0.0534857
0.0279734
0.0644629
0.0513005
-0.0161389
0.0392025
0.0459074
0.00543804
0.0316233
0.0313184
-3.39765e-05
0.0305664
0.0296953
0.00181442
0.0301158
0.0317555
-0.00430711
0.0287028
0.033481
-0.00794861
-0.0129052
0.0362419
-0.130367
-0.013074
0.016765
0.152257
-0.129935
-0.00646348
-0.0443881
-0.113357
-0.116824
-0.0844051
0.0883432
-0.0304803
0.135443
0.0722871
0.00439394
-0.0728236
0.0939651
0.0386867
0.0375125
0.120695
0.0834595
-0.0217067
0.018067
-0.000256794
-0.0426092
0.0550784
0.0213781
0.0196763
-0.00910928
0.100155
-0.0399457
-0.0557159
0.0552008
-0.0447206
0.00914101
0.0207094
-0.0422077
-0.00380486
0.0171498
0.0465023
0.0955013
0.057394
0.0909929
-0.140223
-0.0406708
0.145825
-0.035034
0.00052206
0.0178234
0.00576798
0
0
0
0
0
0
0
0
0
0
0
0
0.0389663
0
-0.0309277
0
0
0
0
0
0
0
0
0
0
0.0033461
0.00212121
0
0
0
0
0
0
0
0
0
0
0
0
0
0
0
0
0
0
0
-2.23496e-06
3.89397e-06
0
0
0
0
-0.000109338
8.66277e-05
0
0
0
0
0
0
0
0
0
0
0
0
0
0
0
0
0
0
0
0
0
0
0
0
0
0
0
8.03606e-06
0
-3.60143e-05
0
0
0
-6.67194e-06
0
1.40997e-05
0.0421442
0.0325086
-0.044955
0.0218381
0.053387
-0.0484815
0.02707
0.0126878
-0.0334154
0.0215174
0.0253695
-0.0216914
-0.0373404
-0.0203134
-0.0070864
-0.0492374
0.0501349
0.0158687
0.00444925
-0.050604
-0.00568999
-0.0663698
0.0422982
-0.0231785
-0.0522971
0.0137933
-0.00392857
-0.000827843
-0.0125285
-0.016419
0.00114307
-0.0274291
-0.0204558
0.011398
0.0251125
-0.035869
0.00831944
2.44878e-06
0
0
0
0
0
0
0
0
0
0
0
0
0
0
0
0
0
0
0
0.0837989
0.0973947
-0.0273401
0.0608071
0
0
0
0
0
0
0.0295423
0.0115398
0.00206776
0.0648552
0.10692
0.0114267
0.0489893
0.0160174
-0.00452872
0.0209319
0.0153042
0.061175
0.0787506
-0.0240836
0.0315576
0.0410842
0.0153954
-0.00596498
0.00324684
-0.023002
-0.00481971
0.0251647
0.00397683
-0.0228172
0.00457609
0.00117831
-0.0177964
0.0171423
0.0132189
0.00736904
-0.0292279
-0.0339948
-0.00862434
-0.01328
-0.024224
0
0
9.12237e-06
8.24913e-07
0
0
0
0
0
0
0
0
0
0
0
0
0
0
0
0
0
0
0
0
0
0
0
0
0
0
0
0
0
0
0
0
0
0
0
0
0
0
0
0
0
0
0
0
0
0
0
0
0
0
-0.0268691
-0.0231297
-0.0251143
-0.00358291
-0.026158
-0.0216477
-0.0126084
-0.0236969
-0.0176535
-0.00919712
-0.0126897
-0.0185567
0.000640252
-0.00397359
-0.014319
-0.00206676
-0.0258431
-0.0271067
0.00605654
-0.00368836
-0.0142655
0.00610046
-0.0166322
-0.0370471
-0.0291526
-0.0692025
-0.0539287
-0.00237236
-0.0810018
-0.0717347
0.00239483
-0.0900003
-0.0793006
-0.00642576
-0.0761549
-0.0792959
-0.000600074
-0.0583718
-0.0453121
-0.00718747
-0.0598321
-0.0549557
-0.00467282
-0.0489102
-0.0534289
-0.0123134
-0.0545421
-0.0471388
-0.00235982
-0.038212
-0.0353225
-0.000334604
-0.0552332
-0.03568
-0.00254485
-0.0210576
0.0182936
0.0342968
-0.0179634
0.0165128
0.0518946
0.00220233
0.024277
-0.0495956
-0.0338402
0.0130759
-0.0535162
-0.0302726
0.0112502
-0.0449109
-0.0307265
0.0150973
0.0487549
-0.0268715
0.0194125
-0.048962
-0.00847331
0.024691
-0.043614
-0.0425786
-0.0058961
-0.0433505
-0.0377535
0.000329015
0.0454465
-0.0343609
0.00699187
-0.0466118
-0.0725312
-0.126801
-0.0274696
-0.064626
-0.105453
0.0435625
-0.0702069
-0.114108
-0.042228
-0.1034
-0.0692917
0.0261443
-0.106597
-0.159219
0.0921573
-0.00263052
-0.0999113
-0.105089
0.0103154
-0.0666763
-0.112091
-0.0486203
-0.0958625
-0.116638
0.0357546
-0.0728393
-0.0637887
0.0254013
-0.0585873
-0.048307
0.0197423
-0.059318
-0.0399703
0.026633
-0.0620371
-0.0342264
-0.0357481
-0.0580178
-0.027603
-0.0379697
-0.0127292
-0.0486632
-0.043149
-0.0201228
-0.0550902
0.042571
-0.103753
-0.063558
0.0285157
-0.0729893
-0.116509
0.0428727
-0.0729271
-0.121998
0.0404146
-0.113393
-0.0731734
0.0363251
-0.0586468
-0.0917002
-0.0315222
-0.0690637
-0.0896333
0.0276618
0.0247835
0.0239384
0.040238
-0.0182118
0.0239951
0.0435171
-0.0204857
0.0206885
0.0222278
0.0448263
0.0252378
0.043346
0.0250533
0.0247228
0.0479702
-0.0257844
0.00959723
0.0517063
0.0264316
-0.000864679
0.0388103
-0.0370378
0.00354877
0.031658
0.0474989
-0.0124398
0.0437212
-0.0518809
0.0236667
0.0484632
0.0184059
0.0271056
-0.027259
0.0267958
0.0359408
0.0524115
0.113367
0.106065
0.0100817
0.0668951
0.0882217
-0.000393021
-0.0818529
0.0591111
0.00694641
0.000242465
0.0561167
0.0582373
-0.0644803
0.0450164
-0.0954584
-0.153286
0.0395828
0.126984
-0.158832
-0.0124239
0.138112
-0.0802288
-0.0339549
-0.0579332
-0.0539406
-0.00834678
0.0203171
-0.0276023
-0.00714153
0.00268694
-0.0414774
-0.0343148
-0.00798044
-0.0273566
-0.0398313
0.0207299
-0.0238606
-0.0034288
-0.0185384
-0.0493154
-0.000931732
-0.0273656
-0.00144419
-0.0151952
0.00749736
0.00633621
-0.00216959
0.00104763
0.012302
0.00583937
-0.00412986
0.0193573
0.00633694
0.0094298
0.0243728
0.00720391
-0.0145642
0.0215213
0.00850077
-0.0197683
0.020995
0.0525573
0.0263439
0.000298188
0.0454134
0.0230219
0.0317688
0.0750687
-0.0342543
0.0236257
0.0671869
0.0320896
0.0790504
0.035281
-0.037915
0.0442485
0.0807077
-0.0394752
0.0368952
0.0816805
-0.0389071
0.0727981
0.0413935
-0.0395013
0.0705826
0.0343617
-0.0527028
0.0578373
0.0142271
0.110945
0.0698792
-0.044157
0.126412
0.0623015
-0.0571709
0.113518
0.0637252
-0.0521565
0.0991718
0.0588272
0.0403518
0.0786912
0.0569013
-0.0263696
0.0654494
0.0508122
0.0136712
0.0482972
0.0489377
-0.00374374
0.0293184
0.0412686
0.00556204
0.027383
0.0325053
0.00942436
0.0270257
0.0361758
-0.00956467
0.0253758
0.035504
-0.0113687
-0.0150895
0.0378019
-0.218187
0.0373483
0.093475
-0.148483
-0.0342255
-0.194199
-0.00280664
-0.196722
-0.0581142
0.103592
0.119477
0.217891
-0.310386
0.0792503
-0.0994691
-0.111504
0.098087
-0.0124594
0.0693849
0.0728437
0.0699808
0.0248003
0.0616738
0.0822905
-0.00663801
-0.0262624
0.0247877
-0.0127443
0.0446264
0.0173452
-0.0265538
-0.00869892
0.127265
-0.257591
-0.174691
0.143858
0.310395
-0.0825847
-0.129125
0
-0.0292218
0
0.0139222
0.0460682
-0.0202806
-0.0314699
-0.0645376
0.116325
-0.023891
0.0985363
0.054199
0.0776507
-0.22453
0.00821586
0
0
0
0
0
0
0
0
0
0
0.00362213
-0.00321074
-0.0352104
0
0
0
0
0
0
0
0
0.00387356
0
-0.00183676
0
-0.00343541
0
0
0
0
4.78433e-06
0
-2.7964e-05
0
0
0
0
0
0
0
0
0
4.90062e-06
-3.24077e-05
1.56075e-05
0
-3.35093e-06
0
-7.03372e-05
-3.73183e-05
-6.15425e-06
0
-9.13208e-05
0
0
0
0
7.52432e-06
0
-5.48153e-05
0
-9.10139e-06
-1.68439e-05
0
0
0
0
0
0
0
0
0
0
0
0
0
0
0
0
0
0
0
0
0
-3.92961e-06
0
5.82675e-06
0
0
0
-3.66932e-05
0
0
0
0
0
0
0
0
0.0485897
0.0251432
0.0704955
0.0292744
0.0335754
0.0311593
-0.012923
0.0598984
0.0635297
0.046202
0.00489659
-0.00551282
0.092469
0.0243264
-0.0180851
-0.00127242
-0.0291476
-0.0180742
0.0364524
0.00755524
-0.00729421
-0.0121867
0.00530802
-0.0130102
-0.0594119
-0.0330277
0.000329031
0.022281
-0.0159619
-0.0346423
-0.0501114
-0.0147144
-0.00803677
-0.00202302
0.00943235
-0.0167241
-0.00282891
0.0249142
-0.0197478
0.00169995
0
0
0
0
0
0
0
0
0
0
0
0.0754646
0.0762297
0.0175345
0.070614
0
0
0
0
0
0
0.0738137
0.0180892
-0.0511286
0
0
0
-0.0404512
0.0603724
0.13074
-0.00102333
-0.000482348
-0.00319864
0.073909
0.0960667
-0.0141188
0.017819
0.0426893
0.0366778
-0.00920923
0.0352207
-0.00934261
0.0567352
0.0803104
-0.0132976
0.0210507
0.0534343
-0.00614647
0.0297132
-0.0159713
-0.0161362
0.0342534
0.0212294
-0.00096027
-0.0177988
-0.00681128
-0.0151881
0.00775456
0.00930519
0.0201255
0.0548673
0.0344649
-7.01372e-08
0
0
7.027e-07
0
-7.66731e-06
0
0
0
0
3.47584e-06
0
-6.00328e-07
0
4.07634e-06
0
0
0
0
0
0
0
6.20403e-05
0
1.23076e-05
-1.15154e-06
8.54368e-06
-8.19037e-06
0
0
0
0
0
0
0
0
0
0
0
0
0
0
0
-4.94924e-05
0.000122735
0
0
0
0
0
0
0
0
0
0
0
0
0
7.05849e-05
0
0
0
0
-2.37133e-05
0
4.08144e-05
-0.0283269
-0.0298202
0.0227874
-0.0106852
-0.0247837
-0.0276334
-0.00687594
-0.030013
-0.0237109
-0.00848142