/*--------------------------------*- C++ -*----------------------------------*\
  =========                 |
  \\      /  F ield         | OpenFOAM: The Open Source CFD Toolbox
   \\    /   O peration     | Website:  https://openfoam.org
    \\  /    A nd           | Version:  8
     \\/     M anipulation  |
\*---------------------------------------------------------------------------*/
FoamFile
{
    version     2.0;
    format      ascii;
    class       volScalarField;
    location    "21360";
    object      Hclip;
}
// * * * * * * * * * * * * * * * * * * * * * * * * * * * * * * * * * * * * * //

dimensions      [0 1 0 0 0 0 0];

internalField   nonuniform List<scalar> 
526318
(
1.80916
1.7546
1.82558
1.73558
1.80365
1.78184
1.76969
1.7076
1.76804
1.6407
1.62497
1.73309
1.68554
1.71092
1.68169
1.7001
1.6893
1.88437
1.77898
1.8399
1.81998
1.77875
1.54363
1.78704
1.66782
1.5394
1.81261
1.80958
1.8169
1.81643
1.86203
1.89302
1.87763
1.76286
1.75109
1.76753
1.75186
1.83125
1.75187
1.69505
1.75569
1.75478
1.39884
1.45704
1.35953
1.40446
1.38913
1.48663
1.68756
1.57809
1.67129
1.68134
1.62407
1.57865
1.07854
1.32743
1.31757
1.12482
1.8356
1.8543
1.87184
1.81462
1.77086
1.90123
1.89021
1.867
1.83978
1.84274
1.75108
1.74586
1.85161
1.62522
1.68574
1.57503
1.52804
1.51408
1.62068
1.60401
1.53773
1.56944
1.65882
1.65709
1.61183
1.55931
1.59002
1.65927
1.64814
1.62859
1.57957
1.66247
1.56524
1.5118
1.50512
1.43119
1.43352
1.43622
1.43504
1.42811
1.42762
1.4314
0.864931
0.809869
0.896719
0.93213
0.989913
0.771476
1.33755
1.15314
1.45829
1.42892
1.47517
1.58342
1.81408
1.69712
1.80661
1.82733
1.88325
1.86454
1.9097
1.42156
1.42837
1.42945
1.43399
1.38904
1.42232
1.3376
1.37574
1.28839
1.3395
1.28541
1.28861
1.28004
1.25117
1.24704
1.27021
1.21733
1.27063
1.21651
1.23537
1.18665
1.18798
1.20867
1.24229
1.22665
1.18263
1.18567
1.19807
1.18239
1.18152
1.18903
1.20217
1.19274
1.20145
1.18921
1.19674
1.15104
1.18426
1.20422
1.15228
1.12118
1.18655
1.14547
1.21064
1.68682
1.7812
1.73361
1.70695
1.51992
1.58546
1.52356
1.52164
1.52264
1.51587
1.54712
1.52124
1.45399
1.43164
1.39145
1.33389
1.39101
1.43322
1.43409
1.43735
1.32022
1.36857
1.26195
1.26795
1.27594
1.26769
1.26855
1.27688
1.26149
1.26785
1.26349
1.24941
1.23197
1.25682
1.24816
1.22216
1.20166
1.22593
1.20451
1.20088
1.22507
1.21663
1.21229
1.18005
1.19387
1.23099
1.22474
1.68127
1.69271
1.72223
1.71601
1.67441
1.68675
1.69181
1.53233
1.60877
1.33915
1.32213
1.32218
1.44583
1.5605
1.45961
1.48336
1.49607
1.43108
1.42762
0.919177
0.727519
1.06776
1.261
0.52343
0.356216
0.657082
0.75117
0.718709
0.725895
1.88385
1.88051
1.92286
1.91576
1.87771
1.86326
1.78262
1.86046
1.71265
1.65786
1.65528
1.65542
1.65266
1.65415
1.64516
1.64164
1.55806
1.62604
1.43399
1.49819
1.42964
1.43734
0.241355
0.161818
0.623636
0.405369
0.903077
0.849709
0.905746
1.05334
1.43417
1.25224
1.49358
1.4875
1.59912
1.69706
1.8235
1.82792
1.84683
1.83203
1.9047
1.93402
1.40166
1.40827
1.36506
1.33763
1.23567
1.27074
1.19926
1.20553
1.1971
1.19556
1.18462
1.18794
1.11436
1.14178
1.17101
1.20504
1.26346
1.22874
1.19425
1.1865
1.12741
1.11394
1.16407
1.21928
1.14137
1.18395
1.18735
1.14752
1.14618
1.12091
1.11534
1.07509
1.07425
1.07903
1.0672
1.18945
1.22711
1.18611
1.22841
1.59063
1.56074
1.45446
1.54
1.45798
1.51114
1.52683
1.50649
1.52588
1.52481
1.43965
1.34399
1.27344
1.25976
1.33442
1.27397
1.26125
1.37185
1.26137
1.31288
1.24931
1.25201
1.25991
1.24845
1.26416
1.26085
1.25963
1.26078
1.26013
1.26224
1.2695
1.26556
1.2782
1.27362
1.27744
1.25704
1.26845
1.25528
1.2252
1.2278
1.25513
1.28063
1.27314
1.24978
1.23
1.25949
1.29852
1.29896
1.31187
1.27513
1.30773
1.32393
1.36126
1.3127
1.32093
1.34424
1.37975
1.51389
1.55842
1.48923
1.50376
1.57536
1.66202
1.56404
1.43125
1.54742
1.46128
1.47179
1.20394
1.15842
1.18968
1.17274
1.28603
1.41546
1.34696
1.40344
1.41428
1.43665
1.40822
0.696817
0.823664
0.979794
0.832431
1.0639
0.956457
0.0855611
0.240275
0.176906
0.102664
0.0192319
0.238121
0.476999
0.715585
0.593399
0.624773
1.89761
1.9096
1.94856
1.92832
1.90595
1.87969
1.80216
1.72243
1.66339
1.66543
1.6468
1.63957
1.62238
1.63124
1.60436
1.59948
1.55291
1.59689
1.5198
1.46181
1.40873
1.36318
0.001
0.00107123
0.00107123
0.001
0.001
0.001
0.001
0.00107123
0.00107123
0.00107122
0.0797569
0.001
0.001
0.001
0.0399304
0.001
0.143154
0.239229
0.249376
0.409014
0.87015
0.658836
0.970785
0.94492
1.14084
0.986963
1.34869
1.5087
1.52434
1.60809
1.84023
1.7298
1.85021
1.84496
1.85916
1.91055
1.91306
1.9311
1.32428
1.3253
1.27727
1.3056
1.24203
1.20746
1.19889
1.19545
1.195
1.19717
1.15116
1.14598
1.09441
1.10653
1.15967
1.13583
1.10729
1.15149
1.14932
1.16788
1.07749
1.06785
1.09149
1.10256
1.10524
1.05925
1.06183
1.06035
1.06445
1.04881
1.04795
1.34757
1.31976
1.32089
1.32134
1.34147
1.44908
1.40619
1.38677
1.26607
1.31248
1.29634
1.30198
1.20031
1.13365
1.31634
1.43008
1.31052
1.32285
1.30146
1.38239
1.36779
1.43645
1.46753
1.39948
1.37616
1.40894
1.28653
1.2585
1.25732
1.25666
1.17294
1.22708
1.15025
1.10457
1.0862
1.20422
1.20102
1.25267
1.25163
1.24763
1.2534
1.25136
1.25705
1.25284
1.26516
1.25765
1.27695
1.26948
1.27603
1.2785
1.30381
1.28706
1.31317
1.31784
1.26391
1.24679
1.31089
1.29691
1.28102
1.29897
1.28364
1.26866
1.32308
1.29965
1.40484
1.41134
1.36399
1.40412
1.4152
1.38174
1.47439
1.44708
1.51416
1.53509
1.56036
1.46385
1.47824
1.46255
1.46054
1.44673
1.41046
1.49469
1.33502
1.31311
1.35916
1.37702
1.05659
1.10176
1.18804
1.30106
1.33972
1.37284
1.27737
1.24673
1.20381
1.15048
0.516386
0.591553
0.868685
0.67685
0.988414
1.05179
0.0274355
0.001
0.0125932
0.00974294
0.162165
0.001
0.532461
0.296121
0.456037
0.453197
0.001
0.001
0.001
0.001
0.001
0.00101
0.001
0.001
0.001
0.001
0.00112554
0.001
0.00109864
0.001
0.00112541
0.00112541
0.001
0.001
0.001
0.001
0.001
0.001
0.001
0.001
0.00100959
0.001
0.00100965
0.001
0.001
0.001
1.91615
1.91893
1.95291
1.93632
1.91867
1.84746
1.64901
1.74147
1.62293
1.62857
1.60493
1.6072
1.58968
1.59501
1.59465
1.58968
1.53868
1.49737
1.41135
1.44615
1.30335
1.34564
0.001
0.001
0.001
0.001
0.001
0.001
0.001
0.001
0.00101
0.001
0.001
0.001
0.001
0.001
0.001
0.001
0.001
0.00100737
0.001
0.001
0.001
0.001
0.001
0.001
0.0232041
0.170493
0.34429
0.311422
0.37606
0.558147
1.01186
0.812373
1.02657
1.02933
1.32281
1.15578
1.53315
1.49738
1.55659
1.6684
1.76569
1.851
1.86832
1.84774
1.89055
1.92612
1.90611
1.89313
0.00112486
0.001
0.001
0.001
0.001
0.001
0.001
0.001
0.001
0.001
0.001
0.001
0.001
0.001
0.001
0.00101
0.001
1.30492
1.30409
1.30435
1.26924
1.19027
1.2238
1.15015
1.13977
1.10782
1.1006
1.05834
1.05398
1.08932
1.08419
1.04517
1.07834
1.07479
1.1234
1.1046
1.10255
1.02725
0.999791
0.998537
1.04118
1.04538
1.05004
1.02552
1.02545
0.988628
0.979375
0.942613
0.949047
1.54806
1.51458
1.55393
1.56419
1.51222
1.47001
1.63824
1.65924
1.72131
1.73207
1.27784
1.32079
1.3707
1.45516
1.27678
1.22005
1.2577
1.25537
1.09327
1.14711
1.19725
1.09043
1.30173
1.30193
1.30455
1.29621
1.31961
1.30165
1.31774
1.33062
1.21361
1.20295
1.10386
1.18745
1.18031
1.13961
1.09011
1.11162
1.05119
1.06874
1.05235
1.13837
1.19984
1.12835
1.19964
1.25284
1.25135
1.24756
1.25381
1.2576
1.27716
1.26817
1.2857
1.28257
1.3029
1.29774
1.32001
1.31857
1.31905
1.31924
1.32412
1.32206
1.36156
1.33278
1.29797
1.30091
1.36396
1.33387
1.34199
1.38208
1.42302
1.42368
1.4226
1.42447
1.45458
1.50936
1.57178
1.59101
1.60159
1.57825
1.72056
1.66004
1.78384
1.82573
1.81482
1.8529
1.90924
1.7738
1.86087
1.88363
1.95869
2.00744
2.03384
2.05421
2.08405
2.02723
2.08369
2.04045
2.12126
2.12216
2.16952
2.13765
2.2001
2.22888
2.2208
2.16734
2.23388
2.25544
2.22311
2.21929
2.28497
2.2617
2.29287
2.23343
2.23316
2.29735
2.26523
2.21848
2.21799
2.2503
2.28247
1.27785
1.2372
1.41582
1.39281
1.37443
1.35789
1.34613
1.12557
1.26275
0.969944
0.998542
1.10599
1.08762
0.963555
1.04575
1.03398
1.20503
1.10731
1.11152
1.01713
1.0149
1.02467
1.04614
0.574911
0.441859
0.845909
0.635057
0.842737
0.793972
0.001
0.001
0.001
0.001
0.001
0.001
0.170424
0.40964
0.305587
0.347649
0.001
0.001
0.001
0.001
0.00140117
0.001
0.001
0.001
0.001
0.001
0.001
0.001
0.001
0.001
0.00100829
0.001
0.001
0.001
0.0010095
0.001
0.001
0.00101943
0.001
0.00101491
0.001
0.001
0.00101
0.001
0.00109514
0.001
0.00109432
0.00109398
0.001
0.0010926
0.00109353
0.00109359
0.001
0.001
0.001
0.001
0.001
0.001
0.001
0.001
0.0010078
0.001
0.001
0.001
0.001
0.001
0.001
0.001
0.001
0.00101
0.001
0.001
1.90519
1.88535
1.86562
1.8494
1.78264
1.84511
1.67696
1.60558
1.59286
1.60152
1.58895
1.59955
1.5339
1.54474
1.38474
1.3439
1.30603
1.47612
1.47702
1.4274
1.42736
1.42799
0.001
0.001
0.00112601
0.00113352
0.001
0.001
0.001
0.001
0.00113392
0.001
0.001
0.00100893
0.001
0.001
0.001
0.001
0.001
0.001
0.001
0.0122656
0.398501
0.230135
0.438208
0.43363
0.674779
0.477489
0.874182
1.02958
1.15823
1.02679
1.31833
1.49827
1.51693
1.55418
1.64086
1.74608
1.80971
1.7851
1.82184
1.76875
1.82461
1.85433
1.81502
1.82098
0.00101
0.001
0.00100993
0.001
0.001
0.00119071
0.001
0.001
0.0011907
0.001
0.001
0.001
0.001
0.001
0.00101
0.001
0.001
0.001
0.00101
0.001
0.001
0.001
0.001
0.001
0.0022113
0.00100942
1.27848
1.27861
1.19813
1.21565
1.09277
1.11457
1.05278
1.05247
1.049
1.05361
1.02183
1.02858
1.00217
1.00273
0.979339
1.01864
1.09556
1.05745
1.09561
1.09421
0.917764
0.938238
0.978648
0.957863
0.963161
0.970006
0.91503
0.908394
0.893655
0.907933
0.917739
0.915098
1.76528
1.76724
1.59483
1.51199
1.49676
1.48624
1.76349
1.67845
1.92095
1.99683
1.89216
1.81769
2.01087
1.99201
2.05868
2.10792
2.13799
2.13723
2.16572
2.13815
2.19265
2.21957
2.21427
2.21496
2.23235
2.21796
2.21803
2.26433
2.2083
2.20302
1.32848
1.25633
1.40038
1.47064
1.25539
1.20022
1.25488
1.25545
1.08367
1.1368
0.974232
1.14372
1.02816
1.30131
1.23402
1.30621
1.29576
1.30053
1.19522
1.09773
1.01946
1.007
1.02009
1.05677
0.98406
0.971042
0.896967
0.985798
1.062
1.05981
0.975353
1.07952
1.14754
1.09213
1.19995
1.14305
1.18985
1.2446
1.27987
1.25388
1.29043
1.2905
1.30194
1.29345
1.32705
1.33562
1.33482
1.35005
1.35296
1.35677
1.38462
1.40034
1.39134
1.38141
1.39033
1.37979
1.39663
1.41543
1.46141
1.45724
1.42307
1.45621
1.45326
1.48246
1.51636
1.58064
1.60999
1.61085
1.62231
1.69008
1.77429
1.84516
1.8597
1.98532
1.85864
1.90978
2.05975
2.08421
2.08447
2.12049
2.17148
2.2178
2.23159
2.23119
2.26214
2.28741
2.31564
2.31423
2.31463
2.31505
2.31491
2.29661
2.23204
2.29645
2.26441
2.21816
2.21773
2.25007
2.28218
2.29181
2.21913
2.28002
2.23853
1.06344
1.06003
1.12627
1.20157
1.09835
1.16623
1.30488
1.24002
1.26653
1.09738
1.00219
0.964275
0.965671
1.06844
1.05516
0.722477
0.829754
1.01321
0.909132
1.01691
1.01371
1.02534
1.01395
1.02893
1.04955
0.242608
0.40011
0.495404
0.672193
0.690887
0.692098
0.001
0.001
0.001
0.00101
0.001
0.001
0.0228197
0.001
0.156312
0.001
0.001
0.00140075
0.001
0.00101
0.001
0.001
0.001
0.001
0.001
0.001
0.00105171
0.001
0.001
0.001
0.001
0.001
0.001
0.001
0.001
0.001
0.001
0.001
0.001
0.001
0.001
0.00100349
0.001
0.001
0.001
0.001
0.001
0.001
0.001
0.00101
0.001
0.00100962
0.001
0.001
0.001
0.001
0.001
0.001
0.001
0.001
1.8034
1.7944
1.78659
1.78308
1.73887
1.78129
1.58818
1.66219
1.56041
1.56053
1.50288
1.47946
1.42673
1.42788
1.34384
1.23877
1.21572
1.38405
1.43003
1.42649
1.43319
1.42472
0.00112808
0.001
0.00112739
0.001
0.001
0.001
0.001
0.001
0.00100548
0.001
0.001
0.001
0.001
0.001
0.001
0.00100999
0.001
0.001
0.001
0.112289
0.292737
0.431428
0.496932
0.455466
0.66113
0.840685
0.990669
1.0299
1.22157
1.05343
1.36718
1.48682
1.47318
1.57788
1.74179
1.64637
1.73152
1.72623
1.70812
1.7408
1.81184
1.79169
1.8065
1.7806
0.001
0.001
0.001
0.001
0.001
0.001
0.001
0.001
0.001
0.001
0.001
0.001
0.001
0.001
0.001
0.001
0.001
0.001
0.001
0.00100999
0.001
0.001
0.00207416
0.001
0.00101
0.001
0.001
0.001
0.001
0.001
0.001
1.15389
1.15389
1.11782
1.09642
1.05246
1.07437
1.0405
1.0387
1.19839
1.14017
1.11803
0.966429
0.978734
0.909575
0.910156
0.979311
0.978773
0.970746
1.01143
1.06967
1.02394
1.05714
1.04429
0.937121
0.917421
0.930344
0.951159
0.876621
0.876454
0.877596
0.887426
0.904593
0.893369
0.857152
0.864685
2.33993
2.3498
2.37815
2.353
2.39965
2.38399
2.41067
2.39846
2.45362
2.44153
2.40882
2.45906
2.42025
2.47725
2.3077
2.25955
2.27874
2.3278
2.31159
2.28007
2.28345
2.33558
2.34148
2.31644
2.2973
2.34944
2.33409
2.34356
2.36833
2.21791
2.2178
2.21776
2.21694
2.23644
2.25706
1.81107
1.75763
1.65391
1.56058
1.47274
1.54627
1.74734
1.73133
1.9683
1.99145
1.87857
1.95936
1.99931
2.04813
2.09606
2.13815
2.13555
2.13762
2.13352
2.16445
2.1762
2.20315
2.18903
2.19236
2.19472
2.20471
2.18256
2.18233
1.37591
1.30885
1.24939
1.24006
1.29512
1.46972
1.45174
1.1782
1.23485
1.10681
1.04288
2.32457
2.34545
2.36179
2.36939
2.37371
2.3857
2.3897
2.41716
2.40214
2.42015
2.41729
2.46823
2.4894
2.51255
2.51224
2.51829
2.53113
2.55543
1.01621
0.963615
0.966372
1.22672
1.11655
1.2787
1.18658
1.10475
1.00533
1.0081
1.00493
1.00821
0.858469
0.93473
0.788644
0.807136
0.88977
0.808246
1.06904
1.00332
0.895692
1.09487
1.09253
1.09522
1.15022
1.10818
1.23332
1.17816
1.26685
1.23204
1.265
1.29208
1.3179
1.33787
1.36116
1.36287
1.37049
1.36276
1.42197
1.40716
1.39902
1.39999
1.44887
1.42787
1.49929
1.45588
1.43624
1.48304
1.52583
1.52035
1.5405
1.57887
1.58013
1.52249
1.63245
1.66044
1.63224
1.61951
1.70393
1.7854
1.85939
1.92615
1.87326
1.8897
2.0186
2.0787
2.12092
2.10187
2.16762
2.19695
2.23744
2.25628
2.25048
2.26641
2.32425
2.30744
2.31701
2.32678
2.31756
2.31529
2.31499
2.31512
2.31464
2.31483
2.31462
1.05045
1.04
1.06514
0.986126
1.00755
1.0232
0.963372
1.10069
1.0063
0.937949
0.960327
0.942297
0.835221
0.939388
0.966932
0.745157
0.734824
0.693712
0.797631
1.01239
0.909726
0.911387
0.912457
0.702841
0.591708
0.395352
0.405125
0.324532
0.145405
0.157251
0.688799
0.512701
0.671439
0.674022
0.001
0.001
0.001
0.001
0.001
0.001
0.00100984
0.001
0.14973
0.001
0.001
0.001
0.00101
0.001
0.001
0.001
0.001
0.00241264
0.001
0.001
0.001
0.001
0.001
0.001
0.00100993
0.001
0.001
0.001
0.001
0.001
0.00101106
0.001
0.001
0.001
0.001
0.00100987
0.001
0.001
0.001
0.001
0.001
0.001
0.001
0.001
0.00101
0.001
0.001
0.001
0.001
0.001
0.001
0.001
0.001
0.001
0.001
0.00219343
0.001
0.001
0.001
0.001
0.0021934
2.51048
2.46872
2.43916
2.55167
2.57434
2.57335
1.79867
1.79854
1.78604
1.78439
1.68808
1.76252
1.59475
1.52076
1.44014
1.456
1.42712
1.43434
1.42479
1.42982
1.30579
1.22316
1.31336
1.3926
1.39282
0.001
0.001
0.001
0.001
0.001
0.001
0.001
0.001
0.001
0.001
0.00100943
0.001
0.001
0.992998
1.02217
1.05595
0.001
0.001
0.001
0.001
0.283593
0.162685
0.4578
0.486262
0.650446
0.515598
0.82251
1.1923
1.34142
1.45533
1.44595
1.75981
1.68736
1.69861
1.48832
1.5745
1.66498
1.72099
1.72247
1.72024
1.73129
1.76957
1.74301
0.001
0.00118127
0.001
0.001
0.001
0.001
0.00100904
0.001
0.001
0.001
0.001
0.001
0.001
0.001
0.001
0.001
0.001
0.00100504
0.001
0.001
0.001
0.001
0.001
0.001
0.001
0.001
0.001
0.001
0.001
0.001
0.00101
0.00100979
0.001
0.001
0.001
0.001
0.001
1.15322
1.18932
1.17868
1.11764
1.11886
1.08894
1.11075
0.976719
1.0061
0.916847
0.915776
1.12616
1.1106
0.870829
0.868826
0.872169
0.875298
0.9302
0.910067
0.947315
0.893475
1.01588
0.968622
1.01787
1.02473
0.856601
0.813372
0.838409
0.867571
0.843773
0.843197
0.788175
0.822288
0.804593
0.786015
0.759333
0.761762
2.34093
2.35571
2.38022
2.39521
2.40018
2.40448
2.45827
2.42567
2.27227
2.27095
2.255
2.27645
2.30969
2.27098
2.31223
2.29087
2.20466
2.1924
2.19188
2.22316
2.25251
2.22649
1.81659
1.73974
1.63539
1.72317
1.57087
1.48383
1.73608
1.73601
1.97532
1.97802
1.99343
1.89001
1.96734
2.08145
2.02635
1.9687
2.01147
2.11295
2.12724
2.11745
2.12471
2.13187
2.15588
2.18275
2.17221
2.18202
2.18193
2.17959
2.17999
2.18114
2.18065
1.22155
1.22573
1.36802
1.44469
1.22565
1.30595
1.46465
1.47804
1.2135
1.1584
1.07083
1.13289
2.35666
2.31568
2.33438
2.38102
2.3784
2.38069
2.39124
2.41324
2.43461
2.44542
2.4465
2.45058
2.47357
2.51197
2.49719
2.51396
2.52856
2.57521
2.55316
2.38759
2.39832
2.41446
2.585
2.58064
2.58938
0.964392
0.965807
0.968363
0.938253
1.03057
1.05009
0.850094
0.891014
0.924764
0.8136
0.852445
0.853152
0.785272
0.783075
0.784675
0.788727
0.817066
0.847173
0.948338
0.879899
0.878147
1.02362
1.09777
1.01338
1.16962
1.19825
1.12926
1.16889
1.23101
1.19712
1.32306
1.26658
1.33869
1.34988
1.3587
1.35202
1.39943
1.43948
1.47494
1.47646
1.48276
1.46708
1.49478
1.47372
1.52441
1.53144
1.5534
1.55162
1.52871
1.53394
1.64982
1.69906
1.59437
1.66121
1.70551
1.66955
1.76932
1.81442
1.91307
1.95191
1.9289
2.02
2.07563
2.17375
2.16044
2.2183
2.19297
2.2885
2.29282
2.28596
2.31695
2.34529
2.34244
2.399
2.36325
2.39049
2.35382
2.35287
2.38844
2.31961
2.35628
2.31913
0.418863
0.735813
0.421561
0.698869
0.979805
0.96034
0.962056
0.943006
0.962688
0.81503
0.716275
0.711798
0.603469
0.812791
0.678488
0.706478
0.836292
0.0918884
0.0935074
0.47125
0.593452
0.589535
0.386802
0.271226
0.269411
0.0548226
0.0649599
0.0781705
0.144943
0.141999
0.0556626
0.234409
0.133219
0.391712
0.187808
0.111728
0.0010004
0.001
0.001
0.001
0.001
0.001
0.00225779
0.001
0.001
0.0219073
0.001
0.001
0.00101
0.001
0.001
0.0022008
0.001
0.001
0.001
0.00100982
0.00138292
0.001
0.00100983
0.001
0.001
0.001
0.00101
0.001
0.00101146
0.00101107
0.001
0.001
0.00101025
0.00101079
0.001
0.001
0.001
0.001
0.0017063
0.001
0.00170621
0.001
0.001
0.001
0.001
0.00100984
0.00101
0.00100994
0.001
0.001
0.001
0.001
0.001
0.001
0.001
0.001
0.001
0.001
0.00138287
0.001
0.00100958
0.00100997
0.001
0.001
0.001
0.001
0.00101
2.49245
2.46182
2.47084
2.49065
2.52982
2.63749
2.59153
2.58744
2.6176
2.54821
1.69052
1.68085
1.6152
1.60669
1.58294
1.61001
1.52257
1.47306
1.46377
1.43211
1.4013
1.40156
1.31437
1.32472
1.19309
1.2342
1.23311
0.001
0.001
0.001
0.00101
0.001
0.001
0.001
1.02647
1.16717
1.0232
0.001
0.001
0.001
0.001
0.889425
0.727753
0.062931
0.00548167
0.0888119
0.187648
0.488716
0.350066
0.52864
0.528955
0.55913
1.56479
1.57775
1.6155
1.30982
1.44426
1.45251
1.4811
1.60025
1.67301
1.63574
1.55161
1.62889
1.63905
1.64861
1.58336
1.62106
0.001
0.001
0.0011813
0.00101
0.001
0.001
0.00101
0.00115905
0.001
0.001
0.001
0.001
0.001
0.001
0.001
0.001
0.001
0.001
0.001
0.00101
0.001
0.001
0.001
0.001
0.001
0.00100577
0.001
0.001
0.001
0.001
0.001
0.00101
0.00100563
0.001
0.001
0.001
0.001
0.001
0.001
0.001
0.001
0.001
0.001
0.001
0.001
1.171
1.18415
1.19134
1.05827
1.08249
1.03743
1.04096
0.967858
0.954103
0.868141
0.881716
0.868038
0.869578
0.974265
0.967138
0.817568
0.815806
0.780722
0.757506
0.86024
0.854739
0.877605
0.93132
1.01192
0.97633
1.04173
0.99628
0.795833
0.767558
0.830789
0.853369
0.725672
0.724311
0.702123
0.723951
0.762342
0.743695
0.760861
0.765168
2.35218
2.29946
2.38997
2.337
2.3541
2.39482
2.35957
2.42901
2.36956
2.46766
2.41242
2.41347
2.47594
2.45158
2.23769
2.23786
2.22768
2.24155
2.25474
2.2678
2.26716
2.28184
2.1798
2.17958
2.20331
2.18787
2.21806
2.22641
1.81845
1.74068
1.66007
1.73584
1.5314
1.62402
1.73611
1.74234
1.96617
1.96717
1.96913
1.89583
2.05567
2.10418
2.01464
1.96583
2.11102
2.10941
2.12585
2.11033
2.14798
2.17228
2.17931
2.18096
2.18018
2.17695
2.18021
2.1796
2.17856
2.17646
1.21998
1.21475
1.38435
1.45833
1.36069
1.28031
1.51554
1.45896
1.19261
1.21433
1.18632
1.10448
2.35724
2.3928
2.37623
2.40196
2.41993
2.40927
2.44482
2.4565
2.4344
2.44578
2.43607
2.44669
2.44955
2.47326
2.49561
2.5114
2.51243
2.56485
2.54175
2.58645
2.59377
2.46917
2.48265
2.59971
2.60231
0.710225
0.866357
0.734934
0.836444
0.764723
0.735465
0.694031
0.66028
0.688042
0.721047
0.620452
0.666167
0.670401
0.563462
0.623382
0.762305
0.87884
0.794701
0.885737
0.887034
0.881263
0.948753
1.09388
1.00089
1.18691
1.18714
1.15133
1.10065
1.22586
1.26593
1.32157
1.31507
1.33296
1.32723
1.44224
1.39509
1.49603
1.48406
1.5108
1.51432
1.49116
1.54735
1.59168
1.56376
1.55089
1.57709
1.62718
1.61302
1.59319
1.63854
1.71969
1.72205
1.71413
1.73654
1.86574
1.77894
1.95001
1.97653
1.97653
2.04349
2.11917
2.19536
2.2028
2.21461
2.26198
2.30882
2.34642
2.34506
2.38369
2.3586
2.41068
2.42515
2.42539
2.42554
2.42529
2.42589
2.39439
2.42533
2.39375
0.0777585
0.0664299
0.0891095
0.053737
0.365071
0.669678
0.359351
0.834832
0.704366
0.710411
0.555944
0.576709
0.576331
0.576711
0.574761
0.575055
0.574566
0.574202
0.581374
0.090082
0.0745516
0.001
0.0180103
0.0534859
0.00824064
0.0582539
0.0533358
0.0259557
0.0378144
0.001
0.001
0.001
0.001
0.001
0.001
0.00208811
0.001
0.001
0.00100986
0.001
0.001
0.001
0.00189221
0.001
0.001
0.001
0.001
0.001
0.001
0.001
0.001
0.001
0.00100941
0.001
0.001
0.001
0.00100992
0.001
0.001
0.001
0.00101
0.001
0.001
0.001
0.001
0.001
0.001
0.0010008
0.001
0.001
0.001
0.00100949
0.001
0.001
0.001
0.001
0.001
0.001
0.001
0.001
0.001
0.001
0.00101
0.001
0.001
0.001
0.001
0.001
0.001
0.001
0.001
0.001
0.001
0.001
0.001
0.001
0.001
0.001
0.001
0.001
0.001
0.001
0.001
0.001
0.001
0.001
0.001
0.001
0.001
0.001
0.001
0.001
0.00106269
0.001
0.001
0.001
0.001
2.65717
2.63979
2.66869
2.66418
2.62985
2.64826
2.49887
2.49004
2.54262
2.52566
2.64469
2.63066
2.6429
2.51737
2.49676
1.56178
1.56441
1.56151
1.5499
1.56546
1.48969
1.52958
1.32701
1.38483
1.24572
1.24216
1.19197
1.19143
1.19338
0.001
0.001
0.001
0.001
1.00055
1.1941
1.022
0.001
0.001
0.976331
0.872034
0.001
0.0344553
0.001
0.001
0.568334
0.711917
0.093433
0.0966459
0.245806
0.0898001
0.530916
0.390227
0.540494
1.552
1.56185
1.56063
1.55726
1.56137
1.27464
1.39409
1.33427
1.45023
1.5142
1.54415
1.4731
1.55994
1.50767
1.51124
1.48493
0.001
0.001
0.001
0.001
0.001
0.001
0.001
0.001
0.001
0.001
0.001
0.00925987
0.001
0.001
0.001
0.0955649
0.0974353
0.0399073
0.001
0.001
0.0440872
0.001
0.001
0.001
0.001
0.00100955
0.001
0.001
0.001
0.001
0.001
0.001
0.001
0.001
0.001
0.001
0.00106683
0.001
0.00106688
0.001
0.001
0.001
0.001
0.001
0.001
0.001
0.001
0.001
0.001
0.001
0.087186
0.001
0.001
0.001
0.001
0.001
0.001
1.16785
1.09773
1.08815
1.01878
1.00712
0.928208
0.911612
0.901178
0.904277
0.890599
0.902863
0.830173
0.842811
0.76685
0.751356
0.902095
0.908133
0.694388
0.688531
0.689604
0.696304
0.973744
1.03843
0.956954
0.8542
0.8361
0.911386
0.843802
0.926175
0.762081
0.7348
0.794952
0.749676
0.700112
0.69764
0.693853
0.716657
0.709761
0.68563
0.676275
0.658913
2.2762
2.29224
2.30755
2.31474
2.31524
2.31906
2.43395
2.40368
2.37279
2.33016
2.44389
2.40555
2.40064
2.22771
2.22628
2.25483
2.24143
2.26275
2.26619
2.2955
2.27385
2.17971
2.18666
2.20969
2.19371
2.20861
2.21713
1.85686
1.77839
1.70113
1.73786
1.6848
1.59052
1.77435
1.73782
1.97056
1.9714
1.93111
1.97571
2.06224
2.1126
1.97282
2.02108
2.11288
2.11339
2.13677
2.11472
2.15686
2.17692
2.17502
2.17596
2.17438
2.17483
2.17639
2.17558
2.17404
2.17326
1.21202
1.27302
1.45895
1.4369
1.35869
1.44217
1.45961
1.53594
1.20677
1.20275
1.1985
1.11539
0.951916
0.996459
1.07767
2.42609
2.43009
2.45803
2.44949
2.47347
2.48665
2.48573
2.48569
2.52188
2.5016
2.51349
2.47924
2.50869
2.52048
2.54238
2.56528
2.57679
2.57082
2.62482
2.62359
2.64819
2.62996
2.54124
2.54699
2.65588
2.65566
0.492386
0.560198
0.429374
0.662131
0.580743
0.658844
0.659755
0.645932
0.580872
0.506149
0.448195
0.45008
0.474807
0.534394
0.701207
0.602782
0.587206
0.783832
0.938149
0.895668
0.753086
0.987275
1.03305
1.05018
1.03058
1.13759
1.20485
1.08398
1.30669
1.24928
1.31954
1.31768
1.40707
1.35281
1.47453
1.50233
1.49956
1.50587
1.62778
1.59304
1.5622
1.61784
1.64012
1.63481
1.62945
1.62185
1.63617
1.63512
1.71671
1.75985
1.79824
1.75184
1.79875
1.82264
1.96475
1.89561
1.98947
1.97729
2.05771
2.1322
2.21909
2.21331
2.24985
2.28556
2.36155
2.35228
2.37419
2.38051
2.40829
2.41774
2.43611
2.42897
2.44016
2.43604
2.42659
2.43828
2.42583
2.42697
0.0145167
0.001
0.0451501
0.0215047
0.0215053
0.0460545
0.0213994
0.205007
0.0186895
0.573706
0.586293
0.107553
0.312986
0.575004
0.574899
0.575078
0.573721
0.570917
0.582664
0.511598
0.405903
0.001
0.001
0.001
0.001
0.001
0.0187585
0.001
0.001
0.001
0.001
0.00101
0.001
0.001
0.00100863
0.0018664
0.001
0.001
0.001
0.00360891
0.001
0.001
0.001
0.00100974
0.001
0.001
0.001
0.00100983
0.001
0.001
0.00100647
0.001
0.00100976
0.001
0.001
0.001
0.001
0.001
0.00361605
0.001
0.001
0.001
0.001
0.001
0.00132639
0.00132633
0.00132635
0.001
0.001
0.001
0.001
0.001
0.001
0.001
0.001
0.001
0.001
0.001
0.001
0.001
0.001
0.001
0.001
0.001
0.001
0.001
0.001
0.001
0.001
0.001
0.001
0.001
0.001
0.001
0.001
0.001
0.001
0.001
0.001
0.001
0.001
0.001
0.001
0.001
0.001
0.001
0.00101
0.001
0.00167405
0.001
0.00104456
0.001
0.00102262
0.001
0.001
0.001
2.66488
2.68989
2.70487
2.65703
2.65685
2.63547
2.66555
2.52302
2.57468
2.58357
2.58778
2.60199
2.65395
2.66248
2.49083
2.52177
2.45375
2.50522
2.49956
1.54924
1.54885
1.45724
1.42117
1.51937
1.45594
1.46384
1.32592
1.35202
1.21743
1.19374
1.19217
1.1918
1.17021
0.001
0.001
1.10706
1.22003
1.00008
0.001
0.001
0.954501
0.945162
0.001
0.001
0.690447
0.821907
0.0655348
0.128769
0.0737093
0.0270008
0.547746
0.558938
0.145475
0.173456
0.221351
0.322479
0.480943
1.51644
1.57032
1.54131
1.50829
1.28017
1.28178
1.30603
1.37083
1.49165
1.48979
1.44447
1.48014
1.49668
0.0155444
0.0168012
0.0167657
0.0284078
0.0473546
0.071233
0.0754234
0.0822404
0.0815587
0.106025
0.122303
0.15606
0.148756
0.164855
0.203972
0.242521
0.191056
0.281113
0.240411
0.193284
0.238363
0.240287
0.240227
0.001
0.001
0.00106676
0.001
0.001
0.00101
0.001
0.001
0.001
0.001
0.001
0.001
0.001
0.001
0.001
0.001
0.001
0.001
0.0709434
0.10057
0.175453
0.193612
0.261436
0.14869
0.001
0.001
0.367117
0.231901
0.284626
0.31307
0.001
0.001
0.001
0.001
0.001
0.001
0.001
0.001
0.001
0.001
1.0851
1.00498
1.00128
0.941112
0.944663
0.918384
0.932274
0.903346
0.944107
0.870221
0.869972
0.778698
0.79632
0.701484
0.704437
0.678128
0.675061
0.826343
0.796849
0.683059
0.676432
0.676263
0.668644
0.898359
0.943094
0.786184
0.756336
0.828184
0.943281
1.00052
0.958128
0.684568
0.643006
0.707557
0.734552
0.6325
0.61611
0.604889
0.575623
0.605174
0.580612
0.603952
0.627217
2.38971
2.31316
2.33406
2.34135
2.25206
2.34298
2.35324
2.3732
2.37726
2.4206
2.35654
2.44881
2.42255
2.48288
2.20799
2.23004
2.22656
2.24842
2.23034
2.25953
2.25186
2.24615
2.1748
2.18321
2.19059
2.19915
2.19857
2.1994
1.91049
1.83059
1.71958
1.73862
1.63976
1.73173
1.74361
1.80095
1.978
1.9773
1.97735
1.95471
2.06815
2.11676
2.03572
1.98841
2.11612
2.11814
2.12444
2.14428
2.17485
2.16307
2.17481
2.17561
2.17513
2.17436
2.17237
2.17399
2.17364
2.17442
1.29476
1.20023
1.46716
1.46938
1.38154
1.47633
1.47145
1.57201
1.19742
1.19808
1.17634
1.16005
1.1012
1.19807
2.44041
2.45939
2.47939
2.5148
2.5095
2.52993
2.54315
2.55201
2.55938
2.54674
2.55256
2.57469
2.59618
2.60527
2.6065
2.6168
2.63512
2.65746
2.66617
2.66995
2.67872
2.5569
2.54766
2.69867
2.72289
0.29209
0.349445
0.325962
0.408231
0.526812
0.605561
0.503726
0.523582
0.435149
0.448965
0.449202
0.474602
0.568953
0.524673
0.595658
0.597525
0.592119
0.65777
0.727435
0.902228
0.823122
0.981495
1.07045
1.06342
0.976255
1.13457
1.13905
1.22593
1.28711
1.26103
1.33251
1.27856
1.46797
1.39669
1.50497
1.50253
1.51993
1.57792
1.70738
1.71183
1.65524
1.68298
1.71241
1.65906
1.76859
1.69747
1.67332
1.70846
1.8426
1.85415
1.91699
1.97301
1.85416
1.9472
2.0895
2.04111
2.10888
2.07768
2.27009
2.23645
2.30108
2.31816
2.38943
2.39879
2.46187
2.42704
2.4756
2.45753
2.47697
2.51092
2.48222
2.51378
2.52196
2.47962
2.46946
2.51251
2.51087
2.48189
0.001
0.001
0.001
0.001
0.001
0.001
0.001
0.001
0.001
0.001
0.001
0.0476678
0.303785
0.001
0.001
0.400505
0.13559
0.570268
0.41279
0.495954
0.584567
0.425549
0.302785
0.001
0.001
0.001
0.001
0.001
0.001
0.001
0.00141344
0.00100995
0.001
0.001
0.001
0.001
0.001
0.00100156
0.001
0.001
0.001
0.001
0.001
0.001
0.001
0.001
0.0010095
0.00101
0.00100891
0.001
0.001
0.001
0.001
0.0012881
0.001
0.001
0.00128804
0.001
0.001
0.001
0.00100996
0.001674
0.001
0.00124797
0.001
0.001
0.001
0.001
0.00101
0.001
0.001
0.001
0.001
0.001
0.001
0.001
0.001
0.001
0.001
0.001
0.001
0.001
0.001
0.001
0.001
0.001
0.001
0.001
0.001
0.001
0.001
0.001
0.001
0.001
0.001
0.001
0.001
0.001
0.001
0.001
0.001
0.001
0.001
0.001
0.001
0.001
0.001
0.001
0.001
0.001
0.001
0.001
0.001
0.001
0.001
0.001
0.001
0.00104456
0.001
0.001
0.001
0.00124798
0.001
0.001
2.72515
2.70723
2.72246
2.692
2.69756
2.71729
2.7047
2.67492
2.69558
2.59096
2.58545
2.54274
2.54737
2.67348
2.70343
2.70542
2.597
2.48467
2.52636
2.4939
2.48643
2.48802
2.52918
2.41668
1.32555
1.41398
1.32176
1.36566
1.35942
1.26655
1.2548
1.26561
1.27138
1.27315
1.24623
1.16418
1.13982
1.05824
1.0605
1.16753
1.28056
0.0182315
0.0358797
0.949725
0.944002
0.0523629
0.0664664
0.879229
0.754033
0.0664389
0.0857387
0.623582
0.559515
0.223019
0.18524
0.146251
0.562834
0.481318
0.239839
0.270045
0.38093
1.42603
1.35247
1.32967
1.41572
1.28023
1.30134
1.44203
1.37282
1.41712
1.49029
1.48913
0.0179372
0.0165135
0.0290235
0.0169576
0.071337
0.0475492
0.0768346
0.0784066
0.0769086
0.102583
0.158806
0.134204
0.165551
0.160274
0.222866
0.183975
0.279238
0.277056
0.284474
0.265987
0.27414
0.283856
0.282484
0.279579
0.001
0.001
0.001
0.00359979
0.001
0.00100998
0.00374394
0.001
0.001
0.001
0.001
0.001
0.001
0.001
0.001
0.001
0.001
0.001
0.001
0.00101
0.001
0.394756
0.419844
0.366676
0.42445
0.443487
0.503224
0.415266
0.0994125
0.566035
0.577642
0.335467
0.281727
0.001
0.001
0.001
0.001
0.001
0.001
0.001
0.001
0.001
0.001
0.001
0.001
0.001
0.001
0.001
0.001
0.944345
0.941618
0.971831
0.941975
0.944502
0.940449
0.938748
0.758351
0.764659
0.844127
0.858412
0.724007
0.723673
0.68118
0.680283
0.680681
0.677385
0.65018
0.649029
0.688445
0.68316
0.592947
0.580468
0.541245
0.556282
0.872922
0.800236
0.734684
0.950917
0.855647
0.981763
1.07938
1.00414
0.687893
0.641984
0.748855
0.720458
0.519586
0.522319
0.527556
0.556353
0.582703
0.605115
0.64402
0.619345
2.27196
2.2871
2.28654
2.30144
2.28793
2.32456
2.28917
2.32451
2.35491
2.3865
2.37986
2.38336
2.42036
2.38944
2.48474
2.19884
2.20314
2.20836
2.21249
2.20972
2.21265
2.22447
2.2466
2.23104
2.17877
2.18554
2.19493
2.19898
2.19935
1.87926
1.95245
1.76145
1.75559
1.67483
1.77437
1.83358
1.76875
1.98967
2.00108
2.00523
1.99122
2.11743
2.08111
2.04992
2.08413
2.13078
2.1233
2.15545
2.16825
2.18763
2.18225
2.18193