/*--------------------------------*- C++ -*----------------------------------*\
  =========                 |
  \\      /  F ield         | OpenFOAM: The Open Source CFD Toolbox
   \\    /   O peration     | Website:  https://openfoam.org
    \\  /    A nd           | Version:  8
     \\/     M anipulation  |
\*---------------------------------------------------------------------------*/
FoamFile
{
    version     2.0;
    format      ascii;
    class       volScalarField;
    location    "21360";
    object      nut;
}
// * * * * * * * * * * * * * * * * * * * * * * * * * * * * * * * * * * * * * //

dimensions      [0 2 -1 0 0 0 0];

internalField   nonuniform List<scalar> 
526318
(
0.000364318
0.000552319
0.000481793
0.000635177
0.000646788
0.000142499
0.000610031
0.000400001
0.000460251
7.6e-05
0.000188488
0.000399404
0.000576762
0.000281462
0.000233211
0.000250688
0.000324439
0.000125307
0.00030153
0.000299218
0.000806377
0.000143689
0.00044546
0.000382514
0.000173071
0.000262853
0.000183593
0.000638269
0.000526032
0.00017759
0.000379869
0.000232885
0.000729306
0.000406091
0.000483428
0.00106261
0.000298369
0.000165009
0.000580356
0.00051245
0.000822644
0.000373264
0.00030903
5.34272e-05
0.000181749
0.000307203
0.00033406
0.00053341
0.000449279
0.000236919
0.00053262
0.000729597
0.000269532
0.000361983
0.000210311
0.000130653
0.00020557
6.45853e-05
0.000124372
0.000350726
0.000799415
0.000533219
0.000485725
0.000250096
0.000369821
0.000481822
0.000147435
0.000504257
0.00016077
0.000342266
0.000218373
9.37155e-05
0.000212353
0.000369823
0.000273599
0.000157129
0.000173215
0.000134699
0.000446991
0.000162915
0.000474465
0.000375586
0.000277065
0.000339876
0.00038652
0.000216058
0.000204914
0.00034696
0.000306877
0.000344843
0.000370156
0.000232151
0.000235734
0.000291387
0.00021464
0.000422902
0.000232769
0.000296696
0.000195884
0.000335244
0.000229112
5.97403e-05
0.000140688
1.28087e-05
0.000209855
0.00028875
0.000319841
0.000119783
0.000237324
0.000240216
0.000431869
0.000232799
0.000337709
0.000226688
0.00022596
0.000466899
0.00025584
0.000366665
0.000177503
0.000249364
0.000243852
0.000380988
0.000245569
0.000224121
0.000267713
0.000114711
0.000145203
0.000103544
0.000151048
9.1962e-05
0.000118155
6.02221e-05
0.000121028
0.000105985
8.7063e-05
8.05629e-05
2.88457e-05
0.000117995
0.00012031
7.51237e-05
0.000110083
0.00012092
4.12061e-05
5.41926e-05
0.000130798
7.55869e-05
0.000122098
0.000119181
4.14244e-05
0.000180788
8.54564e-05
0.000292544
0.000337748
9.43199e-05
0.000128741
0.000264792
0.000197572
0.000488111
0.000191716
0.000190898
0.000262296
0.000272315
0.000437701
0.000141847
0.000227295
0.000532547
0.000128676
0.000382764
0.000323203
0.000524347
0.00022372
0.000444983
0.00033772
0.000137052
0.000387456
0.000322331
0.000264546
0.000219344
0.000305452
0.000269446
0.000220117
0.000150691
0.00025178
0.000174375
0.000148675
0.00010884
0.000119997
8.01058e-05
2.95761e-05
0.000108146
5.24201e-05
0.000152083
2.49146e-05
4.43643e-05
0.000137252
0.000113819
8.13368e-05
4.16837e-05
0.000137434
8.58221e-05
0.000115917
0.000168866
3.90821e-05
0.000277081
2.94282e-05
0.000149894
0.000228053
0.000231741
0.000268042
0.000168103
0.000250028
0.000523742
0.000427961
0.000327053
0.000466484
0.000302645
0.00014585
0.000394882
0.000478667
0.000219839
2.63813e-05
9.1773e-05
0.000206198
0.000304655
0.000429308
0.000268724
0.000285857
0.000453811
0.000537915
0.000205297
9.68812e-05
0.000213022
9.98565e-05
0.000227764
0.000234843
0.00019933
0.000400334
0.000236398
0.000139786
0.000267819
0.000251474
0.000183233
0.000289624
0.00030679
0.000288282
0.000193645
0.000480201
9.55258e-05
0.000468252
0.000380972
0.000430882
0.000187486
0.000387833
0.000342422
0.000370092
0.000264511
0.000240229
0.000303483
0.000325662
0.000255004
0.000295077
8.59837e-05
8.20529e-05
0.000207158
8.92969e-05
0.000178665
0.000257031
0.000212922
0.00019808
0.000259542
0.000236653
0.000284509
0.00021402
0.000311537
0.00022749
0.000589881
0.000374388
3.26466e-05
0.000174871
0.000575234
0.000272782
0.000168077
0.000302883
0.000163816
0.000196661
0.00013332
0.000154424
0.000119845
0.000141945
0.000142223
8.68339e-05
8.14115e-05
0.000108462
0.000132111
9.99858e-05
0.000168133
0.000204515
0.0001804
0.000203288
0.000180237
0.000208197
0.00010132
9.26945e-05
0.00016106
0.000208782
0.000141838
0.000163683
0.000124859
6.74192e-05
5.16413e-05
0.000255176
0.000171258
4.32469e-05
0.000104078
0.000129714
4.5788e-05
0.00019378
0.000200314
0.000195561
0.000213247
0.000327232
0.00033446
0.00043377
0.000265342
0.000293839
0.00037291
0.000205707
0.000162529
0.000281265
0.0003672
0.000492601
0.00031306
0.000176993
0.000388101
0.000182155
0.000288505
0.000155047
0.000173747
0.000187943
0.000205434
0.000100491
0.000124938
0.00011506
7.66151e-05
0.000122339
0.000124201
8.6366e-05
0.000155533
0.000123153
5.57426e-05
0.000124732
1.20132e-05
0.00013347
4.21484e-05
4.92578e-05
0.000105698
8.81604e-05
0.000120176
0.000169117
0.000186629
0.000152739
0.000110043
0.000219912
0.000160491
0.000181476
0.000226316
0.000187866
0.000216253
0.000207526
0.000194783
0.000184576
0.000185258
0.000198005
0.000197995
0.000203491
0.000204597
0.000202008
0.000525709
0.000592996
0.00046269
0.000359387
0.000598378
0.000595395
0.000390486
0.000401639
0.000467325
0.000409137
0.000255793
0.000321917
0.000196084
0.000454937
0.000163783
0.000302
0.000370543
0.000232776
0.00031289
0.000533811
0.000343778
0.000271399
0.00013333
0.000126631
0.000187799
0.000214673
0.000178725
0.000203818
5.62822e-05
2.91704e-05
4.36325e-05
4.77089e-05
1.14118e-05
0.000218614
8.8597e-05
0.000218809
0.00012017
8.10655e-06
0.00024203
0.000223489
0.000326993
0.000187482
0.000381302
0.000369617
0.000332913
0.000161513
0.000317629
0.000296427
0.00024667
0.000285032
0.000150581
0.000336343
0.000325436
0.000284347
0.000166038
0.000298734
0.000310392
0.000179857
0.000229149
0.000220649
0
2.21318e-10
8.09556e-11
0
0
0
0
9.40176e-11
1.61342e-10
2.56811e-11
5.54619e-05
0
0
0
7.63034e-06
0
4.86997e-05
6.2827e-05
1.47929e-05
8.38354e-05
0.000192045
0.000136546
0.000258864
0.000194299
0.000164192
0.000260757
0.000261622
0.000141437
0.000285951
0.000308632
0.000519818
0.000397858
0.000464641
0.000107918
0.0005871
0.000280856
0.000333835
0.000311206
0.000217747
0.000137358
0.000132431
0.000154705
0.000146972
0.000123672
0.000103248
0.000150564
7.61463e-05
0.000149811
0.000109885
3.2185e-05
6.10898e-05
0.000125748
0.000161569
0.000145903
0.000108923
0.000163694
0.00013434
0.000187181
7.6366e-05
0.000142245
8.4793e-05
0.000136336
0.000103924
8.09493e-05
2.59131e-05
0.000112729
0.000110394
2.80974e-05
0.000113149
0.000243942
0.000218282
0.000218437
0.000227007
0.000228204
0.000218336
0.000259006
0.000280196
0.000229526
0.000200415
0.000242924
0.000218963
0.000223805
0.00022752
0.000413747
0.000575409
0.000373308
0.000204094
0.000251413
0.000236878
0.000313835
0.000113915
0.000225916
0.000415075
0.000225593
0.000396115
0.000371115
0.000199878
0.000344481
0.00014501
0.000134593
0.000273158
9.14784e-05
0.00011846
0.000100198
7.52882e-05
5.55277e-05
0.000211188
0.000169947
0.000156341
7.4603e-05
0.000194626
0.000136998
0.000120145
9.64793e-05
7.86989e-05
0.000106266
6.38804e-05
1.45354e-05
0.000137974
0.000121237
5.19732e-05
6.37793e-05
0.000103757
0.000142772
0.000146852
0.000109583
0.000116838
0.000240053
0.000207503
0.000203909
0.000184198
0.000211797
0.000185304
0.0001739
0.000197023
0.000158896
0.000201731
0.000210564
0.000209686
0.000215216
0.000236926
0.000289543
0.000208513
0.00027228
3.06343e-05
7.52582e-05
0.000321938
0.000286419
0.00058578
0.000234814
0.000448675
6.2906e-05
0.000343731
0.00052006
0.00038875
0.000190833
0.0001675
0.000197214
0.000162943
0.000182693
0.000203311
0.000241456
0.000295043
0.000196134
0.000306785
0.000131128
8.02884e-05
4.75014e-05
0.000141473
0.000150821
9.3345e-05
1.82937e-05
0
6.86692e-06
6.62475e-06
0.000101833
0
0.000270186
0.000289727
8.59965e-05
2.58875e-05
0
0
0
0
0
0
0
0
0
0
1.50408e-09
0
1.77625e-10
0
4.90231e-10
1.60453e-09
0
0
0
0
0
0
0
0
0
0
0
0
0
0
4.20953e-05
0.000168805
0.000188103
5.60202e-05
0.000402603
0.000311412
0.000172093
0.000239813
0.000217778
0.00024436
0.000323204
0.000226198
0.000256584
0.000265667
0.00016111
0.000318648
0.000309197
0.000217732
0.000172347
0.000271628
0.000147488
0.000200681
0
0
0
0
0
0
0
0
0
0
0
0
0
0
0
0
0
0
0
0
0
0
0
0
1.52943e-05
2.17421e-05
5.93046e-05
8.83976e-06
4.42123e-05
6.73347e-05
0.000221814
0.000137067
0.000256036
0.000193048
0.000195175
0.000292434
0.000204309
0.000388181
0.00041109
0.000183212
0.00016169
0.000297129
0.000165264
0.000193667
0.000326915
0.00034734
4.61419e-05
0.000228301
7.85535e-10
0
0
0
0
0
0
0
0
0
0
0
0
0
0
0
0
0.000176785
0.000127309
0.000165025
0.000104761
0.000105155
0.000148284
9.0384e-05
0.000147447
7.14588e-05
0.00014924
0.000130759
3.06152e-05
8.38855e-05
9.18611e-05
0.000141739
6.41228e-05
0.000104667
0.000141453
0.000196244
0.000158901
8.17138e-05
6.55166e-05
8.71523e-05
0.000117174
5.4562e-05
0.0001216
0.000114871
5.999e-05
3.86656e-05
0.000105017
8.89568e-05
6.45298e-05
0.00028065
0.000225383
0.00027475
0.000241956
0.000280869
0.000226474
0.000273961
0.000297798
0.000297274
0.000297888
0.000235809
0.000251065
0.000246709
0.000276128
0.000235327
0.000274215
0.000250094
0.000279165
0.000207044
0.000233089
0.000236646
0.000297747
0.00011564
0.000198882
0.000516982
0.000200285
0.000181794
0.000400358
0.000397059
0.000197371
0.000415068
0.000220443
0.000352267
0.000174788
0.000170947
0.000313597
0.000103575
0.0002223
0.000128048
9.84332e-05
9.94635e-05
0.000119351
0.000135187
0.000109476
0.000242027
0.000210959
0.000169128
0.000198417
0.000136673
2.49515e-05
8.03526e-05
0.000134418
0.000107449
0.000128495
0.000105779
2.95431e-05
6.75449e-05
0.000124757
0.000102556
8.29554e-05
0.000154915
0.00015935
9.61518e-05
0.00015016
0.00018335
0.000219383
0.000177163
0.000184522
0.000167537
0.000211183
0.000184944
0.000178044
0.000162641
0.000187689
0.000182971
0.00019049
0.000195761
0.000202859
0.000239124
0.0002327
0.000285421
0.000286174
0.000337138
0.000325451
0.000340791
0.000398546
0.000384713
0.000366519
0.000378421
0.000357728
0.000414435
0.00043744
0.000369436
0.000457076
0.000434015
0.000403243
0.000405925
0.000443108
0.000494059
0.000450166
0.000455666
0.000484422
0.000522476
0.000510963
0.00048063
0.000543039
0.00051957
0.000570322
0.000581995
0.000601996
0.000576221
0.00063958
0.000618365
0.00064895
0.000611013
0.000619107
0.000636249
0.000615316
0.000588024
0.00061414
0.00063185
0.000382776
0.000431307
0.000462108
0.000493918
0.000122455
0.000117093
0.000430445
0.000271718
0.000181207
0.000215513
0.000174866
0.000166745
0.000283334
7.94827e-05
7.50692e-05
9.77952e-05
0.000122923
0.000128798
0.000151693
0.000132182
0.000178137
0.000234659
0.000104705
3.60166e-05
0.000103405
0.000104745
0.000131544
4.06905e-05
5.59514e-05
0
0
0
0
0
0
0.000228136
0.000311705
0.000225217
7.69054e-05
0
0
0
0
4.85805e-09
0
0
0
0
0
0
0
0
0
0
0
0
0
0
0
0
7.03993e-11
0
7.18906e-11
0
0
0
0
1.08159e-09
0
3.18399e-09
2.53981e-09
0
1.3742e-09
1.74247e-09
2.12294e-09
0
0
0
0
0
0
0
0
0
0
0
0
0
0
0
0
0
0
0
0
0.000416282
0.000138138
0.000239158
0.000304421
0.000220808
0.000440505
0.000104146
0.00038549
0.000315375
0.000237138
0.000169078
0.000238547
0.000158138
0.000335973
0.000155461
0.000206956
0.000147495
0.000282269
0.000289197
0.000188142
0.000286599
0.000254548
0
0
8.42255e-09
1.49546e-08
0
0
0
0
1.17782e-08
0
0
0
0
0
0
0
0
0
0
7.96493e-06
8.47461e-05
0.000110782
7.77162e-05
5.30157e-05
0.000111319
7.55738e-05
0.000190754
0.000219058
0.000170618
0.000275559
0.000275967
0.000105717
6.29535e-05
0.000246412
0.000304095
7.02622e-05
0.000293248
0.000435948
0.000335677
0.000110562
0.000301555
0.000440477
0.000371582
0.000302443
0
0
0
0
0
1.57766e-11
0
0
1.0073e-11
0
0
0
0
0
0
0
0
0
0
0
0
0
0
0
5.95825e-07
9.93719e-07
0.000109511
0.00018682
9.36498e-05
0.000156592
9.26573e-05
0.000143185
0.000137489
7.64495e-05
6.28014e-05
0.000131518
4.81951e-05
0.000116349
9.88772e-05
0.000112517
0.00011352
8.16447e-05
0.000112059
0.000107723
0.000138128
0.000160754
7.20792e-05
6.42959e-05
8.54387e-05
9.76264e-05
6.802e-05
0.000102467
7.00568e-05
9.75278e-05
0.000111819
8.02138e-05
7.30837e-05
9.43492e-05
0.0003412
0.000329481
0.000280923
0.000257297
0.000289369
0.000255477
0.000313246
0.000313172
0.000416782
0.00044908
0.000409176
0.000399043
0.000481154
0.000448861
0.000479662
0.000522559
0.000564016
0.000522214
0.00063226
0.000572557
0.000587566
0.000645193
0.000553415
0.000601931
0.000582793
0.000563403
0.000572184
0.000608886
0.000558263
0.000528826
0.000264442
0.000258862
0.00028076
0.00028716
0.000222591
0.000302499
0.00025394
0.000297196
0.000185167
0.000217717
0.000218729
0.000492865
0.000145221
0.00017491
0.000128195
0.000169158
0.000196096
0.000322415
0.000385765
0.000176445
0.000168521
0.000360394
0.000348692
0.000171469
0.000204876
0.000296264
0.000202325
0.000153031
4.71165e-05
0.00012063
4.96011e-05
0.000102142
0.000171637
0.000183133
0.000151804
0.000247088
0.000153787
5.37823e-05
6.51414e-05
0.000107935
0.000132056
2.21549e-05
9.99012e-05
0.000109028
5.26016e-05
7.98557e-05
7.97753e-05
8.09028e-05
0.00011807
9.9577e-05
0.000140951
0.000137515
8.49921e-05
0.000143979
0.000222767
0.000163315
0.000145192
0.000171034
0.000152869
0.000182461
0.000165807
0.000165951
0.000172946
0.000149221
0.000164538
0.000185317
0.00022263
0.000199843
0.000252991
0.000279808
0.000308106
0.000321785
0.000353447
0.000351708
0.000337406
0.000394109
0.000416275
0.000370152
0.000414344
0.000427309
0.000447749
0.000479946
0.000477247
0.000536515
0.000520312
0.000584207
0.000558515
0.000623368
0.000633834
0.000595688
0.000611885
0.00061958
0.000574921
0.000601424
0.00059627
0.000567499
0.00056209
0.000585601
0.000590606
0.00058735
0.000564286
0.000574359
0.000567356
0.000287815
0.000185116
0.000436893
0.000185144
0.000375441
6.88335e-05
0.000244936
0.000335504
0.000143615
0.000115142
0.000323737
0.000197654
0.000216157
0.000215618
0.000260874
1.92199e-05
5.93282e-05
6.66436e-05
4.07738e-05
7.09642e-05
0.000132307
0.000143613
0.000180824
0.000184246
6.2912e-05
0.000184506
0.000197647
7.04652e-05
0.000115849
7.6301e-05
9.52973e-05
0
0
0
0
0
0
1.51989e-05
0
0.00026183
0
0
7.35037e-09
0
0
0
0
0
0
0
0
1.38514e-11
0
0
0
0
0
0
0
0
0
0
0
0
0
0
0
0
0
0
0
0
0
0
0
0
0
0
0
0
0
0
0
0
0
0.000490037
0.000344405
0.000377224
0.000324496
0.000143428
0.000380647
5.61938e-05
0.000230332
0.000199482
0.000343216
0.000300182
0.00027962
0.000213763
0.000235925
0.000116377
0.000199238
0.000138154
0.000228555
0.000249139
0.000197046
0.000347759
0.00025328
6.83936e-09
0
2.70147e-09
0
0
0
0
0
0
0
0
0
0
0
0
0
0
0
0
9.05021e-05
8.22308e-05
1.97192e-05
2.22305e-05
0.000100193
0.000145283
0.000107046
0.000226812
0.000193555
0.000198976
0.000278905
0.000388026
0.000291915
0.000416231
0.000310788
0.000394816
0.000420367
0.000518209
0.000205604
0.000381082
0.000176475
0.000701471
0.000440601
0.000351885
0.000408507
0
0
0
0
0
0
0
0
0
0
0
0
0
0
0
0
0
0
0
0
0
0
4.80863e-07
0
0
0
0
0
0
0
0
0.00011341
0.000178424
0.000159715
8.13591e-05
7.44177e-05
0.00016972
0.00016484
5.49817e-05
0.00014197
0.00017191
0.000118704
4.68461e-05
0.000146768
0.000111733
4.66004e-05
9.18376e-05
0.000113537
0.000116018
8.68742e-05
0.000112374
0.000140179
0.000162977
0.000176888
6.53731e-05
9.04487e-05
0.00010346
8.25281e-05
4.28853e-05
8.7462e-05
8.17599e-05
4.60582e-05
6.97538e-05
9.61866e-05
9.91087e-05
9.00594e-05
0.000416994
0.000588451
0.000496748
0.000547254
0.000581273
0.000521722
0.000555345
0.00055411
0.000539689
0.000610571
0.00046686
0.000652907
0.000513181
0.000628184
0.000556558
0.00054611
0.000569486
0.000595181
0.000565121
0.000520314
0.000565978
0.000595947
0.000546086
0.000542258
0.000540571
0.000581549
0.000419877
0.000569647
0.000605931
0.000558339
0.000555008
0.000556164
0.000559768
0.000548618
0.000556215
0.000362767
0.00036609
0.000306457
0.00029409
0.000297981
0.000305026
0.000341278
0.000338655
0.000450787
0.000456047
0.000423155
0.000420319
0.000500385
0.000522181
0.000541386
0.000564813
0.000576944
0.000615709
0.000572354
0.000628835
0.00052473
0.000585457
0.000495598
0.000540559
0.000536068
0.000548646
0.000520185
0.000541637
0.000262632
0.000279103
0.000222467
0.000300516
0.000254999
0.00029479
0.000309471
0.000253499
0.000346549
0.000243174
0.000200726
0.000600665
0.00060305
0.000591437
0.000584593
0.000607194
0.000621314
0.000599464
0.000595339
0.000614763
0.000587583
0.000618118
0.000660582
0.000640098
0.000651528
0.000671478
0.000616025
0.00067356
0.000722879
0.000279417
0.000132188
0.000351468
0.000476014
0.000154491
0.000129991
0.000400155
0.00014214
0.000127902
0.000357259
0.000118103
0.000361915
0.000178916
0.000345128
0.000261868
0.000227769
0.000199367
0.000167437
0.000135117
0.000203921
0.00013342
0.000152362
0.000192094
0.000164219
7.0762e-05
0.000103591
0.000122969
0.000115771
9.15445e-05
0.000158672
0.000108432
4.20419e-05
0.000101004
2.25272e-05
6.80417e-05
4.23122e-05
5.66052e-05
4.04778e-05
9.34673e-05
0.000113281
0.000151318
0.000128502
0.000123149
7.57378e-05
0.000190181
0.000165848
0.000144302
0.000154671
0.000135741
0.000163407
0.000157623
0.000184852
0.000175342
0.000149378
0.000218569
0.000200164
0.000258644
0.000273012
0.000318227
0.000319515
0.000353613
0.000344172
0.000328376
0.000390671
0.000417766
0.000360327
0.000414558
0.000413492
0.000428683
0.000470378
0.000504826
0.000451411
0.000470387
0.00053457
0.000562219
0.000499561
0.000601136
0.000532942
0.000576376
0.00061683
0.000617765
0.000603651
0.000608944
0.000605307
0.000600755
0.000278893
0.000270575
0.000268413
0.000460161
0.000265915
0.000226099
0.000390223
0.000296153
0.000137021
0.000127457
0.000332407
0.000300313
0.000114331
0.000224309
0.000208613
8.67477e-05
0.000149494
0.000111144
0.000113123
0.000186799
0.000190154
0.000215901
3.21769e-05
0.000187454
0.000131216
9.10745e-05
7.22789e-05
0.000144133
0.000108362
0.000243704
6.26089e-05
0.000287028
0.000171976
0.000153863
0
0
0
0
0
0
0
0
1.39288e-05
0
0
0
0
0
0
0
0
2.66531e-07
0
0
0
0
0
0
0
0
0
0
0
0
1.05807e-09
0
0
0
0
0
0
0
0
0
0
0
0
0
0
0
0
0
0
0
0
0
0
0
0
2.07945e-09
0
0
0
0
2.26521e-09
0.000596181
0.000703055
0.000589785
0.000802399
0.000655581
0.000696266
0.000258089
0.000609488
0.000430209
7.6155e-05
0.000238603
0.000219035
0.000269971
0.000301569
0.000312363
0.000160768
0.000224655
0.000334441
0.000233181
0.000394345
0.000169994
0.000202296
0.00024153
8.23011e-05
0.000260848
0
0
0
0
0
0
0
0
0
0
0
0
0
0.000110069
0.0002131
0.000194199
0
0
0
0
6.50698e-05
0.000104099
6.82295e-05
8.19857e-05
3.65742e-05
0.000101605
0.000124735
0.000257027
0.000171831
0.00010892
0.000155988
7.9166e-05
0.000545494
0.000425981
0.000140938
0.000380247
0.000301297
0.000272143
0.000307398
0.000151566
0.000489578
0.000517663
0.000140032
0
2.71667e-10
0
0
0
0
0
0
0
0
0
0
0
0
0
0
0
0
0
0
0
0
0
0
0
0
0
0
0
0
0
0
0
0
0
0
0
0.000129518
0.000156307
0.00018341
0.000104954
0.000161563
8.2346e-05
0.000162275
7.0607e-05
0.000164282
0.000159536
5.66874e-05
0.000150057
9.79803e-05
4.76737e-05
0.000145726
0.000123794
4.36133e-05
0.000100765
0.000106476
9.3671e-05
0.000123883
0.000103172
0.000164669
0.000195846
0.000154555
0.000100396
0.000101836
7.80773e-05
9.90238e-05
8.74622e-05
4.42344e-05
6.5052e-05
5.6232e-05
8.8931e-05
5.65933e-05
0.000107646
8.9997e-05
0.000565
0.000519745
0.000545016
0.000481532
0.000558494
0.000609543
0.000656319
0.000755595
0.000551419
0.00054463
0.00051277
0.00055302
0.000536629
0.000530848
0.00052784
0.000515362
0.000552456
0.000552585
0.000548781
0.000547941
0.000550217
0.000543642
0.00038934
0.000369629
0.000328464
0.000334795
0.000326178
0.000326165
0.000335389
0.000362406
0.000483093
0.000538229
0.0005077
0.000436161
0.000478286
0.000575442
0.000561678
0.000550707
0.000589472
0.000604771
0.000632161
0.000591039
0.000630562
0.000523929
0.000579819
0.000539966
0.000484472
0.000552391
0.000512224
0.000557358
0.000548799
0.0005509
0.000572616
0.000295695
0.000231426
0.000292869
0.000283234
0.000288819
0.000269522
0.000322154
0.000319477
0.000261273
0.00024003
0.000214291
0.000203832
0.000609732
0.00061523
0.000601048
0.000597818
0.00060517
0.000605457
0.000599648
0.000611618
0.00061385
0.00063296
0.000633629
0.000585965
0.000664856
0.000701609
0.000658826
0.000741339
0.000719871
0.000754643
0.000711984
0.000593083
0.000604475
0.000606747
0.000908575
0.000603317
0.000760572
0.000395633
0.000336738
0.00014828
0.000151037
0.000336284
0.000158261
0.000318727
8.69891e-05
5.28541e-05
0.00030985
0.00036499
0.000138687
0.00028777
0.000268502
0.000259579
0.000218732
0.000174116
0.000189659
0.000195138
0.000242667
0.000106797
0.000233255
0.000138392
2.57848e-05
0.000143919
0.000180338
0.000112144
0.000137983
7.62366e-05
6.4955e-05
0.00013849
5.8633e-05
6.53412e-05
8.6274e-05
4.56743e-05
2.94791e-05
5.28661e-05
3.15636e-05
7.00119e-05
0.000147252
0.000130671
0.000117624
1.92236e-05
0.000145583
0.000147436
0.000150731
0.000112776
0.000142015
0.00015141
0.000158162
0.000194486
0.000219145
0.000192854
0.000206814
0.000264142
0.000268463
0.000327986
0.000330801
0.000332781
0.000362823
0.000337293
0.000396418
0.000358661
0.000424317
0.000399282
0.000460086
0.000424047
0.000434963
0.00048697
0.0005002
0.000438425
0.000454021
0.000502367
0.000476445
0.000533512
0.000514157
0.000571229
0.000601697
0.00056186
0.000611283
0.000591187
0.000596228
0.000223949
0.000337585
6.17726e-05
0.000231798
0.000311773
0.000371413
0.000313301
0.000500851
0.000526823
0.000313217
0.000292472
0.000282885
0.000151269
0.000271399
0.0001687
0.000262121
0.00018231
1.76292e-05
6.20603e-05
8.25165e-05
0.000262356
0.000247539
0.000130502
2.02365e-05
9.37409e-05
9.41343e-06
4.51798e-05
2.30724e-05
0.000187377
0.000177509
6.39624e-05
0.000200091
9.20455e-05
0.00024234
0.000165641
0.000124422
0
0
0
0
0
0
3.25337e-07
0
0
1.55926e-05
0
0
0
0
0
3.79357e-07
0
0
0
0
1.21045e-09
0
0
0
0
0
0
0
2.54404e-09
3.70657e-09
0
0
7.83971e-09
3.1061e-09
0
0
0
0
2.75929e-09
0
3.55226e-09
0
0
0
0
0
0
0
0
0
0
0
0
0
0
0
0
0
1.31194e-09
0
0
0
0
0
0
0
0
0.000601511
0.000707607
0.000811548
0.000711582
0.000737552
0.0013488
0.00078243
0.000572551
0.000883638
0.000516357
0.000569733
0.000335194
0.000314884
0.000228722
0.000307407
0.000254066
0.000350781
0.000181944
0.000140731
0.000463339
7.90881e-05
0.000281611
0.00026751
0.000256276
0.000206808
0.000186094
0.000209076
0
0
0
0
0
0
0
0.000136289
0.0002027
0.000165608
0
0
0
0
0.000144172
4.46887e-05
4.02661e-05
1.29523e-06
4.86548e-05
0.000123707
0.000136641
4.91763e-05
7.68861e-05
7.82437e-05
0.000101451
0.00047945
0.000546429
0.000219741
0.000262626
0.00031205
0.000304328
0.000294703
0.000137341
0.000540307
9.13488e-05
0.000434174
0.000645268
0.000436033
4.2497e-05
0.000309735
0.000610262
0
0
2.57236e-10
0
0
0
0
7.54937e-10
0
0
0
0
0
0
0
0
0
0
0
0
0
0
0
0
0
0
0
0
0
0
0
0
0
0
0
0
0
0
0
0
0
0
0
0
0
0.000159862
0.000192769
0.000197192
0.00011196
0.000159775
9.65016e-05
0.000128562
0.000111636
9.03882e-05
9.19353e-05
0.000100729
9.64335e-05
0.00013156
0.000114551
8.54381e-05
9.90195e-05
0.000135239
0.000107314
0.00012294
0.000114254
7.85366e-05
0.000109003
0.000129838
0.000137446
0.000189291
0.000169086
0.000206438
0.000113429
0.000112757
9.35691e-05
9.04896e-05
7.35419e-05
9.68802e-05
8.71482e-05
4.45319e-05
3.70808e-05
5.63421e-05
0.000110498
6.97479e-05
0.000385513
0.000517804
0.000688782
0.000561635
0.000244826
0.000529338
0.000806837
0.000917142
0.000837864
0.000539636
0.000896089
0.00072154
0.000826125
0.000461342
0.000543254
0.000537733
0.000531032
0.00054102
0.000523747
0.000524227
0.000528117
0.000405169
0.000540048
0.000539969
0.00054228
0.000548679
0.000543196
0.000536628
0.000419896
0.000353245
0.000354378
0.000367023
0.000344159
0.00036086
0.000354432
0.000384448
0.000518215
0.000568568
0.000523008
0.00045015
0.00063249
0.000651928
0.00065622
0.000616735
0.000649162
0.000632494
0.000587837
0.000555365
0.000498126
0.000543464
0.000512182
0.00055275
0.000576836
0.000550063
0.000540647
0.000552874
0.000559942
0.000549358
0.000249826
0.000272851
0.000305877
0.000315621
0.000296731
0.000276705
0.000343936
0.00030511
0.000232856
0.000250113
0.00021936
0.000229116
0.000612322
0.000584222
0.000610795
0.000596847
0.000590636
0.000585715
0.000595042
0.000584536
0.000600269
0.000634408
0.000615869
0.000628666
0.000656815
0.000706803
0.000693487
0.000688692
0.000751136
0.00079759
0.000764107
0.000810225
0.000776999
0.000616064
0.000615865
0.000887214
0.00080686
0.000369007
0.000371305
0.000110056
0.000354229
0.000165527
0.000145319
1.81794e-05
0.00028493
0.00031796
0.000120551
0.00024232
0.000212207
0.000295231
0.000139608
0.000201312
0.000356445
0.000254448
0.00020523
6.35813e-05
0.00012187
5.27307e-05
0.00010857
0.000188141
0.000236598
4.58361e-05
0.000169231
3.66718e-05
4.84142e-05
0.00014798
0.000124098
0.000129642
5.13958e-05
8.26653e-05
1.35853e-05
6.49108e-05
2.62491e-05
7.15028e-05
8.33222e-05
0.000170899
0.000157895
5.88027e-05
0.000140266
5.31695e-05
8.25029e-05
0.000137118
0.000156483
0.000123515
8.36855e-05
0.000175061
0.000181704
0.000244782
0.000259263
0.000219076
0.000216057
0.000289161
0.000298278
0.000330197
0.000303697
0.000367101
0.000328038
0.000393261
0.000371645
0.000415253
0.000427372
0.000428046
0.000456421
0.000415477
0.000459421
0.000459363
0.000406316
0.00041778
0.000467789
0.000446177
0.000503102
0.000487304
0.000547487
0.000571087
0.000528331
0.000586919
5.0499e-05
4.87367e-06
3.31895e-05
2.71625e-05
0.000185332
0.000385832
6.99676e-05
0.000176559
0.00042127
0.000310772
0.000309505
0.000306178
0.000212215
0.000236022
0.000207128
0.000259041
0.00024724
0.000132463
0.000326067
2.63071e-05
3.91438e-05
0
6.70179e-06
2.39873e-05
4.32037e-06
1.45261e-05
2.01221e-05
1.00496e-05
1.73083e-05
0
0
0
0
0
0
2.27588e-07
0
0
0
0
0
0
6.55401e-07
0
0
0
0
0
0
0
0
0
0
0
0
0
0
0
0
0
0
0
0
0
0
0
0
0
0
0
0
0
0
0
0
0
0
0
0
0
0
0
0
0
0
0
0
0
0
0
0
0
0
0
0
0
0
0
0
0
0
0
0
0
0
0
0
0
0
0
0
0
1.37502e-11
0
0
0
0
0.00101516
0.000918589
0.000949883
0.000745423
0.000214482
0.000639102
0.000596389
0.000713849
0.000636245
0.00103116
0.000803254
0.00093007
0.000737712
0.000783097
0.000269184
0.000317954
0.000488315
0.000319
0.000306155
0.000175297
0.000170086
0.000286018
0.000374364
0.000257076
0.000228848
0.000195641
0.0001906
0.000209713
0.000193857
0
0
0
0
0.000134805
0.000167909
0.000165627
0
0
7.31171e-05
6.92805e-05
0
2.21052e-05
0
0
4.91302e-05
6.32716e-05
7.28404e-05
2.7721e-05
6.17532e-05
2.452e-05
7.97216e-05
0.000119811
8.3167e-05
0.000246345
0.000691564
0.000494084
0.000210125
0.000284631
0.000223881
0.000152138
0.000239048
0.00033307
0.000367599
0.000306939
0.000240791
0.000353974
0.00021794
0.000265584
0.000225606
0
0
0
0
0
0
0
0
0
0
0
1.97106e-06
0
0
0
5.60868e-05
4.22892e-05
5.74257e-06
0
0
1.99107e-05
0
0
0
0
0
0
0
0
0
0
0
0
0
0
0
2.13871e-09
0
6.21201e-10
0
0
0
0
0
0
0
0
0
0
0
3.16641e-05
0
0
0
0
0
0
0.000227061
0.00019845
0.000167405
0.000156581
0.000141367
0.000125648
0.000100557
8.85537e-05
6.70484e-05
8.78873e-05
5.52218e-05
8.79968e-05
7.53209e-05
9.03171e-05
8.51478e-05
7.18076e-05
8.58097e-05
9.42362e-05
9.00121e-05
0.000107158
0.000119693
0.000188746
0.000214009
0.000199226
0.000100171
8.73945e-05
0.000154478
0.000100763
0.000177241
9.56578e-05
0.000100985
8.15333e-05
0.000136656
0.000110456
0.000105953
9.57409e-05
9.99346e-05
5.23292e-05
7.68352e-05
7.27769e-05
0.000125414
0.000549798
0.000384959
0.000381068
0.000530325
0.00158728
0.00133852
0.000987291
0.000640054
0.00101432
0.000836368
0.000519826
0.000520192
0.00075996
0.000528757
0.000537043
0.000525355
0.000546811
0.000516978
0.000530335
0.000977068
0.000595949
0.000547877
0.000546581
0.000535272
0.000542046
0.000533073
0.000531734
0.000447628
0.000352511
0.000370295
0.000382278
0.000368136
0.000330629
0.000368378
0.000355101
0.00055819
0.00061458
0.000482474
0.000556625
0.000676386
0.000672907
0.000660148
0.000668245
0.000613866
0.000598946
0.000536547
0.000534404
0.000534947
0.000545365
0.000552905
0.000563825
0.000539789
0.000539695
0.0005573
0.000555208
0.000562367
0.000564858
0.000261883
0.000273708
0.000324778
0.000292036
0.000279759
0.000313329
0.000291417
0.000343188
0.000258122
0.000243926
0.000253685
0.000249344
0.000210029
0.000186472
0.000235744
0.00053702
0.000585662
0.000568678
0.000558395
0.000566328
0.000567942
0.00056575
0.000546023
0.000617
0.000583712
0.000660185
0.000677602
0.000716209
0.000666356
0.000726264
0.000722829
0.000786452
0.000781011
0.000831219
0.000820385
0.000840755
0.000902878
0.000623397
0.000645565
0.000908938
0.000881343
0.000334027
0.000281932
0.000174563
0.000268115
0.00014122
7.7195e-05
0.000326724
0.000153926
0.000212515
0.000154379
0.000217362
0.000107441
0.000142279
0.000254119
0.000262755
0.00029368
6.87776e-05
0.000215804
0.000202859
0.000343438
0.000218934
8.2717e-05
0.000112207
0.000214002
9.49203e-05
0.00026664
6.56843e-05
7.56932e-05
5.05042e-05
0.000161153
2.80908e-05
0.000121719
9.81893e-05
5.91863e-05
8.40218e-05
9.54629e-05
0.000134111
7.85478e-05
0.000150614
0.000101494
4.43807e-05
0.00011513
8.10102e-05
4.61472e-05
0.000130339
0.000134887
0.000109522
6.0644e-05
0.000177983
0.000172016
0.000251106
0.000256761
0.000192746
0.000223295
0.0002654
0.000304563
0.000329618
0.000281185
0.000369654
0.000327363
0.000394685
0.000376728
0.00041133
0.00041604
0.00041374
0.000404041
0.000413332
0.000376283
0.000377121
0.000423236
0.00039662
0.000451811
0.000425471
0.000495087
0.000530907
0.000459159
0.000525646
0.000490963
4.93412e-06
0
2.77553e-05
1.30993e-05
4.96035e-06
2.88202e-05
2.06818e-05
0.000164995
2.36329e-05
0.00053612
0.000344769
0.000135606
0.000299497
0.000322043
0.000323709
0.000226188
0.00033427
0.000272199
0.000335874
0.000342577
0.000275313
0
0
0
0
0
2.01029e-06
0
0
0
0
0
0
0
0
4.59203e-07
0
0
0
1.33945e-07
0
0
0
0
0
0
0
0
0
0
0
0
0
0
0
0
0
0
2.0423e-07
0
0
0
0
0
6.13893e-10
9.14438e-10
1.38105e-09
0
0
0
0
0
0
0
0
0
0
0
0
0
0
0
0
0
0
0
0
0
0
0
0
0
0
0
0
0
0
0
0
0
0
0
0
0
0
0
0
0
3.09454e-09
0
6.26486e-10
0
2.09361e-09
0
0
0
0.000814333
0.000848668
0.000972161
0.000872761
0.000987349
0.000871309
0.000971085
0.000887133
0.000705047
0.000295942
0.000728126
0.000903801
0.00145495