/*--------------------------------*- C++ -*----------------------------------*\
  =========                 |
  \\      /  F ield         | OpenFOAM: The Open Source CFD Toolbox
   \\    /   O peration     | Website:  https://openfoam.org
    \\  /    A nd           | Version:  8
     \\/     M anipulation  |
\*---------------------------------------------------------------------------*/
FoamFile
{
    version     2.0;
    format      ascii;
    class       volScalarField;
    location    "6780";
    object      Hclip;
}
// * * * * * * * * * * * * * * * * * * * * * * * * * * * * * * * * * * * * * //

dimensions      [0 1 0 0 0 0 0];

internalField   nonuniform List<scalar> 
526318
(
0.718029
0.679534
0.751995
0.657365
0.73087
0.69037
0.700662
0.615975
0.68751
0.554267
0.545124
0.664822
0.608399
0.647349
0.606536
0.634196
0.607566
0.805763
0.712481
0.761245
0.753202
0.709963
0.463044
0.705787
0.600841
0.467283
0.731277
0.732046
0.735099
0.745698
0.774971
0.823404
0.804575
0.687587
0.681383
0.657873
0.655908
0.755564
0.678025
0.620389
0.684648
0.656496
0.317198
0.381411
0.281528
0.327777
0.304347
0.424283
0.602834
0.509015
0.591126
0.591707
0.547624
0.506137
0.00397126
0.257135
0.238711
0.0431029
0.763664
0.776468
0.791121
0.745061
0.694764
0.818609
0.819015
0.773511
0.766565
0.759533
0.668414
0.66226
0.772004
0.5451
0.60518
0.496449
0.450573
0.448614
0.545659
0.536589
0.45347
0.490177
0.568539
0.57173
0.52898
0.480315
0.510426
0.582827
0.576735
0.556598
0.501107
0.579913
0.480482
0.431353
0.432152
0.356537
0.354572
0.355698
0.359957
0.35245
0.352287
0.347902
0.001
0.001
0.001
0.001
0.001
0.001
0.268793
0.0772184
0.3825
0.348913
0.395825
0.504414
0.729779
0.627647
0.735408
0.746009
0.811691
0.783483
0.831705
0.35144
0.346017
0.349148
0.35629
0.310556
0.347225
0.260616
0.304243
0.213927
0.262935
0.212593
0.208973
0.201805
0.178714
0.168275
0.192191
0.134473
0.189698
0.140551
0.157244
0.100944
0.10752
0.133193
0.164157
0.152128
0.103174
0.104954
0.122919
0.105034
0.10177
0.112436
0.124908
0.111008
0.112887
0.116997
0.113757
0.0817405
0.119277
0.114081
0.08108
0.0368279
0.118704
0.063818
0.124392
0.611481
0.710374
0.652246
0.639995
0.438555
0.516258
0.44341
0.441965
0.446097
0.441049
0.463151
0.4452
0.377552
0.34979
0.313679
0.256141
0.315236
0.357679
0.357648
0.356753
0.242581
0.296465
0.181723
0.191044
0.201871
0.190336
0.19403
0.197807
0.189186
0.191564
0.180664
0.170659
0.15011
0.172387
0.167985
0.142532
0.122375
0.147167
0.134147
0.126383
0.144962
0.129915
0.133938
0.101628
0.115787
0.152474
0.15108
0.600298
0.616288
0.648895
0.618936
0.605151
0.59981
0.602455
0.472228
0.516047
0.265558
0.238897
0.238642
0.364388
0.501176
0.37535
0.413161
0.412604
0.361111
0.337821
0.001
0.001
0.001
0.18682
0.001
0.001
0.001
0.001
0.001
0.001
0.812106
0.795797
0.842094
0.83679
0.805713
0.797841
0.703031
0.790156
0.633942
0.578727
0.579839
0.576854
0.578729
0.576596
0.56802
0.563884
0.481456
0.542364
0.364057
0.42039
0.349715
0.36042
0.00100536
0.001
0.001
0.00100202
0.001
0.001
0.001
0.001
0.358492
0.177174
0.403915
0.408942
0.52328
0.619674
0.747519
0.745516
0.784602
0.759985
0.825677
0.860511
0.329706
0.325753
0.289091
0.259204
0.1577
0.19839
0.121968
0.130245
0.119875
0.113366
0.101619
0.11181
0.0337455
0.058474
0.0954641
0.129955
0.183521
0.147542
0.111636
0.120787
0.0480792
0.0379145
0.0889054
0.144369
0.0654332
0.106717
0.108376
0.0742582
0.0683193
0.0380072
0.0360593
0.001
0.001
0.00124142
0.001
0.109456
0.146103
0.119461
0.145094
0.510328
0.475733
0.371848
0.461225
0.38089
0.431743
0.440867
0.432795
0.440909
0.445705
0.357436
0.266029
0.197295
0.178815
0.258629
0.194677
0.183404
0.294484
0.184732
0.234967
0.170514
0.175919
0.183267
0.171997
0.189255
0.183329
0.18604
0.186816
0.184304
0.181721
0.193316
0.184612
0.199731
0.196689
0.200385
0.179341
0.189339
0.177691
0.153044
0.14361
0.175103
0.204321
0.195223
0.169931
0.157401
0.183704
0.22681
0.224186
0.239243
0.195833
0.230617
0.252352
0.281551
0.241396
0.245735
0.265481
0.301618
0.418167
0.496044
0.416658
0.45272
0.52238
0.585787
0.498949
0.364586
0.479127
0.376179
0.397968
0.132834
0.080236
0.1103
0.0951679
0.213329
0.334893
0.265582
0.336508
0.333697
0.356911
0.333779
0.001
0.001
0.001
0.001
0.00106021
0.001
0.001
0.00100998
0.001
0.00100962
0.001
0.00100889
0.001
0.001
0.001
0.001
0.838813
0.828644
0.864813
0.853504
0.831732
0.804573
0.725558
0.64424
0.580091
0.588988
0.567124
0.564682
0.54592
0.55007
0.526906
0.523369
0.476978
0.520246
0.440098
0.383696
0.329423
0.288109
0.001
0.00111377
0.00111362
0.001
0.001
0.001
0.001
0.001
0.00111403
0.00111415
0.001
0.00100984
0.001
0.00100942
0.00123516
0.001
0.001
0.001
0.001
0.001
0.001
0.001
0.001
0.001
0.0624937
0.001
0.268706
0.43152
0.447634
0.537913
0.756904
0.654407
0.772478
0.771103
0.782928
0.815432
0.846024
0.865274
0.244152
0.245918
0.199948
0.227764
0.165726
0.129514
0.122007
0.119754
0.114259
0.12131
0.0718799
0.0654529
0.0144287
0.0264568
0.085739
0.0589091
0.0268356
0.0707169
0.0671323
0.0899379
0.001
0.001
0.0107952
0.024158
0.0254065
0.001
0.001
0.001
0.001
0.001
0.001
0.265149
0.240288
0.242424
0.24589
0.264155
0.371821
0.324726
0.303042
0.182108
0.232085
0.216627
0.226049
0.127578
0.060947
0.237143
0.356735
0.240341
0.246603
0.22086
0.305003
0.282723
0.360664
0.391603
0.315088
0.294342
0.33302
0.209214
0.180581
0.179118
0.183289
0.0973395
0.149016
0.0771507
0.0252502
0.00930422
0.127533
0.124608
0.179402
0.17371
0.174185
0.173253
0.17588
0.178401
0.179301
0.18591
0.180213
0.196092
0.187477
0.19692
0.19861
0.225374
0.216444
0.235433
0.241145
0.189213
0.170276
0.232786
0.219355
0.20722
0.219085
0.204224
0.192198
0.243868
0.224459
0.322036
0.332117
0.285118
0.325999
0.331172
0.297484
0.397967
0.373918
0.433475
0.457316
0.485994
0.394691
0.398078
0.396054
0.35986
0.340866
0.303897
0.40303
0.249723
0.224372
0.278849
0.295802
0.001
0.0267422
0.107318
0.228772
0.258084
0.300617
0.201986
0.164162
0.132614
0.0729893
0.001
0.001
0.001
0.001
0.001
0.00101944
0.001
0.001
0.00100979
0.001
0.001
0.001
0.001
0.001
0.001
0.001
0.001
0.001
0.001
0.001
0.001
0.00101
0.001
0.00100009
0.001
0.001
0.00110712
0.001
0.00108559
0.001
0.00110925
0.0011086
0.001
0.001
0.001
0.001
0.001
0.001
0.001
0.001
0.00100959
0.001
0.00100987
0.00100592
0.001
0.001
0.832605
0.842444
0.863794
0.853331
0.82879
0.759875
0.58015
0.662044
0.546453
0.551489
0.525416
0.528804
0.516273
0.520568
0.510858
0.512654
0.459784
0.426808
0.327753
0.372054
0.228515
0.264721
0.001
0.001
0.001
0.001
0.001
0.001
0.001
0.001
0.001
0.001
0.001
0.001
0.001
0.001
0.001
0.001
0.001
0.00100737
0.001
0.001
0.001
0.001
0.001
0.001
0.001
0.001
0.00101
0.001
0.001
0.001
0.001
0.001
0.00106807
0.001
0.254846
0.0801357
0.457163
0.413712
0.483399
0.586612
0.692649
0.771752
0.78387
0.770596
0.811993
0.843325
0.830627
0.827793
0.00118916
0.001
0.001
0.001
0.001
0.001
0.001
0.001
0.001
0.001
0.001
0.001
0.001
0.001
0.001
0.00101
0.001
0.224723
0.228177
0.232059
0.189223
0.11127
0.149566
0.073207
0.0646985
0.0320034
0.0247559
0.001
0.001
0.00840317
0.004875
0.001
0.001
0.00100834
0.0458787
0.0239109
0.0250054
0.001
0.001
0.001
0.001
0.001
0.001
0.001
0.001
0.001
0.001
0.001
0.001
0.47011
0.433718
0.478586
0.484003
0.433583
0.3908
0.558599
0.580608
0.647587
0.652849
0.203164
0.239261
0.287346
0.378435
0.197467
0.137632
0.182977
0.17806
0.0156624
0.0705516
0.121575
0.0105687
0.221278
0.224661
0.223768
0.226232
0.248691
0.220201
0.234417
0.255047
0.133426
0.124214
0.0240431
0.112371
0.104993
0.0595645
0.018432
0.026962
0.001
0.001
0.001
0.060821
0.124524
0.0550727
0.124518
0.173159
0.176446
0.177241
0.177204
0.178916
0.192357
0.190543
0.211433
0.203623
0.22259
0.222562
0.237756
0.235486
0.243059
0.238172
0.247046
0.243271
0.282676
0.258087
0.224715
0.226644
0.293936
0.258835
0.262691
0.3039
0.350112
0.351583
0.352735
0.348513
0.388222
0.432333
0.501645
0.510868
0.528048
0.495802
0.637472
0.573994
0.705709
0.74623
0.733546
0.776872
0.829525
0.695393
0.784287
0.805744
0.883927
0.933702
0.957965
0.978546
1.01007
0.950148
1.00745
0.964063
1.04311
1.04601
1.09215
1.05889
1.12297
1.15053
1.14347
1.0869
1.16017
1.17955
1.14823
1.14222
1.21334
1.18739
1.21952
1.16009
1.15679
1.22336
1.18969
1.14463
1.14434
1.17498
1.20675
0.196916
0.166289
0.332579
0.330224
0.300103
0.290865
0.296489
0.0568475
0.193057
0.001
0.001
0.0251731
0.0118458
0.001
0.001
0.001
0.129424
0.0358545
0.0320497
0.001
0.001
0.001
0.001
0.001
0.00101
0.001
0.001
0.001
0.001
0.00101
0.001
0.001
0.001
0.001
0.00148168
0.001
0.001
0.001
0.001
0.001
0.001
0.001
0.001
0.00125862
0.001
0.001
0.001
0.001
0.001
0.001
0.001
0.001
0.001
0.00100929
0.001
0.001
0.001
0.001
0.00106122
0.00115395
0.001
0.001
0.0010728
0.001
0.001
0.00101
0.001
0.001
0.001
0.00103898
0.00103894
0.00100999
0.001
0.00103908
0.00103884
0.001
0.001
0.00101
0.001
0.001
0.001
0.001
0.001
0.00100983
0.00100977
0.001
0.001
0.001
0.001
0.001
0.001
0.001
0.00115023
0.001
0.001
0.819624
0.810659
0.783067
0.780018
0.698622
0.769962
0.59571
0.525724
0.520514
0.51693
0.515285
0.5249
0.455848
0.46533
0.309231
0.263003
0.232917
0.397346
0.402872
0.345287
0.35329
0.349733
0.001
0.001
0.0010501
0.00105011
0.001
0.001
0.001
0.001
0.00105014
0.001
0.001
0.00100893
0.001
0.001
0.001
0.001
0.001
0.001
0.001
0.001
0.001
0.001
0.00126194
0.00126216
0.001
0.001
0.001
0.00106789
0.0772441
0.001
0.244676
0.417029
0.447246
0.474215
0.556545
0.668898
0.735691
0.711723
0.755243
0.689855
0.740247
0.781036
0.736638
0.735136
0.00122416
0.001
0.00101
0.001
0.001
0.00119906
0.001
0.001
0.00119907
0.001
0.001
0.00100941
0.001
0.001
0.001
0.001
0.001
0.001
0.001
0.001
0.001
0.001
0.001
0.001
0.00109864
0.00100936
0.197586
0.202834
0.121892
0.143796
0.0159866
0.0366589
0.001
0.001
0.001
0.00159658
0.001
0.001
0.001
0.001
0.001
0.001
0.017309
0.001
0.0183334
0.0164259
0.001
0.001
0.001
0.001
0.001
0.001
0.001
0.001
0.001
0.001
0.00123676
0.001
0.687359
0.690478
0.519538
0.430568
0.422544
0.405752
0.686725
0.597376
0.842731
0.921265
0.814236
0.743398
0.933166
0.914595
0.981982
1.03049
1.0607
1.05828
1.08857
1.05765
1.11343
1.14216
1.13659
1.14034
1.15625
1.14415
1.14434
1.188
1.13613
1.12657
0.247972
0.181034
0.318419
0.395363
0.183275
0.130594
0.179599
0.176925
0.00590483
0.0635764
0.001
0.0616401
0.001
0.223506
0.16593
0.225669
0.217648
0.221542
0.116217
0.0204477
0.001
0.001
0.001
0.001
0.001
0.001
0.001
0.001
0.001
0.001
0.001
0.00112048
0.0710812
0.0154764
0.119626
0.0694806
0.112055
0.167695
0.205757
0.171138
0.211954
0.212393
0.222222
0.217358
0.255223
0.263973
0.262165
0.272004
0.277717
0.278928
0.316952
0.326701
0.308076
0.306722
0.315652
0.313321
0.323365
0.334185
0.37919
0.370645
0.346447
0.37406
0.366399
0.399448
0.435281
0.496232
0.528763
0.530968
0.539906
0.606205
0.691923
0.763716
0.783658
0.91053
0.782239
0.833233
0.984298
1.00769
1.00882
1.044
1.09541
1.14203
1.15653
1.15721
1.18821
1.21385
1.24096
1.23793
1.23551
1.23646
1.2354
1.21648
1.15465
1.21711
1.18549
1.14156
1.1401
1.17228
1.205
1.21567
1.1418
1.20466
1.15991
0.001
0.001
0.0535147
0.125392
0.0168776
0.077806
0.227565
0.158383
0.179624
0.0182477
0.001
0.001
0.001
0.00201102
0.001
0.001
0.001
0.001
0.001
0.0013562
0.0013566
0.001
0.001
0.001
0.001
0.001
0.001
0.001
0.001
0.0013398
0.00133941
0.001
0.001
0.001
0.00148139
0.001
0.001
0.001
0.001
0.001
0.00101
0.001
0.00125827
0.001
0.00101
0.001
0.001
0.001
0.001
0.001
0.001
0.00105253
0.001
0.001
0.001
0.001
0.001
0.001
0.001
0.001
0.001
0.001
0.001
0.001
0.001
0.001
0.001
0.001
0.001
0.001
0.001
0.001
0.00124697
0.001
0.00102937
0.001
0.00100962
0.001
0.001
0.001
0.001
0.001
0.001
0.001
0.001
0.733535
0.730047
0.712834
0.718182
0.647049
0.712256
0.518651
0.580593
0.476387
0.482699
0.424886
0.404589
0.351865
0.349761
0.271229
0.158907
0.138984
0.304317
0.348903
0.347545
0.351579
0.352502
0.00105017
0.001
0.00105015
0.001
0.001
0.001
0.001
0.001
0.00100548
0.001
0.001
0.001
0.001
0.001
0.001
0.00100999
0.001
0.001
0.001
0.001
0.001
0.001
0.001
0.00101
0.001
0.001
0.001
0.001
0.143703
0.001
0.280217
0.418139
0.392715
0.500423
0.667794
0.572386
0.646632
0.647888
0.639191
0.668272
0.725497
0.720291
0.724744
0.696111
0.001
0.001
0.001
0.001
0.001
0.001
0.001
0.001
0.001
0.001
0.001
0.00103571
0.001
0.001
0.001
0.001
0.001
0.001
0.001
0.00101431
0.001
0.001
0.00105405
0.001
0.00101
0.001
0.001
0.001
0.001
0.001
0.001
0.0726909
0.0746793
0.038346
0.0186599
0.001
0.001
0.001
0.001
0.121465
0.0640323
0.0385061
0.001
0.001
0.001
0.00100989
0.0013339
0.00133395
0.001
0.001
0.001
0.001
0.001
0.001
0.001
0.001
0.001
0.001
0.001
0.00100971
0.001
0.001
0.001
0.001
0.001
0.001
1.26259
1.27277
1.2978
1.27415
1.31915
1.30576
1.32797
1.32038
1.37798
1.36494
1.32812
1.38116
1.3427
1.4026
1.23297
1.18111
1.2006
1.25115
1.23517
1.20156
1.20535
1.25991
1.26269
1.23987
1.22049
1.27453
1.25618
1.26082
1.2903
1.14498
1.14227
1.13874
1.14118
1.15776
1.17738
0.730819
0.681317
0.575539
0.477768
0.393142
0.469964
0.669175
0.650598
0.891495
0.914037
0.803534
0.881055
0.922334
0.972525
1.01924
1.06258
1.05624
1.05977
1.05557
1.0855
1.09626
1.12549
1.11087
1.11621
1.12125
1.13148
1.10503
1.10751
0.297566
0.233989
0.17786
0.162767
0.226219
0.391525
0.369899
0.0996044
0.160291
0.0288865
0.001
1.24702
1.27107
1.28509
1.29275
1.29976
1.30941
1.31148
1.33993
1.32172
1.34224
1.3376
1.38866
1.41265
1.43673
1.43923
1.44362
1.45298
1.47853
0.001
0.001
0.00141137
0.146056
0.0364582
0.207144
0.10966
0.0277594
0.00123114
0.001
0.00123125
0.00123112
0.001
0.001
0.001
0.001
0.001
0.001
0.001
0.001
0.001
0.0164473
0.0177833
0.0187917
0.0715009
0.0321749
0.156053
0.10131
0.185767
0.159106
0.190779
0.217005
0.243381
0.267091
0.279411
0.279138
0.289912
0.281498
0.339266
0.321688
0.322374
0.31546
0.37745
0.34551
0.415504
0.379742
0.361724
0.402304
0.451462
0.439541
0.458715
0.493973
0.498817
0.444105
0.554197
0.583229
0.551977
0.546427
0.623704
0.709039
0.781359
0.849028
0.797594
0.810511
0.941401
1.00022
1.04294
1.02457
1.09066
1.12349
1.16536
1.18065
1.17465
1.19375
1.24733
1.22875
1.23619
1.2465
1.23617
1.23415
1.23244
1.23457
1.23542
1.23722
1.23983
0.001
0.001
0.00187073
0.001
0.001
0.001
0.001
0.0264217
0.001
0.001
0.001
0.001
0.001
0.001
0.0014113
0.001
0.001
0.001
0.001
0.00135623
0.001
0.001
0.001
0.001
0.001
0.001
0.001
0.001
0.0011258
0.001
0.00133922
0.001
0.00105039
0.001
0.001
0.001
0.001
0.001
0.001
0.001
0.00100984
0.001
0.00112549
0.001
0.001
0.001
0.001
0.001
0.001
0.001
0.001
0.00239077
0.001
0.00102192
0.001
0.001
0.001
0.001
0.00100993
0.001
0.001
0.001
0.001
0.001
0.00110041
0.001
0.001
0.001
0.001
0.0011
0.001
0.001
0.001
0.001
0.001
0.001
0.001
0.001
0.00101
0.001
0.001
0.001
0.001
0.001
0.001
0.001
0.001
0.001
0.001
0.0019443
0.001
0.001
0.001
0.001
0.00194428
1.43807
1.39905
1.37769
1.47067
1.50861
1.5007
0.71147
0.711122
0.697456
0.696447
0.620114
0.68188
0.516913
0.436978
0.364625
0.381353
0.351587
0.349789
0.34842
0.351534
0.227407
0.144611
0.23579
0.311664
0.31386
0.001
0.001
0.001
0.001
0.001
0.001
0.001
0.001
0.001
0.001
0.00100943
0.00103775
0.001
0.001
0.001
0.001
0.00100998
0.001
0.001
0.001
0.001
0.001
0.001
0.001
0.001
0.001
0.001
0.115987
0.261687
0.371766
0.37108
0.690827
0.609585
0.625343
0.40989
0.498505
0.588766
0.638894
0.641217
0.639105
0.657695
0.687643
0.676972
0.001
0.0011328
0.001
0.001
0.001
0.001
0.00100904
0.001
0.001
0.001
0.001
0.001
0.001
0.001
0.00100996
0.001
0.001
0.00101044
0.001
0.001
0.001
0.001
0.001
0.001
0.001
0.001
0.001
0.001
0.001
0.001
0.00101
0.001
0.001
0.001
0.001
0.00114937
0.00105355
0.0737296
0.107708
0.0981647
0.0416983
0.039913
0.0106379
0.029317
0.001
0.001
0.001
0.001
0.0428305
0.0326828
0.001
0.001
0.001
0.001
0.001
0.001
0.001
0.001
0.001
0.001
0.001
0.001
0.001
0.001
0.001
0.001
0.001
0.001
0.001
0.001
0.001
0.001
0.001
0.001
1.26369
1.27557
1.30055
1.31809
1.32946
1.32886
1.37749
1.34663
1.1913
1.19053
1.17557
1.19546
1.22929
1.19228
1.23913
1.2148
1.13111
1.11943
1.11703
1.14471
1.16906
1.1481
0.739133
0.659023
0.554091
0.645451
0.498393
0.405013
0.656418
0.659128
0.90081
0.902645
0.918574
0.811497
0.892837
1.00727
0.950101
0.894476
0.937802
1.03656
1.05169
1.04043
1.04668
1.05454
1.076
1.10312
1.0959
1.10746
1.10286
1.10395
1.10564
1.09972
1.1081
0.143994
0.152034
0.287014
0.368042
0.146588
0.237116
0.381407
0.402747
0.14067
0.0797408
0.001
0.0560818
1.27773
1.23586
1.2593
1.30181
1.30184
1.30397
1.31113
1.33508
1.35308
1.36458
1.36756
1.3749
1.39233
1.43461
1.42317
1.43578
1.45519
1.49842
1.4779
1.30705
1.31766
1.33311
1.50071
1.50679
1.50602
0.00141079
0.0014107
0.00141091
0.001
0.001
0.001
0.001
0.001
0.001
0.001
0.001
0.001
0.001
0.0011735
0.001
0.00117346
0.001
0.001
0.001
0.001
0.00179713
0.001
0.0203986
0.001
0.0943106
0.120132
0.0514174
0.0890526
0.157571
0.118522
0.242247
0.190812
0.263159
0.270304
0.280586
0.269341
0.318434
0.366864
0.402046
0.396579
0.407966
0.394172
0.416336
0.402038
0.458803
0.452092
0.471252
0.475029
0.458466
0.455728
0.575381
0.618144
0.518937
0.580221
0.627198
0.593009
0.687488
0.739579
0.832657
0.87061
0.847451
0.940747
0.994369
1.094
1.08076
1.1443
1.1149
1.21256
1.22128
1.21159
1.23896
1.26556
1.26534
1.31744
1.28304
1.31049
1.27377
1.27335
1.30863
1.24023
1.27785
1.24285
0.001
0.001
0.001
0.001
0.001
0.001
0.001
0.001
0.00101
0.001
0.001
0.001
0.001
0.001
0.001
0.001
0.001
0.001
0.001
0.001
0.001
0.001
0.001
0.001
0.001
0.001
0.001
0.001
0.00112554
0.00112552
0.001
0.001
0.001
0.001
0.00101
0.001
0.0010004
0.001
0.001
0.001
0.001
0.001
0.00207396
0.001
0.001
0.001
0.001
0.001
0.001
0.001
0.001
0.00221328
0.001
0.001
0.001
0.00116336
0.00118743
0.001
0.00100983
0.001
0.001
0.001
0.001
0.001
0.00110011
0.00110004
0.001
0.001
0.0011
0.00110002
0.001
0.001
0.001
0.001
0.00140267
0.001
0.00140244
0.001
0.001
0.001
0.001
0.00100119
0.0010547
0.00105514
0.001
0.001
0.001
0.001
0.001
0.001
0.001
0.001
0.001
0.001
0.00118734
0.001
0.00100958
0.00100997
0.001
0.001
0.001
0.001
0.00101
1.38461
1.39948
1.39957
1.40455
1.43526
1.5399
1.5209
1.52063
1.54256
1.48963
0.617668
0.608036
0.543741
0.542914
0.500316
0.536981
0.441226
0.39789
0.382027
0.351169
0.326586
0.320583
0.234748
0.244535
0.114227
0.151663
0.155804
0.001
0.001
0.001
0.00101
0.001
0.001
0.001
0.00118934
0.0897214
0.001
0.001
0.001
0.001
0.001
0.001
0.001
0.00101
0.001
0.001
0.00102222
0.001
0.001
0.001
0.001
0.001
0.486201
0.481945
0.532845
0.234848
0.37177
0.372408
0.407587
0.526349
0.601511
0.560989
0.473172
0.551257
0.577866
0.582827
0.504021
0.528733
0.001
0.001
0.00113285
0.00102065
0.001
0.001
0.00101
0.00118907
0.001
0.001
0.001
0.001
0.001
0.001
0.001
0.00143849
0.00138122
0.001
0.001
0.001
0.001
0.00101045
0.001
0.001
0.001
0.00101679
0.001
0.001
0.001
0.001
0.00105463
0.001
0.00100563
0.001
0.001
0.001
0.00102647
0.001
0.001
0.001
0.001
0.001
0.001
0.001
0.001
0.0943391
0.106885
0.112081
0.001
0.00269187
0.001
0.001
0.001
0.001
0.001
0.001
0.00104335
0.00204334
0.001
0.001
0.001
0.001
0.001
0.001
0.001
0.001
0.001
0.001
0.001
0.001
0.001
0.001
0.001
0.00114095
0.001
0.00114993
0.001
0.001
0.001
0.001
0.00101
0.001
0.001
0.00114092
1.26905
1.22418
1.29587
1.25981
1.27001
1.30347
1.29184
1.3407
1.35225
1.39314
1.3778
1.32411
1.38671
1.34981
1.15839
1.15592
1.1487
1.16033
1.17721
1.18979
1.19117
1.19762
1.10292
1.10679
1.12665
1.11379
1.14114
1.14649
0.741516
0.661726
0.580834
0.66013
0.455197
0.550309
0.660083
0.665788
0.889021
0.893109
0.892436
0.81716
0.98072
1.02899
0.937768
0.889961
1.03353
1.03124
1.04718
1.03396
1.06903
1.09254
1.09984
1.09943
1.09678
1.09813
1.10054
1.10589
1.09925
1.10094
0.143832
0.137468
0.304004
0.383955
0.288586
0.210067
0.438213
0.378384
0.114549
0.136784
0.109396
0.0253317
1.2788
1.31608
1.29714
1.3203
1.34178
1.32929
1.36515
1.37587
1.35434
1.36327
1.35694
1.3709
1.37028
1.40043
1.41967
1.44012
1.4349
1.48694
1.46409
1.50913
1.5184
1.39021
1.40218
1.52436
1.52982
0.001
0.001
0.001
0.001
0.001
0.001
0.001
0.001
0.00101
0.001
0.001
0.001
0.001
0.001
0.001
0.001
0.00179707
0.001
0.001
0.001
0.001
0.001
0.0134554
0.001
0.113144
0.110168
0.0738702
0.0253282
0.143324
0.186425
0.245084
0.231836
0.258323
0.245622
0.367259
0.325364
0.409567
0.405499
0.43028
0.434003
0.414069
0.462967
0.510495
0.483503
0.467356
0.493725
0.540977
0.530095
0.510863
0.556721
0.640479
0.639622
0.633587
0.656036
0.785307
0.696805
0.866685
0.894074
0.895777
0.961515
1.0388
1.11513
1.12376
1.13888
1.18531
1.23517
1.26889
1.26914
1.30431
1.27687
1.32835
1.34485
1.34486
1.34705
1.34692
1.3489
1.31895
1.34835
1.3157
0.001
0.001
0.00626242
0.00102551
0.001
0.001
0.001
0.001
0.001
0.001
0.00101
0.00128415
0.001
0.00128284
0.00128677
0.00128689
0.00128368
0.001
0.00128744
0.00637592
0.001
0.001
0.001
0.00204072
0.001
0.00204076
0.00204084
0.001
0.001
0.00100217
0.001
0.001
0.001
0.001
0.00101
0.00104129
0.001
0.001
0.00100986
0.001
0.001
0.001
0.00181404
0.001
0.001
0.001
0.001
0.001
0.001
0.001
0.001
0.001
0.00100941
0.001
0.001
0.001
0.00100992
0.001
0.001
0.001
0.00101
0.001
0.001
0.001
0.001
0.001
0.001
0.001
0.001
0.001
0.001
0.00100949
0.001
0.001
0.001
0.001
0.001
0.001
0.001
0.001
0.001
0.001
0.00108496
0.001
0.001
0.001
0.001
0.001
0.001
0.001
0.001
0.001
0.001
0.001
0.001
0.001
0.001
0.001
0.001
0.001
0.001
0.001
0.001
0.001
0.001
0.001
0.001
0.001
0.001
0.001
0.001
0.001
0.00106642
0.001
0.001
0.001
0.001
1.57837
1.5519
1.57906
1.57219
1.58052
1.58406
1.4236
1.43612
1.49309
1.4604
1.53689
1.57566
1.52943
1.41228
1.37578
0.485907
0.478371
0.481238
0.472027
0.482567
0.414711
0.45857
0.248963
0.297378
0.167898
0.166218
0.112272
0.113505
0.114114
0.001
0.001
0.001
0.001
0.001
0.116552
0.001
0.001
0.001
0.001
0.001
0.001
0.001
0.001
0.001
0.001
0.001
0.001
0.00101
0.001
0.00100974
0.001
0.001
0.001
0.490464
0.486173
0.48399
0.483664
0.488992
0.19887
0.315575
0.262852
0.37679
0.437733
0.463406
0.395904
0.477074
0.429032
0.427831
0.41422
0.001
0.00113438
0.001
0.001
0.001
0.001
0.001
0.00101489
0.001
0.001
0.00101382
0.001
0.001
0.001
0.0011254
0.001
0.001
0.001
0.001
0.00101578
0.001
0.001
0.001
0.001
0.001
0.00100972
0.001
0.001
0.001
0.001
0.001
0.001
0.001
0.001
0.001
0.001
0.00105494
0.001
0.00105458
0.001
0.001
0.001
0.001
0.001
0.00100113
0.001
0.001
0.001
0.00102117
0.001
0.001
0.001
0.001
0.001
0.001
0.001
0.001
0.0937253
0.0185824
0.00850205
0.001
0.001
0.001
0.001
0.001
0.001
0.001
0.00100956
0.001
0.001
0.001
0.001
0.001
0.001
0.001
0.001
0.001
0.001
0.001
0.001
0.001
0.001
0.001
0.001
0.001
0.001
0.001
0.001
0.001
0.001
0.00184244
0.0018425
0.001
0.001
0.001
0.001
0.00100972
0.001
1.227
1.21304
1.24336
1.25195
1.23696
1.27858
1.29311
1.28659
1.29457
1.28143
1.38905
1.34692
1.30754
1.14675
1.1513
1.17596
1.16515
1.19047
1.18948
1.21814
1.19812
1.10421
1.11264
1.13248
1.12025
1.1354
1.14372
0.778768
0.704977
0.625411
0.661709
0.609437
0.515388
0.697991
0.664506
0.893979
0.891973
0.855109
0.898454
0.987498
1.03271
0.896702
0.940138
1.03386
1.03382
1.05561
1.03482
1.07927
1.09591
1.09385
1.10676
1.08423
1.10717
1.09904
1.0976
1.0896
1.09808
0.132602
0.203634
0.383994
0.362488
0.286586
0.368244
0.377767
0.459995
0.128779
0.124047
0.123035
0.0374757
0.001
0.001
0.0013149
1.35016
1.35221
1.37671
1.3703
1.39355
1.40771
1.40598
1.40589
1.44541
1.42201
1.43779
1.40236
1.42993
1.44811
1.4703
1.49039
1.49871
1.49458
1.54722
1.54442
1.56823
1.54787
1.46492
1.46859
1.58345
1.58729
0.001
0.001
0.00101
0.001
0.001
0.00122679
0.00122661
0.001
0.001
0.001
0.001
0.0019445
0.00120077
0.001
0.001
0.001
0.00100232
0.001
0.001
0.001
0.001
0.001
0.001
0.001
0.001
0.0621869
0.124542
0.00679406
0.239398
0.157256
0.236273
0.247094
0.326431
0.269788
0.381898
0.42895
0.420149
0.421366
0.551638
0.521255
0.491752
0.53919
0.566457
0.557631
0.549656
0.535271
0.558351
0.559044
0.636217
0.684766
0.717419
0.67328
0.722177
0.746646
0.884289
0.817899
0.910049
0.896112
0.978274
1.05348
1.14076
1.13779
1.17386
1.21138
1.28343
1.27449
1.2939
1.2995
1.32567
1.33698
1.35496
1.35032
1.36131
1.36046
1.35125
1.36115
1.34883
1.34998
0.001
0.001
0.00101
0.001
0.001
0.001
0.001
0.001
0.001
0.00128475
0.001
0.001
0.001
0.0012887
0.00129097
0.00128844
0.00128797
0.00128533
0.00128826
0.001
0.001
0.00100461
0.001
0.001
0.001
0.00100179
0.001
0.001
0.001
0.001
0.001
0.00101
0.001
0.001
0.00100863
0.00104126
0.001
0.001
0.001
0.00366453
0.001
0.001
0.001
0.00100994
0.001
0.001
0.001
0.00100983
0.001
0.001
0.00100647
0.001
0.00100976
0.001
0.001
0.001
0.001
0.001
0.00361108
0.001
0.001
0.001
0.001
0.001
0.00116327
0.00116316
0.00116318
0.001
0.001
0.001
0.001
0.001
0.001
0.001
0.001
0.001
0.001
0.001
0.001
0.001
0.001
0.001
0.001
0.001
0.001
0.001
0.001
0.001
0.001
0.001
0.001
0.001
0.001
0.001
0.001
0.001
0.001
0.001
0.001
0.001
0.001
0.001
0.001
0.001
0.001
0.001
0.00101
0.001
0.00114067
0.001
0.00115692
0.001
0.001
0.00108872
0.001
0.00109372
1.5968
1.61522
1.6246
1.57358
1.59054
1.57308
1.58032
1.45272
1.47777
1.50792
1.51577
1.51902
1.55747
1.57307
1.44601
1.4868
1.38601
1.39633
1.40153
0.478107
0.475353
0.381316
0.341061
0.444651
0.370827
0.381496
0.250912
0.275897
0.141769
0.11563
0.113405
0.114879
0.091374
0.001
0.001
0.0274532
0.148062
0.001
0.001
0.001
0.00106905
0.001
0.001
0.001
0.001
0.001
0.001
0.001
0.001
0.001
0.00104068
0.001
0.001
0.00102396
0.001
0.001
0.001
0.442336
0.486591
0.46298
0.436622
0.201368
0.201367
0.230215
0.294699
0.41456
0.414308
0.366038
0.413768
0.413704
0.00100999
0.001
0.001
0.001
0.001
0.001
0.00132111
0.00132214
0.001
0.001
0.00101622
0.00100946
0.001
0.001
0.00100978
0.001
0.00100993
0.00338395
0.001
0.001
0.001
0.001
0.001
0.001
0.001
0.001
0.001
0.001
0.00124484
0.001
0.001
0.001
0.001
0.001
0.001
0.001
0.001
0.001
0.001
0.001
0.001
0.001
0.001
0.001
0.001
0.001
0.001
0.001
0.001
0.001
0.001
0.001846
0.001
0.001
0.001
0.001
0.001
0.001
0.001
0.001
0.001
0.001
0.001
0.00736268
0.001
0.001
0.001
0.001
0.001
0.001
0.001
0.00118031
0.001
0.001
0.001
0.001
0.001
0.001
0.001
0.001
0.001
0.001
0.001
0.001
0.001
0.001
0.001
0.001
0.001
0.001
0.001
0.001
0.001
0.001
0.001
0.001
0.001
0.00136854
0.00101
0.001
0.001
0.001
0.001
0.00100999
0.001
0.001
1.24756
1.24607
1.20494
1.26948
1.22062
1.26623
1.29517
1.27819
1.28832
1.34781
1.28661
1.37386
1.33619
1.41014
1.13208
1.15333
1.14984
1.17416
1.15199
1.18088
1.19856
1.16862
1.09735
1.11289
1.11336
1.1214
1.12607
1.12575
0.834959
0.7591
0.645307
0.663171
0.561493
0.659299
0.671334
0.723576
0.901001
0.900004
0.902975
0.87911
0.99222
1.03504
0.957405
0.90943
1.03752
1.03924
1.04642
1.06536
1.08086
1.07929
1.08002
1.10992
1.10843
1.09331
1.09209
1.09686
1.10089
1.098
0.218329
0.124717
0.392946
0.395968
0.311781
0.398158
0.39821
0.490826
0.123549
0.120837
0.0980615
0.0785679
0.0213073
0.123971
1.36254
1.37918
1.39923
1.43656
1.43064
1.45278
1.46379
1.47614
1.48174
1.46886
1.47731
1.50216
1.52087
1.52854
1.53145
1.53996
1.56128
1.5834
1.59014
1.59021
1.60525
1.48055
1.47044
1.62552
1.6408
0.001
0.001
0.001
0.001
0.001
0.001
0.001
0.001
0.001
0.00194437
0.001
0.001
0.001
0.001
0.001
0.00106212
0.00106213
0.001
0.001
0.001
0.001
0.001
0.001
0.001
0.001
0.0572598
0.0655059
0.135602
0.210336
0.193307
0.251196
0.196725
0.395391
0.316933
0.435403
0.426873
0.448862
0.502013
0.626116
0.63799
0.570574
0.608992
0.637949
0.584518
0.697201
0.620971
0.602025
0.633692
0.767127
0.780817
0.843093
0.897044
0.781745
0.872567
1.01489
0.962638
1.03158
1.00177
1.19679
1.16172
1.22799
1.24332
1.31245
1.32158
1.38147
1.34614
1.3943
1.37824
1.39899
1.43059
1.40534
1.43502
1.44368
1.40359
1.392
1.43366
1.4333
1.40269
0.001
0.001
0.00101
0.001
0.001
0.001
0.001
0.001
0.001
0.001
0.001
0.001
0.001
0.001
0.001
0.001
0.00100968
0.00128582
0.001
0.001
0.00128721
0.00100329
0.001
0.001
0.0013176
0.001
0.001
0.001
0.001
0.001
0.00136981
0.00100982
0.001
0.001
0.001
0.001
0.001
0.00100967
0.001
0.001
0.001
0.001
0.001
0.001
0.001
0.001
0.00101802
0.00101822
0.00101832
0.001
0.001
0.001
0.001
0.00110267
0.001
0.001
0.00110256
0.001
0.001
0.001
0.00100996
0.00114058
0.001
0.0010887
0.001
0.001
0.001
0.001
0.00101
0.001
0.001
0.001
0.00104871
0.001
0.001
0.001
0.00101933
0.001
0.001
0.001
0.001
0.001
0.001
0.001
0.001
0.001
0.001
0.001
0.001
0.001
0.001
0.001
0.001
0.001
0.001
0.001
0.001
0.001
0.001
0.001
0.001
0.001
0.001
0.001
0.001
0.001
0.001
0.001
0.001
0.001
0.001
0.001
0.001
0.001
0.001
0.001
0.001
0.00115693
0.001
0.001
0.001
0.00108912
0.001
0.001
1.64414
1.63411
1.64982
1.62339
1.59684
1.64148
1.62309
1.5994
1.61917
1.47902
1.49471
1.51481
1.51228
1.57629
1.60324
1.65092
1.54007
1.40703
1.43347
1.42911
1.43304
1.41612
1.44569
1.34556
0.24433
0.341905
0.248282
0.285951
0.282318
0.190874
0.188023
0.195361
0.197337
0.193552
0.169893
0.0881758
0.0623661
0.001
0.001
0.0906648
0.202584
0.001
0.001
0.00115576
0.001
0.001
0.00108992
0.001
0.001
0.001
0.001
0.00115639
0.001
0.001
0.001
0.001
0.0011746
0.001
0.00108307
0.001
0.001
0.350216
0.279279
0.251455
0.337988
0.204446
0.222333
0.364636
0.288775
0.338836
0.414976
0.406714
0.00111341
0.001
0.001
0.0011622
0.001
0.001
0.00132172
0.0013214
0.001
0.001
0.00100995
0.001
0.001
0.001
0.001
0.001
0.00358772
0.00368156
0.001
0.001
0.00364093
0.001
0.00184628
0.001
0.001
0.001
0.001
0.0030662
0.001
0.00124501
0.00317266
0.001
0.001
0.001
0.001
0.001
0.001
0.001
0.001
0.001
0.001
0.001
0.001
0.00101
0.001
0.001
0.001
0.001
0.001
0.00110202
0.001
0.001
0.001
0.00137788
0.001
0.001
0.001
0.001
0.001
0.001
0.001
0.001
0.001
0.001
0.001
0.001
0.001
0.001
0.001
0.001
0.001
0.001
0.001
0.001
0.001
0.001
0.00117671
0.0011767
0.001
0.001
0.001
0.001
0.001
0.001
0.001
0.001
0.00154747
0.001
0.001
0.001
0.001
0.001
0.001
0.00154747
0.001
0.001
0.001
0.001
0.001
0.001
0.001
0.001
0.001
0.001
0.00280195
0.001
0.001
0.00101
0.00106473
0.001
0.00101
0.001
0.001
0.001
0.001
0.001
0.001
0.001
1.18878
1.2329
1.19133
1.21592
1.20985
1.24423
1.21171
1.25317
1.27111
1.3073
1.30509
1.30977
1.34282
1.30975
1.41602
1.12675
1.12871
1.13306
1.13507
1.13777
1.13272
1.14669
1.16102
1.15386
1.10205
1.10627
1.11584
1.1236
1.12444
0.805918
0.875059
0.683015
0.68002
0.596268
0.699912
0.7556
0.69327
0.912005
0.926326
0.929633
0.915492
1.03777
1.00407
0.974486
1.00425
1.05185
1.04289
1.07699
1.10137
1.11115
1.1226
1.11825
1.08508
1.10688