/*--------------------------------*- C++ -*----------------------------------*\
  =========                 |
  \\      /  F ield         | OpenFOAM: The Open Source CFD Toolbox
   \\    /   O peration     | Website:  https://openfoam.org
    \\  /    A nd           | Version:  8
     \\/     M anipulation  |
\*---------------------------------------------------------------------------*/
FoamFile
{
    version     2.0;
    format      ascii;
    class       surfaceScalarField;
    location    "6780";
    object      phi;
}
// * * * * * * * * * * * * * * * * * * * * * * * * * * * * * * * * * * * * * //

dimensions      [0 3 -1 0 0 0 0];

internalField   nonuniform List<scalar> 
788991
(
-0.0489022
0.00464004
-0.0342252
-0.0407373
0.00706664
-0.0303381
0.00399685
0.00809822
-0.0662714
0.042693
-0.0313607
0.0486874
-0.0101749
-0.067202
-0.0435569
-0.0385347
0.0462152
8.19067e-05
-0.0518797
0.0342051
0.0170137
0.020062
-0.0284519
0.0131585
-0.0190988
0.0424359
-0.042788
0.0428781
-0.0252101
0.0442739
0.0217416
0.0360213
0.0561201
-0.00745263
0.0704619
0.00811406
-0.0273616
-0.0383326
-0.0329117
0.00929702
-0.0291068
0.0296058
0.00698037
-0.0305668
0.0341237
-0.0164191
-0.0243383
0.010122
0.00207569
-0.0455391
-0.0244289
0.0204847
-0.0401548
0.00142883
0.0205167
0.0139125
0.029585
0.0273723
0.0532722
0.0299335
0.0268265
-0.0171876
-0.0360789
-0.00344574
0.00690462
0.00269305
-0.00382316
0.000569081
0.00668213
-0.0169839
-0.0110993
0.00543279
0.08097
0.00292736
0.00325159
0.0388015
-0.0739523
-0.0380672
0.010436
0.0242334
0.0252739
-0.0430576
0.0456167
-0.0286258
-0.00231562
-0.0320613
0.0255859
-0.0289691
-0.0332942
-0.0109388
0.0295101
0.00309445
-0.0314089
-0.0309114
-0.00147416
0.0325655
-0.00636177
0.0294445
-0.036397
-0.00508524
0.029141
0.0124596
-0.0230084
-0.0178739
0.0101358
0.0402061
0.022729
0.00988055
-0.0256339
-0.0214439
0.0311199
0.0406714
0.0127125
-0.00736503
0.0190008
0.00252645
0.0438501
0.0376456
-0.0179312
-0.0039464
0.0291447
0.0359714
-0.0306465
-0.0614421
0.0232994
0.00751344
0.0626765
0.0229135
0.0182935
0.0163417
0
0
0
0
0
0
0.00817519
-0.00837937
0.0675598
-0.0865313
0.0605361
0.0793915
0.0522328
0.0382698
-0.00783893
-0.0379527
0.0666276
-0.00786082
0.0512201
0.0137038
0.00851809
-0.0309506
0.00746037
-0.0230982
0.0354377
0.00495108
-0.0192095
-0.0590267
-0.0442313
-0.0420551
0.0471692
0.0158404
-0.0306502
-0.00203035
-0.0374006
0.0486363
-0.0136874
0.0187619
0.0433439
-0.0544349
0.0366585
-0.0430353
0.0577636
0.093322
0.0353502
0.0437094
0.069874
0.0771159
0.0612845
0.026118
0.0288311
-0.0548912
0.0490334
0.0495584
-0.0307236
0.00194679
-0.0816173
0.0127704
0.0112486
0.0352784
0.0181691
0.0514047
0.0204719
0.021896
-0.0431395
-0.00293044
-0.0280275
0.0270026
0.0697611
-0.034031
0.0289197
0.0523806
0.0278872
0.0233436
0.00180345
-0.0226747
-0.0368491
-0.0143
-0.0373041
0.00412077
0.00220003
0.0745337
-0.00900291
0.0377982
0.025698
-0.0104529
0.0189612
0.0241072
0.0258694
-0.0149709
0.0217931
0.0355437
-0.000127483
-0.0120111
0.0279161
0.0198102
-0.0152524
0.017896
0.0377092
-0.0179008
0.0129708
0.0515086
0.0508436
0.00151676
0.0670332
-0.0733922
-0.0426237
0.0466521
0.0640249
0.0853012
-0.0847236
0.0534248
-0.0443341
-0.0284961
-0.0553299
0.0222352
0.0390556
0.039035
0.0393832
0.090513
-0.0189199
0.0254471
0.0337384
-0.00424958
-0.0131442
0.0293107
-0.00811553
0.0059726
0.0361127
0.0276435
0.0471334
0.0959686
-0.00890822
0.0117706
0.0808754
0.00268009
-0.0243314
0.0255837
-0.000472254
-0.00600035
0.054529
-0.0421257
0.00300453
0.0673026
0.0185544
-0.0124007
0.0222242
-0.004911
-0.0163391
-0.0311734
0.0171804
-0.0195731
-0.0310041
0.0165538
-0.0123108
0.00011162
-0.0156378
0.00138034
0.0027895
-0.00586746
-0.00360368
-0.00793462
-0.0237397
0.00683395
0.0257873
0.0345669
0.0363585
-0.00561194
0.0308475
0.0422281
0.000973901
0.0381123
-0.0388516
-0.00953317
0.0180246
0.0251323
-0.0217492
0.0103056
-0.0131523
-0.0336038
0
0
0.0360919
0
0.0500718
0
0
0
0
0
0
0
0
-0.0310196
-0.0183922
-0.0180616
-0.0148587
-0.0163853
-0.0140839
-0.0201593
-0.0271195
-0.00441835
-0.0367132
-0.0280714
0.000136993
-0.0326455
-0.0321348
0.0118743
-0.0342569
-0.026132
0.00701057
-0.0333034
-0.0175023
0.0105678
-0.019237
-0.014512
-0.0176032
-0.00550036
-0.0251602
0.016914
0.0149373
-0.00872801
0.00387935
0.0561178
0.00390489
0.0191235
0
0
0
0
0
0
0
0
-0.0567943
0
0
0.117823
0.123831
0.0360693
0.0483618
0.00508675
0.043718
0.0544634
-0.000240824
-0.03728
0.0468489
0.0141759
-0.0282454
0.0124231
0.0143808
0.0133722
0.00314995
0.00784127
-0.00590668
0.0394556
0.0306794
-0.00106166
0.0204596
0.0362096
0.0159404
-0.0066808
0.0372584
-0.0317633
-0.00878906
0.037486
-0.0486375
-0.0384474
0.00499974
0.0259392
-0.0311133
0.0505184
-0.0554522
0.0261025
-0.0211612
0.0237426
0.0235194
0.0117917
-0.0050735
-0.0915192
-0.00558989
0.0152943
0.0300069
-0.0169872
-0.0296092
-0.0171356
-0.024053
0.00856988
0.00319605
-0.0115379
-0.015275
0.0177724
0.0148448
-0.0338783
0.0266202
0.024034
-0.0145999
-0.0117188
0.00651889
-0.0511488
-0.0313703
0
-0.0804562
-0.00845322
0
0.0221964
0.0366089
0.0207344
0.0358695
0.0295836
-0.0167519
-0.00504748
-0.0392449
0.013574
0.0275147
-0.00927365
-0.000766002
-0.00930032
-0.00648253
0.0167967
0.00427523
-0.00358189
0.0172758
0.0151704
-0.0267883
0.0116141
0.0273208
0.0283425
0.0218838
0.0567831
-0.054911
0.00228608
0.041607
-0.0249966
-0.0391147
0.013443
-0.126802
0.182448
-0.0870846
0.0896873
0.025226
0.0290798
0.0109402
0.0329003
0.00504704
0.00956393
0.0151724
-0.0112524
0.0151807
0.0240017
0.00829373
0.00962592
0.0394057
0.0483087
-0.0185903
0.0140597
0.0642413
-0.04609
-0.00265523
0.0194289
-0.0429297
0.0379882
0.0403348
0.0326314
0.0490802
0.0559745
0.0399846
0.0686513
0.0459538
-0.0229771
0.0559831
0.0509291
-0.00779309
0.0138751
0.0032008
0.0274269
0.0539035
0.00354623
-0.0334454
0.00565093
-0.0180832
0.00562263
0.0126265
0.0364364
0.0445279
-0.00315993
-0.0100647
0.0607205
-0.00549051
0.0264376
-0.0365446
-0.0576434
0.00109094
0.0428676
-0.034656
-0.00962121
0.00296852
-0.0178834
0.000535363
-0.0329263
0.0114232
0.000431635
-0.00662476
0.0469182
-0.000603629
0.0141102
0.0167252
0.00962348
-0.0169573
0.0276867
-0.0712363
0.0435913
-0.0734583
-0.131953
-0.0367684
0.0437917
0.0490344
0.00205526
0.0135194
-0.0501662
0.000878794
-0.00407858
-0.0143704
-0.0121253
0.011067
-0.000622627
0
0
0
-0.0270206
0
0
-0.05902
0
-0.009743
0
0
0
0
0
0
0
0
0
0
0
0
0
0
-0.0216222
-0.0268595
0.00123827
-0.00518297
-0.0281997
0.00983151
-0.0325946
-0.0240776
0.00593171
-0.0525478
-0.0323822
0.0113239
-0.0343726
-0.0331074
-0.0205251
-0.0275766
-0.0221555
-0.00738704
-0.0185852
-0.00766928
-0.00591302
-0.0222891
-0.01593
-0.00813376
-0.0119217
-0.0127246
-0.00807813
0.00153685
-0.0218786
-0.0146423
0.0309031
-0.0106169
-0.0122735
6.25536e-05
0
6.00648e-05
0
0
2.7905e-05
-2.03585e-06
-8.24414e-05
-1.60565e-05
0.000114605
0
-6.33128e-05
0
0
0
0
5.94005e-05
0
0
-3.80687e-06
0
0
0
0
0
0
0
0
0
0
0.0271291
0
-0.17957
0.0396254
0.26553
-0.0210016
0.0516067
0.0236876
-0.0315243
0.0406434
0.0306747
0.0132027
0.0298618
0.0236889
-0.00483091
0.00603244
0.0308197
0.00496771
-0.0111359
0.0185646
0.0181595
0.0246325
0.0225635
-0.000389205
0.0227741
0.0329038
-0.0269771
0.00814544
0.0328416
0.0132556
0.00267418
0.0180854
-0.0322457
-0.013468
0.0354731
-0.0258185
-0.00121116
0.0191472
0.0485266
0.0198668
0.0163044
0.0305416
0.0160488
-0.0180276
-0.0126265
0.0273361
0.0127756
0.140435
0.0146149
-0.010942
0.0545102
0
-0.0401613
0
0.0144461
0.0201049
0.0126142
0.0400218
-0.0111816
0.0085357
0
0
0
0
0
0
0
-0.0597758
-0.0567633
-0.0273417
-0.0452936
-0.00318204
0.0384507
0.0785409
-0.117387
-0.0788378
0.044341
-0.0210547
-0.00214135
0.0501664
-0.0269561
-0.0327193
-0.0199344
-0.0621938
-0.0667378
0.145618
-0.0163323
0.0363178
-0.00425705
0.00586734
-0.00763056
0.00503481
0.00999306
-0.0156909
-0.00250128
0.00826209
0.00992139
0.00548971
0.00379892
0.00518604
-0.0348383
0.00735237
0.00580486
-0.0312182
0.0396687
0.0271984
0.032829
0.00840423
0.0851317
0.0680727
-0.224486
0.13072
-0.123875
-0.0788783
-0.137201
0.0195122
-0.0547523
0.0273676
-0.0458713
-0.00187891
0.0105262
-0.0264311
0.00796057
-0.0209786
0.0107812
0.0280369
0.00363932
0.000529828
0.0289552
0.0323977
-0.0188566
0.0166746
0.0468841
-0.0273592
0.0551528
0.0615473
-0.0513172
0.0767319
0.0778516
0.0297602
0.0496355
0.0263204
-0.0334571
0.00615958
0.0137665
-0.0394401
0.0264733
-0.00203866
0.0020215
0.0488928
0.0110422
0.0314249
-0.00992415
0.0175829
-0.000635936
0.00135171
0.00984941
0.0100799
-0.0153954
0.00744517
0.0330548
0.00685729
0.0138136
-0.0297662
0.0175321
0.0346608
-0.00161142
0.0924726
0.0350977
-0.0815904
0.0762763
-0.0454661
0.0625191
0.111021
0.0123239
-0.0318623
0.0777931
-0.00129542
0.00895287
-0.00908224
-0.016009
-0.0505641
-0.0166106
-0.00616384
-0.0230263
-0.0227953
-0.00914201
0.0383409
-0.0169414
-0.0177564
0.00647551
-0.0105422
0.0282116
-0.0563654
-0.0102235
0.054184
-0.00862566
0.0168167
-0.0577034
-0.0122492
-0.0197426
0.0168077
0.00529714
0.0277823
-0.0316287
-0.0325596
-0.00671177
-0.0258084
0
0
0
0
0
0
-0.000206919
0
0.000319957
0
0
0
0
0
0
0
0
0
0
0
0
0
0
0
0
0
0
0
0
0
0
0
0
-2.62726e-05
0
6.2981e-06
0
3.52461e-05
-2.10492e-05
3.76689e-05
1.89293e-05
-0.000279603
0.000154924
0
0
-2.54792e-05
0
0
0
0
0
0
0
0
0
0
0
0
0
0
0
0
0
-0.0182473
-0.041518
-0.018669
-0.000453829
-0.0365381
0.0293282
-0.050724
-0.0273211
0.0233795
-0.046259
-0.0302448
-0.0155072
-0.0295317
-0.0176668
-0.00915714
-0.0111704
-0.018529
0.0103796
-0.0194886
-0.017566
-0.00290367
-0.0233334
-0.0141967
-0.00558874
-0.00117464
-0.0160594
-0.0100169
0.0160527
-0.0189353
0.0243943
0.0153456
0.0330877
-0.000653829
0
4.0337e-05
0
0
0
0
0
0
0
0
0
0
0
0
0
0
0
0
0
0
0
0
0
0
0
0
0
0
0
0
0
0
0
0
0
0
0
0
0
0
0
0
0
0
0
0
0
0
0.000285863
0.0003935
0.0959437
0.0198163
-0.0319795
0.0693659
0.16297
-0.0567458
0.0437822
0.107533
0.0391704
0.0279801
0.0816909
0.0269664
0.0182534
0.0499762
-0.0196472
-0.00282962
0.0503927
0.0329957
-0.0201517
0.0299679
-0.0418905
4.82165e-05
0
0
0.000104507
-5.21521e-06
0
0
5.72699e-05
0
0
0
0
0
0
0
0
0
0
0
0
0
0
0.0113309
0.0178968
-0.00452842
-0.0143855
0.0216475
0.00817105
0.00194017
0.00173127
-0.025638
-0.0432298
-0.00572279
-0.022812
-0.0194064
0.0185036
-0.00628496
-0.0219086
-0.0236919
0
-0.0280328
-0.00989314
-0.0354281
-0.0250735
-0.00485444
0
-0.0507956
0
0.0503367
-0.0334322
0.012988
-0.0365121
0
0
0
-0.00744704
0
0
0
0
0
0
0
0
0
0
0
0
0
0
-0.0959845
0.131191
-0.00433934
-0.0798098
0.0324563
-0.102177
-0.149991
-0.0354338
0.0456256
-0.0786212
0.10523
-0.0802561
0.039427
-0.143668
-0.0787548
-0.00522091
-0.140216
-0.0785808
0.0681789
-0.0546156
0.0125869
-0.0916382
-0.0317238
-0.00634898
-0.0354951
-0.00295674
0.0726086
0.0533927
-0.00647992
-0.0245261
-0.0361218
0.0630561
0.00329136
0.0202953
0.0122038
-0.0241837
-0.00966615
-0.00745385
0.0128215
0.00633987
0.0139736
-0.0102319
0.0317945
-0.0407753
-0.0184129
-0.0245358
0.0063515
0.0212192
0.170406
0.00776428
0.0648031
-0.0787142
-0.256802
-0.0272061
-0.191304
-0.039757
-0.162427
0
0
-0.0217824
0.0685953
-0.00165393
0.0235196
-0.00166819
0.0294843
-0.00504623
0.023569
0.00895552
0.00359953
0.0194883
0.0274177
0.00557782
0.0533773
0.0336902
0.0743795
-0.0555927
-0.0220706
0.0858117
-0.00962159
-0.0254147
0.0149957
-0.00933432
0.0244246
0.0821576
0.0416403
0.00208933
0.0362544
0.0387244
0.032487
0.053653
0.0191507
0.0146706
-0.0538789
-0.0128456
0.028835
0.00438265
-0.013576
-0.0439393
-0.0488183
0.019721
0.0274756
-0.00211271
0.00793245
0.0286332
0.0296622
-0.0354465
-0.0037133
-0.0110697
0.0204019
0.0326993
-0.0676204
-0.0803078
0.0450931
0.00139436
-0.0778241
0.0916889
-0.00593273
-0.092158
0.128662
0.0329362
0.0706901
0.106161
0.038917
0.0443332
-0.0706504
0.0780491
-0.0724165
0.0910536
-0.0148914
0.0285778
0.0885347
0.0117774
0.0951612
0.0223544
-0.0898341
0.0743969
-0.0921445
0.0171781
-0.00803054
-0.0959773
0.0759514
-0.0953827
-0.0175882
-0.0313627
-0.093738
0.0608169
-0.0868203
-0.00816615
-0.0249729
0.0804388
-0.00629742
-0.0711286
-0.0431761
-0.0263686
-0.0625212
-0.0432788
-0.0557747
-0.0716583
-0.0639095
-0.037731
-0.0638497
-0.0324008
0.0812594
-0.0829047
-0.0190632
-0.013405
-0.0657721
0.0668152
-0.0706834
-0.00230838
0.0112229
0.0151896
-0.0217897
0.00699133
0.00823547
-0.00767133
-0.0258528
0.0373017
-0.00532385
-0.0237364
-0.0322342
0.0164632
0.017839
-0.0227132
-0.0404191
0
0.0150925
0.018836
-0.0407759
0.00465866
0.000116208
0
0.0151454
0
0.0332722
-0.045153
-0.0200274
-0.0345513
-0.0198622
-0.0320875
0
-0.00466942
0
0
0
0
0
0
0
0
0
0
0
0
0
0
0
0
0
0
3.56621e-05
9.54256e-05
0
0
0
0
0
0
0
0
0
0
0
0
0
-2.6877e-05
-0.000123443
0
0
0
0
0
0
0
0
0
0
0
0
-4.40029e-05
0
0
0
0
0
0.000231176
0.000503069
0
-4.17543e-05
-4.84714e-05
-0.000278659
0
0
0
-0.000252063
0
0
0
5.06007e-05
0
-0.00067699
-6.21218e-05
-8.48351e-05
-0.000126603
0
0
-3.92121e-05
-5.81617e-05
0
0
0
-0.000128879
0
0
0
0
0
0
0
0
0
0
0
0
0
0
0
0
0
0
-0.000107254
0
4.95954e-05
0
-5.78138e-05
0
-0.0136035
-0.0506161
0.0356659
0.0124222
-0.0376481
-0.0402302
-0.044055
-0.0222241
-0.030297
-0.0309393
-0.0170906
0.0140931
-0.0205663
-0.0244428
0.00866315
-0.0175546
-0.00464139
-0.0124801
-0.013865
-0.00783266
-0.00331947
0.0147187
0.01428
-0.0199704
-0.0138328
-0.00717937
-0.0164757
6.57542e-06
0.00854341
-0.017801
0.0146689
0.0142162
-0.0239138
0
0
0
-3.02427e-05
3.4459e-05
6.10051e-05
0
0
0
0
0
0
4.28607e-05
0
-1.60333e-05
0
0
0
0
0
0
0
0
0
0
0
0
0
0
0
0
0
0
5.78157e-05
6.05332e-05
3.1929e-05
0
-5.47674e-05
0
-7.44164e-05
0
2.11463e-05
-0.0663945
5.39163e-05
-0.0851981
0.064401
-0.0345662
0.0171032
0.0669049
0.0603729
0.0443071
0.0424155
0.103976
0.0375147
0.0209142
0.0842552
-0.0385565
0.00838664
0.0658112
-0.0407751
-0.0090498
0.0598613
0.0544493
-0.0184939
0.0523871
0.0436651
5.95904e-05
0
0
8.8921e-05
0
-3.48117e-05
0
-7.3654e-07
0
1.26568e-07
0
1.48397e-06
-1.13156e-06
0
0
0
0
0
0
0
0
0
-9.28202e-06
0
0
0
0
0
0
0
0
0
0
0
0
0.00092121
0
0.0020776
0.0171214
0.0124888
0.00787882
0.00516791
0.00274508
-0.00624639
-0.0182566
-0.00601231
0.0271342
-0.00445355
-0.0355271
0
0
-9.69587e-05
6.17638e-05
0
0
0
0
0
0
0
0
0
-0.0310062
0
-0.0203746
-0.0216693
0.0214562
0.0146638
0
0
0
0
0
0
0
0
0
0
0
0
0
0
0
-1.35076e-05
0
-1.3606e-05
-0.0699569
-0.0922245
-0.0294658
-0.105701
-0.122759
-0.0501042
-0.0974906
-0.137551
-0.0127906
-0.0958585
-0.0693944
-0.0332878
-0.0784048
-0.0829125
-0.0109985
-0.0724436
-0.0678091
0.00405871
-0.0828662
-0.0869772
0.0134717
-0.0786163
-0.0870055
0.00217196
-0.0340031
-0.0683855
0.0278111
0.0170313
-0.0594008
0.0524848
0.0463672
-0.0390004
-0.0662192
0.0550778
-0.0245589
-0.0532352
0.005188
-0.058971
-0.0144327
0.0606732
-0.0481104
-0.00158434
0.0575366
0.0423324
-0.184389
-0.0783265
-0.024683
-0.115436
-0.076745
0.0560936
-0.076423
0.00169687
0.0760131
-0.097937
-0.0681951
-0.0740866
-0.0141201
-0.0834523
0.00348961
-0.0146538
0
0
-0.0220589
-0.0179672
0.00312271
0.0213838
-0.010718
-0.00482926
-0.0298871
-0.00641144
0.0159141
-0.00534978
-0.0390698
-0.000506162
-0.0572699
-0.0415038
0
-0.00788577
0
0
-0.503716
0
0
0
0
0
0
0
0
0
-0.0228456
0.0031916
0.0255235
0.0197722
-0.00307001
0.00173959
-0.00430171
0.00485649
0.0278397
0.026102
0.017803
0.0421283
0.0938465
-0.0215609
-0.00231053
0.0374554
0.0333435
0.0155186
0.00673361
-0.0216077
-0.0163193
5.47724e-05
0.0186283
-0.0272412
0.0255804
-0.0252122
0.000833156
0.0463129
0.0659023
0.00844407
-0.0152388
0.0149982
0.0706701
0.0419294
-0.0274373
-0.00974798
-0.0142076
-0.0241605
0.0414028
0.0471622
0.0224727
0.0143837
0.0234162
-0.0131424
-0.0199259
0.0921482
-0.0700745
0.0325659
0.094624
0.0500245
0.104079
0.0495602
-0.101534
0.0854
0.0157551
0.119277
0.115446
-0.000544799
-0.0843287
0.117855
0.0325436
-0.0665824
0.0759115
0.0375265
0.0974784
0.112883
0.0310676
0.0950256
0.0821037
-0.00583294
-0.0944163
0.0688357
-0.0165066
-0.099971
0.0569605
-0.032005
-0.0878331
0.0311757
-0.0361726
-0.0737947
-0.0240964
-0.0452077
-0.0448963
-0.0560934
-0.0634017
-0.00983741
-0.0620067
-0.0619339
-0.00490722
-0.0630586
-0.0458793
0.0169789
-0.0575852
-0.0338262
-0.0396909
0.0249063
-0.045604
0.0314112
-0.0146101
-0.0248262
-0.0323647
0.039647
0.0370719
-0.00407034
0.0311139
-0.0147863
-0.00373229
0.00724466
0
0.094433
-0.0556977
0.0642349
-0.021368
0.0278263
-0.0064014
-0.0230079
0.0239579
-0.0105682
-0.00393843
0
0.0195613
-0.0280683
0
0
0
0
0.000853904
-0.00219933
0
0
0
-0.0437324
0
0
-0.000547106
0.000255566
0.000737678
0
-9.34411e-05
0
0
0
0
0
0
0
0
0
0
4.86105e-05
6.57811e-05
1.31051e-05
0
0
0
-2.89199e-05
0
0.00011374
0
-4.62245e-05
0
0
0
0
0
0
0
0
1.29323e-06
-5.67056e-05
0
0
0
0
-0.000152362
0
0
0
0
0
0
0
0
-6.38497e-07
-1.85207e-06
0
0
0
0
0
0
0
0
0
0
0
0
0
0
0
1.74657e-05
0
0
-0.00013493
0
0
0
0
0
0
0
0
-0.000131791
0
7.48197e-05
-5.58345e-05
0
5.49771e-06
0
-5.02487e-05
0
0
0
0
0
0
0
0
1.21465e-06
0
0
0
0
-0.00173349
-0.0389599
0.0380718
0.0251087
-0.0269612
-0.0406824
-0.0301695
-0.0105091
-0.0254359
-0.0243026
-0.0205128
-0.0128286
-0.0152381
-0.00315254
-0.0173073
-0.0227808
-0.0120618
-0.000241067
-0.011136
-0.00486382
0.00307839
0.0181311
-0.00808088
-0.010318
0.00211684
0.00597409
0.00663731
0.0135639
0.000417201
-0.00248006
0.00230601
0.0191481
-0.0145269
-3.37564e-05
0
-1.44355e-05
6.9013e-05
-7.93145e-06
-1.34893e-06
0
0
0
0
0
0
0
0
0
0
0
0
0
0
0
0
0
0
0
0
0
0
0
0
-8.39083e-05
0
0
0
0
0
0
0
0
0
0
0
-0.0908558
0
-0.0863968
0.00837819
-0.0320507
0.003111
0.0373609
0.00464145
0.0169236
0.0259133
0.0643159
-0.0205871
0.0164327
0.0661287
0.0381086
0.00365843
0.0665768
0.0485941
-0.00852278
-0.0181016
0.0530538
-0.0417346
0.0581471
-0.0528904
0
0
0
0
0
0
0
0
0
0
1.35103e-06
0
0
0
0
0
0
2.80368e-05
3.18153e-06
-0.00116766
0
0
0
-6.60659e-05
0
0
0
0.000510139
0
-0.000579253
-0.00119794
0.00108132
0.00023487
0
0
0
0
0
0
0
0
0
0
-0.000964942
0
0.0408601
0.023996
-0.0057189
-0.0246627
-0.0255213
-0.0139691
0
-0.0171869
0
-3.52439e-05
0
0
-0.00512015
0.00862428
-0.041593
-0.000969163
0
0
0
0
0
0
-1.19731e-05
-1.73501e-05
7.67264e-06
0
-7.46886e-06
0
0.00143846
0
0
0.00372182
0
0
0
7.19011e-08
0
-5.17254e-06
0
0
0
0
0
0
0
0
0
0
0
0
0
0
0.0265302
-0.000324032
0.0200406
-0.00588228
0.00180193
-0.0384601
0.0419629
0.0388386
-0.00681083
-0.00410938
-0.0379019
0.0350847
-0.00796988
-0.0267322
0.0119472
0.0500741
0.0413896
0.0273917
-0.0132318
-0.0283891
-0.00675032
0.029218
-0.0184124
-0.0237241
0.021213
-0.00878485
0.0174637
-0.00195336
-0.0224309
0.0261688
-0.0086279
0.00752875
-0.0270523
-0.01803
0.0147397
0.0139927
0.0479571
0.0224344
-0.0227723
0.035052
0.0283518
0.00603893
0.0337172
0.032928
-0.00259257
-0.0792881
-0.069254
-0.0180924
-0.075611
-0.109044
-0.0555939
-0.0888799
-0.119791
0.00508146
-0.0939879
-0.0743005
-0.0159676
-0.0540826
-0.0709325
-0.0212095
-0.0648867
-0.0376394
-0.0184449
-0.0815991
-0.0803983
0.0108545
-0.0339727
-0.0650849
-0.0323815
0.00215542
-0.0595647
-0.0526805
0.0237374
-0.0508087
-0.0558901
0.0326453
-0.0395898
-0.0492712
0.0361789
-0.0183922
-0.034705
0.00991721
0.0506425
-0.0277798
0.00385011
0.0441561
-0.0161712
-0.120037
-0.165223
-0.0402385
-0.115334
-0.0657814
-0.151478
0.0303241
-0.1174
-0.0960964
-0.0550307
-0.0558577
-0.0153416
-0.0625185
0
-0.0727487
-0.0729432
-0.0441268
-0.0478629
-0.0195182
0.0279074
-0.0423905
-0.0156557
-0.0305834
-0.0199909
-0.00963667
0.0287446
0.00225183
0.00756925
0.024933
0.0284856
0.0324801
0.0040169
0.0351013
0.028862
0.00758055
0.0228357
0.0187916
0.00350992
0.0268078
0.0355937
0.0383959
0.00531758
0
2.0788e-05
3.14434e-05
0
-0.0319179
0.055699
-0.112484
0.00187763
0.023151
-0.141538
0.025675
0.0133263
1.59863e-05
-0.0607323
-9.6515e-06
3.77942e-05
-3.16233e-05
-2.15129e-05
0
-5.25507e-05
0
0
0
0
0
0
0
0
0
0
0
-0.0129326
0.00876841
0.0152032
-0.0115753
0.0256674
0.00417644
0.043934
-0.0114295
0.0308042
0.0134248
0.0153859
0.0290087
-2.98876e-05
0.00448533
-0.0159577
-0.00310366
0.00583517
-0.057876
-0.0263616
0.00990433
0.00320909
0.0277385
-0.0452689
0.0509864
0.0486364
-0.0820145
0.076121
0.168587
-0.0583217
0.0826909
0.0656512
0.0146201
0.0714155
0.0250913
0.0257191
0.0530022
0.0600576
0.0248918
0.0695158
0.0324734
-0.00483031
0.0589309
0.0185358
-0.0324113
0.0424547
0.126938
-0.0739384
0.00788123
0.0881809
0.0471806
0.094313
0.0236088
0.0801904
0.0837291
-0.0103494
-0.106205
0.108022
-0.0260919
-0.0628604
0.077812
0.0297418
0.125075
0.109128
0.021041
0.108892
0.0981003
0.00423579
-0.1022
0.0929053
-0.00538767
-0.107726
0.0618819
-0.0160613
-0.102154
0.0324851
-0.0409896
0.08552
0.000367565
-0.0542708
-0.0557624
-0.0428143
-0.0539135
0.0123594
-0.0546955
-0.0454822
-0.019361
-0.0595912
-0.0369791
0.029299
-0.0613255
-0.0297198
-0.031691
-0.0574771
-0.0346053
-0.0297004
-0.0279863
-0.0319048
0
-0.0101068
-0.0234677
0
0.00639544
0
0
-0.00380404
0
0
-0.0506726
0
-0.020816
3.01071e-05
-0.0239808
0
0
0
0
2.3041e-06
0
0.000150559
0
-0.0366737
0
0
-6.75104e-05
0
-0.000429388
0
-0.000320287
0
-7.93033e-05
0
0
0
0
0
0
0
0
6.59023e-05
-3.70164e-06
0
0.000103352
0
9.17672e-05
4.95959e-06
4.8458e-05
6.40302e-06
0
0
0
0
0
0
0
0
0
0
0
0
1.73559e-05
0
-0.00018033
0
0
0
0
0
0
0
0
0
0
0.00319718
0.00187883
0
-4.25259e-06
-1.82281e-06
0
0
0
0
0
0
0
0
0
0
0
0
0
0
0
0
-4.60765e-06
-9.79765e-05
0
0
0
0
-5.58133e-06
-5.57177e-06
0
0
0
0
0
0
0
0
0
0
0
0
0
0
0
0
0
0
0
0
0
0
0
0
0
0
0
1.8444e-05
0
-4.49429e-05
0
0
0
7.46807e-05
0
-3.75053e-06
-0.00366825
0.000643881
-0.031832
-0.00356781
0.0324296
-0.0234237
0.0480412
0.0351855
0.0084126
-0.0272468
-0.0252907
0.021276
-0.0219314
0.0388456
-0.0260839
-0.00482235
-0.0104689
-0.0232013
-0.00261414
0.0175555
-0.0133022
-0.00228778
-0.00923141
-0.0117275
-0.0163229
-0.00865406
-0.00280914
0.000259987
0.016472
0.00144461
-0.00619655
-0.00668186
0.00774823
0.010321
0.0235963
0.00172931
0.00649106
5.85596e-06
0
0
0
0
0
0
0
0
0
0
0
0
0
0
0
0
2.42024e-05
0
-9.10409e-08
0
0
0
0
0
0
0
0
0
0
0
0
0
0
0
0
0
0
0
0
0
-0.0715502
0.0526361
0.0542231
-0.0414261
-0.00109863
-0.0189818
-0.012768
-0.0182072
0.0544355
0.0205048
0.0155908
-0.0165911
0.00701334
0.0174243
0.0203978
0.0162143
0.0148345
0.0536648
-0.0335463
-0.00227837
0.0415964
0.0394844
-0.0471678
0.0359295
0
0
1.16588e-05
-1.03202e-07
0
0
0
0
0
0
0
0
0
0
2.47735e-05
0
0
0
0
0
0
0
0
0
0
0
0
0
4.61098e-06
8.51972e-06
0
0
0
0
0
0
0
0
0
0
0
0
0
0
0
0
0
0
0
0
0
0.00136233
0.0328823
0.00918583
0.0177506
0.0220441
0.0181866
-0.00065384
-0.0505776
-0.0508472
-0.00641696
0.0196749
-0.0673419
-0.00789032
0
-0.020199
0
0
0
0
-0.0163173
0.00742378
-0.00945109
0
0
0
0
0
0
0
0
0
0
0
0
0
0
0
0
0
0
0
0
0
0
0
0
0
0
0
0
0
0
0
0
0
0
0
0
-0.0280213
0.0274845
0.0122994
-0.0458906
-0.000245528
0.0509107
-0.0496618
-0.0120119
-0.0523393
-0.0727766
-0.0324861
-0.0539292
0.0217977
0.0229633
-0.0049818
0.0150784
0.0220895
0.0117773
0.00898051
0.0204581
-0.00988042
0.0129474
0.0212295
-0.0231122
0.0434591
0.0258395
0.024627
0.0243496
0.0213909
-0.0101567
0.0110306
0.0236191
-0.00576433
-0.0885741
-0.0571025
-0.0056493
-0.078041
-0.111425
0.0324543
-0.0915377
-0.110856
0.0155284
-0.0918883
-0.0886233
-0.00592511
-0.0542523
-0.083052
-0.00404036
-0.0678867
-0.0707257
0.00673351
-0.0258604
-0.0842512
-0.0214339
0.0443109
-0.0623945
-0.0359081
-0.0237779
-0.00134084
-0.0630837
-0.0548761
0.0105222
-0.0644163
-0.0580991
0.00969789
-0.0579756
-0.0599431
0.00151651
-0.0542841
0.0371695
0.00762507
-0.0392328
0.0133648
0.00404466
0.0419823
0.00277789
0.00452684
0.02118
-0.0151136
-0.0956435
-0.0753341
0.0287623
-0.116164
-0.130691
0.0408481
-0.0569422
-0.140301
-0.0152383
-0.109983
-0.0791144
0.0354482
0.00979841
-0.0789052
-0.0367765
0
-0.0844995
0.0751813
-0.0478813
-0.0599451
-0.0284729
-0.0306177
-0.0439868
-0.0147201
-0.0347036
-0.0338516
0.0362974
-0.00307772
-0.0108287
0.00456361
0.0320983
0.00528723
0.0215159
-0.0260491
0.00786286
0.0153326
0.00617527
0.0229124
0.0232013
0.000179105
0.0270049
0.0251607
0.0154166
0.0242635
0.0343394
-0.00154804
-0.036039
0.0154025
-0.0300419
0.0434008
0.0364046
0.0433478
0.0601556
0.0249561
-5.01895e-05
3.35517e-05
0.000156705
-0.00014129
-0.0458471
6.82267e-05
0
-0.0358263
0
0
0
0
-0.000168959
0
0
0
0
0
-9.83318e-05
0
3.76612e-05
0
-1.70882e-05
-2.19288e-05
0
0
0
0
4.26638e-05
3.55453e-05
0
-0.0247536
0
0.0264722
0
-0.0609565
0.0139383
-0.0107202
-0.0262971
0.130492
0.0594644
0.0165975
-0.0421028
0.000756686
-0.0492987
-0.0113926
-0.0103496
-0.0889113
-0.00129407
-0.00571437
0.0523856
0.0276626
0.0478201
-0.0739675
0.0436717
0.117376
0.0685755
0.0199936
0.040516
0.0159067
0.0214046
-0.026717
-0.0309844
0.0549345
-0.00842527
-0.00264373
-0.0107186
0.0126281
-0.00783904
0.0124788
0.00828757
-0.000671568
0.0512435
-0.00480821
-0.0409928
0.0188307
0.102106
-0.0587193
0.0267262
0.124459
-0.0702278
0.0887236
0.0378164
-0.0688861
0.0438651
0.00570266
-0.087083
0.0846863
-0.0377125
0.131771
0.0513363
-0.117342
0.130985
0.00600293
-0.111991
0.113908
0.0134495
-0.112789
0.0917741
-0.00289619
0.113205
0.044333
-0.0258053
-0.100372
0.00722469
-0.053353
0.0740081
-0.0243478
-0.0551005
-0.0275678
-0.0566332
-0.0468627
0.0169976
-0.0621399
-0.0352013
0.0435435
-0.0698556
-0.0281068
-0.0468107
-0.0718915
-0.0303346
-0.0425459
-0.0327168
-0.0372792
0
0
0
0
0
0
0
0
0
0
0
0
0
0
0
0
0
0
0
0
0
0
-0.000294174
0
0
0
0
0
0
-1.44173e-06
0
0
0
0
0
0
0
0
0
0
0
0
-1.05728e-05
6.44149e-05
5.22159e-05
0
2.47839e-05
0
0
0
0
0
0
0
0
0
0
0
0
0
0
0
0
0
0.00294578
-0.00262198
-8.57501e-05
0
0
0
0
0
-6.06745e-06
0
0
-0.00603933
0
0.029784
0
0.0186625
0
0
3.6011e-05
-6.56698e-05
6.94234e-06
0
-3.35456e-05
0
0
0
0
0
0
0
0
0
5.12017e-05
-1.88977e-05
0.000113453
0
-9.51088e-05
0
-2.75189e-05
7.85166e-05
-5.28048e-05
0
9.06197e-06
0
0
0
0
1.27313e-05
0
-7.3375e-05
0
-2.62061e-05
-3.23917e-05
0
0
0
0.000158404
-0.000201239
0
0
-0.00063616
0
-0.000205436
0
0
0
0
0
6.54627e-05
0
0
0
0
0
-8.06722e-06
0
9.38547e-06
0
0
0
7.52243e-06
0
0
0
0
0
0
0
0
0.0289244
0.0152315
0.0150414
-0.00491208
0.0153122
-0.012231
-0.000807296
0.00517469
0.0475305
0.0250507
0.0246215
-0.0460532
0.022219
-0.017923
0.0115948
-0.0235189
0.013199
0.0120906
-0.00774827
-0.0284234
-0.0174492
0.00510518
-0.0194205
-0.0114619
-0.00228069
-0.00238056
-0.00699467
-0.0108032
0.0114132
-0.00683874
-0.00967497
-0.00956744
-0.000991979
0.0173764
0.00267868
-0.00550128
-0.00251969
-0.000688372
-0.0141737
0.0201451
0
0
0
0
0
0
0
2.50876e-05
0
0
0
1.51627e-05
-0.127974
-0.112314
3.46732e-05
0
0
0
0
0
0
0
-1.94728e-05
0
0
0
0
-8.64656e-07
0
1.69398e-06
0
8.27396e-07
0
0
0
0
0
0
-0.00557769
0.00435
-0.00701179
-0.00628501
-0.0425368
-0.00377832
0.0272694
-0.0349338
-0.0202109
-0.00134204
-0.0100558
-0.0173928
-0.0134848
0.0087511
-0.021815
0.0147959
0.0159059
0.00453121
-0.00788576
0.00296807
0.0145893
-0.00806346
-0.021511
7.92989e-05
4.68559e-07
0
0
1.5209e-06
6.42497e-05
-9.77441e-06
8.34189e-05
0
-1.92244e-05
0
5.58136e-07
0
-6.71273e-06
0
7.28463e-06
0
0
0
0
0
0
0
0.000121564
0.0473937
0.0331154
0.0020534
-0.000126993
0
1.12874e-07
0
0
-1.26748e-05
0
-7.89172e-07
0
0
3.63107e-05
-4.71394e-05
0
0
0
0
0
0
-2.32597e-05
0.000110478
0
0
0
0
0
0.0846061
0
-0.0112828
0
0
0
0
0
0
0
0
0
0
0.0306191
0
0.0278361
-0.0159122
-0.0177256
-0.0140408
-0.0619762
-0.0929163
0.00661768
-0.140382
-0.0445013
0
0
0
0
0
0
0
-3.54608e-05
-2.0261e-05
2.19058e-05
0
0
0
0
-2.21766e-05
0
0
0
0
0
0
0
0
0
0
0
0
0
0
0
0
0
2.0748e-05
1.34975e-05
-6.81577e-05
0
7.4444e-05
0
0
0
0
0
0
0
0
0
2.23721e-06
0
2.5403e-05
-0.0400619
0.00521903
-0.019242
-0.0808766
-0.00240206
-0.0294056
-0.0392114
-0.00172123
0.0492496
0.0314379
0.0311851
0.00605066
0.0141096
-0.0266372
-0.0271324
-0.046372
-0.00315245
-0.00996595
-0.0354861
0.0180017
0.00457783
0.0211615
0.0266416
0.00296628
0.0255748
0.0232487
0.00420227
0.019938
0.019169
-0.0127031
0.0210796
0.0161185
0.0408792
0.0193169
0.0268853
0.024003
0.0216148
0.0126113
0.00408661
0.0189527
-4.36558e-05
-0.0811919
-0.0529943
0.0161868
-0.0864404
-0.0817416
0.0106936
-0.0951926
-0.0704607
-0.0270882
-0.0601118
-0.0780232
-0.0139805
-0.0268858
-0.0397753
0.0162131
-0.0444863
-0.0398555
-0.0158733
-0.0540152
-0.0119368
-0.0369978
-0.017461
-0.0144979
0.01149
0.002481
-0.0480837
0.0529665
-0.00617603
-0.0578588
0.0486546
-0.0217755
-0.0636915
-0.0296365
-0.0131061
-0.0488024
-0.028131
-0.00301866
-0.0408318
-0.00161427
0.0176038
0.0334113
-0.0151765
-0.0293957
0.0283389
-0.000371366
-0.0819228
-0.033723
-0.00822244
-0.0752221
-0.107066
0.00998542
-0.0799914
-0.0895968
0.0366374
-0.0800718
-0.0834472
-0.00994002
-0.0229075
-0.0489076
-0.0193317
0.0192164
-0.0345419
-0.0116839
-0.0593305
-0.0705014
-0.0186296
0.0455243
-0.0473709
-0.0121126
-0.0502052
-0.0404939
0.00789244
-0.0254982
-0.0337397
0.0224981
0.0467463
-0.00715965
0.0144589
-0.0376205
0.00785926
0.0255955
0.017333
0.0149774
0.0202489
0.0125158
0.018163
0.016126
0.00952545
0.0355644
0.0393786
-0.0144658
0.0349055
0.0446961
-0.0199525
0.0285263
-0.022573
-0.0388414
0.0123103
0.0342065
0.0203558
-9.23788e-05
0
0
0
0
0
0
0
0
0
0
0
0
0
0
0
0
0
2.19397e-05
0
0
0
0
0
-1.30961e-05
0
-5.29427e-05
0
-2.94378e-05
0
0
0
0
0.0382477
0
-0.362308
0.00598287
-0.0298506
0.0317348
0.16706
-0.0325484
-0.126025
-0.033725
0.0367787
0.0716331
-0.0232882
0.0185097
-0.0435085
-0.0237327
-0.00482451
-0.0445718
-0.0548772
-0.0335044
-0.0713045
0.0166386
0.0491105
0.0629238
0.0424136
0.0276059
-0.050749
0.0641356
0.0407663
0.0504541
-0.00291196
-0.00069625
0.0457152
0.0280848
0.0781324
0.0475914
0.0445098
0.0933683
-0.0295452
0.150722
0.0593317
-0.0862639
0.0700269
0.147947
-0.0806346
0.0712867
0.167321
-0.099767
0.123244
0.0600326
0.0815647
0.166298
0.0154808
-0.105963
0.130492
0.0526066
-0.103803
0.132212
0.0275945
-0.112576
0.114339
0.0165172
-0.120991
0.0777898
-0.0136682
-0.109713
0.0323034
-0.0288713
-0.0831229
-0.0132601
-0.0443109
0.040427
-0.0532613
-0.0436126
0.00803382
-0.0777737
-0.0444488
0.0443832
-0.0829191
-0.0376592
0.0651932
-0.0771985
-0.026248
-0.0769018
-0.0500287
-0.00484018
0
0.00156262
0.00105837
0
0
-1.0233e-06
9.97985e-07
0
0
0
0
0
0
0
0
0
-6.87843e-05
0
1.11206e-05
-0.000336037
6.37539e-05
-0.000376592
-0.000256951
-0.000134512
0.000195623
0
-6.60635e-05
0.000142512
0
0.00363431
0.00012684
0
0
0
2.09347e-05
0
5.87181e-05
-0.000101743
-2.9953e-05