/*--------------------------------*- C++ -*----------------------------------*\
  =========                 |
  \\      /  F ield         | OpenFOAM: The Open Source CFD Toolbox
   \\    /   O peration     | Website:  https://openfoam.org
    \\  /    A nd           | Version:  8
     \\/     M anipulation  |
\*---------------------------------------------------------------------------*/
FoamFile
{
    version     2.0;
    format      ascii;
    class       volScalarField;
    location    "21840";
    object      H;
}
// * * * * * * * * * * * * * * * * * * * * * * * * * * * * * * * * * * * * * //

dimensions      [0 1 0 0 0 0 0];

internalField   nonuniform List<scalar> 
526318
(
1.78959
1.74139
1.8115
1.71442
1.77618
1.76753
1.74555
1.68773
1.74304
1.61792
1.61034
1.70607
1.6706
1.69726
1.65584
1.68064
1.67126
1.86102
1.76735
1.80764
1.80485
1.75566
1.53031
1.77288
1.65501
1.51382
1.78908
1.78953
1.79872
1.80119
1.84605
1.86374
1.85736
1.73827
1.7532
1.72602
1.73798
1.83591
1.74032
1.65377
1.73439
1.72808
1.38175
1.43784
1.33791
1.38532
1.36458
1.47266
1.68548
1.55611
1.65172
1.65125
1.60818
1.55241
1.05939
1.30554
1.3034
1.09971
1.82368
1.82017
1.84371
1.79226
1.7542
1.87174
1.87344
1.83676
1.83527
1.8195
1.72881
1.71016
1.83264
1.60106
1.65905
1.55497
1.51452
1.49918
1.6031
1.5981
1.51321
1.53891
1.63313
1.63264
1.58473
1.53804
1.57606
1.62744
1.63545
1.60607
1.56314
1.63875
1.53984
1.48492
1.48135
1.41006
1.41003
1.41379
1.41909
1.40867
1.40689
1.40858
0.845166
0.786261
0.873245
0.911841
0.969003
0.753338
1.31789
1.13237
1.43673
1.4101
1.45099
1.55894
1.80208
1.68475
1.7871
1.80379
1.87293
1.85078
1.88441
1.40518
1.40585
1.40681
1.41807
1.36806
1.40285
1.32171
1.35601
1.26782
1.3218
1.2697
1.27034
1.25709
1.23494
1.22608
1.25477
1.19486
1.2476
1.19923
1.21795
1.16304
1.16828
1.18996
1.21789
1.20341
1.16099
1.16182
1.17764
1.16699
1.16418
1.16889
1.18053
1.16082
1.17059
1.18046
1.16942
1.13831
1.17164
1.15259
1.15401
1.0885
1.18527
1.12192
1.17954
1.67549
1.74853
1.71437
1.69931
1.49259
1.57333
1.50064
1.49361
1.50556
1.49523
1.51842
1.50206
1.43739
1.40571
1.36868
1.31882
1.37337
1.41308
1.41567
1.41516
1.30374
1.35131
1.24308
1.25023
1.26162
1.24743
1.25264
1.25388
1.24452
1.24401
1.23982
1.23053
1.21307
1.23342
1.22612
1.19811
1.18004
1.20755
1.20291
1.17972
1.19889
1.18291
1.19585
1.15152
1.17843
1.19987
1.20891
1.65941
1.65025
1.70599
1.69343
1.65244
1.66518
1.65699
1.52989
1.59371
1.32685
1.29631
1.29878
1.42811
1.53855
1.43537
1.46797
1.48335
1.41152
1.40008
0.905222
0.701344
1.0383
1.24835
0.494974
0.336363
0.632657
0.734927
0.707832
0.695947
1.88167
1.84376
1.89657
1.90271
1.85837
1.85529
1.76065
1.8515
1.68919
1.64059
1.63203
1.63559
1.6351
1.638
1.62061
1.61415
1.5414
1.604
1.41516
1.4733
1.40827
1.41524
0.221552
0.141448
0.606252
0.379599
0.883328
0.823156
0.883224
1.03352
1.41478
1.23169
1.47625
1.46961
1.57801
1.67132
1.79147
1.80377
1.82309
1.81882
1.88418
1.91179
1.38097
1.3869
1.34526
1.31783
1.21548
1.25279
1.1798
1.18864
1.17902
1.1741
1.16298
1.1679
1.09491
1.11708
1.15427
1.18502
1.24416
1.20761
1.17594
1.1674
1.10428
1.09641
1.14162
1.20151
1.12092
1.16003
1.16122
1.13173
1.13217
1.09573
1.0863
1.05414
1.05601
1.05778
1.04679
1.17238
1.20825
1.16896
1.20935
1.57575
1.54371
1.42819
1.51294
1.44129
1.49153
1.50159
1.49316
1.49593
1.50244
1.41826
1.31889
1.25007
1.24219
1.31227
1.25816
1.24131
1.35453
1.24385
1.29333
1.22908
1.23321
1.24174
1.23256
1.24646
1.23838
1.2381
1.24398
1.24182
1.23874
1.24697
1.24198
1.25392
1.25321
1.25359
1.23512
1.24801
1.23131
1.20295
1.20646
1.23232
1.26341
1.25346
1.22932
1.21579
1.23774
1.27964
1.27708
1.29151
1.25473
1.28724
1.30256
1.34083
1.29364
1.30065
1.32607
1.35963
1.49025
1.55635
1.46936
1.48394
1.58033
1.6411
1.55158
1.42016
1.52442
1.42756
1.45235
1.18997
1.13689
1.16499
1.15046
1.27216
1.39881
1.32297
1.38453
1.38973
1.4194
1.39235
0.662581
0.816002
0.970987
0.797312
1.05098
0.927653
0.0669613
0.214294
0.157247
0.0775756
5.19024e-07
0.229104
0.448761
0.700306
0.585341
0.59804
1.89315
1.87698
1.91212
1.90828
1.88139
1.84175
1.79261
1.70766
1.6283
1.64753
1.6217
1.63032
1.60158
1.60568
1.58207
1.58439
1.53383
1.57167
1.49802
1.43837
1.38522
1.34483
0.000948869
0.00107032
0.00107032
0.000663073
0.000651498
0.000731205
0.000572017
0.00107032
0.00107033
0.00107033
0.0616464
0.000466671
0.000812397
0.000468923
0.022135
0.000236518
0.119108
0.220151
0.227477
0.39592
0.849701
0.633829
0.949035
0.922791
1.11994
0.969261
1.33134
1.48733
1.506
1.58964
1.82269
1.71214
1.82988
1.818
1.83676
1.88795
1.90164
1.91075
1.30504
1.30311
1.25651
1.28627
1.22511
1.18805
1.18029
1.17997
1.1742
1.17902
1.13099
1.12591
1.07093
1.08562
1.13983
1.11564
1.08341
1.13307
1.12767
1.14856
1.0556
1.04588
1.06783
1.07825
1.08222
1.03914
1.04514
1.03598
1.04555
1.02667
1.02382
1.32697
1.29933
1.30178
1.30099
1.3209
1.42781
1.38725
1.36589
1.24746
1.29116
1.2768
1.28084
1.18035
1.11648
1.29045
1.40931
1.29169
1.30194
1.27394
1.36403
1.34056
1.4081
1.44224
1.37592
1.35177
1.3913
1.26758
1.23368
1.23953
1.23472
1.15265
1.20967
1.13059
1.08557
1.06587
1.18472
1.18528
1.23092
1.23211
1.22675
1.2332
1.23514
1.23769
1.23045
1.24313
1.23534
1.25231
1.24674
1.25325
1.25333
1.27923
1.26692
1.2934
1.29321
1.24136
1.22979
1.29163
1.27589
1.26188
1.27905
1.26442
1.24901
1.30249
1.27834
1.38512
1.392
1.34462
1.38412
1.39575
1.36303
1.45453
1.4241
1.49385
1.51234
1.53765
1.44389
1.4589
1.4485
1.43747
1.39702
1.38132
1.46146
1.30648
1.29562
1.3352
1.35693
1.03167
1.08423
1.16659
1.28108
1.31971
1.35357
1.25675
1.22546
1.18339
1.1315
0.478448
0.586288
0.860446
0.642743
0.960672
1.03542
0.00482969
0.000960079
0.000973831
0.00085677
0.1335
3.83487e-06
0.526437
0.268031
0.44648
0.424539
0.000766556
0.000551352
0.000138864
0.000388285
0.000437305
0.00101
0.000142729
0.000999779
0.000875493
0.000393403
0.00112735
0.000800978
0.00109819
0.00099233
0.00112723
0.00112724
0.000953323
0.000999494
0.0009727
0.000201819
9.59135e-05
0.000989075
0.000892979
0.0009482
0.00100959
0.000881287
0.00100965
0.000996543
2.65749e-05
0.000931251
1.8938
1.90139
1.92734
1.9085
1.89282
1.81134
1.63499
1.72396
1.60621
1.6171
1.58309
1.58539
1.57349
1.57337
1.57321
1.56489
1.51411
1.4837
1.38715
1.42431
1.28172
1.32485
0.000971225
0.000636742
0.000948563
0.000967574
0.000969466
0.000982262
0.000990975
0.000870723
0.00101
0.000977724
0.000677989
0.000965569
0.000971308
0.000759356
0.000380116
0.000991326
0.000690401
0.00100737
0.000803925
0.000839513
0.000369052
0.000975289
0.000682834
0.000857285
0.00298314
0.152713
0.318611
0.292432
0.359877
0.537452
0.989468
0.792132
1.0083
1.00754
1.30367
1.13756
1.51059
1.4746
1.53553
1.648
1.75315
1.83596
1.85048
1.8283
1.86735
1.90716
1.88267
1.89507
0.00112256
0.000872001
0.000886173
0.000207505
0.000732935
0.000987943
0.00081396
0.000939898
0.000890554
0.000725685
0.000975785
0.00092383
0.000794854
2.99799e-07
0.000880516
0.00101
0.000170373
1.28598
1.28221
1.28579
1.24783
1.17086
1.20749
1.13227
1.12395
1.08958
1.08091
1.03607
1.03793
1.06567
1.06134
1.02302
1.05615
1.05254
1.10277
1.08454
1.08398
1.00442
0.976444
0.975517
1.019
1.02972
1.026
1.00274
1.00984
0.969898
0.957695
0.921488
0.925655
1.5241
1.49103
1.5326
1.54037
1.49341
1.44821
1.61463
1.63507
1.69845
1.70941
1.2579
1.30156
1.35067
1.43728
1.25619
1.20179
1.23747
1.23648
1.07515
1.12749
1.17135
1.06217
1.28344
1.28657
1.2803
1.27265
1.29783
1.2825
1.29667
1.30458
1.1909
1.17729
1.08222
1.16412
1.15759
1.12136
1.06855
1.09267
1.0324
1.05112
1.03121
1.11678
1.18053
1.11181
1.1859
1.23022
1.23198
1.22681
1.23575
1.23615
1.25434
1.24667
1.2638
1.25905
1.2805
1.2746
1.29712
1.29548
1.3014
1.29539
1.30755
1.30282
1.34342
1.31224
1.27929
1.28022
1.3444
1.31546
1.32153
1.36242
1.40503
1.40437
1.40498
1.40351
1.43412
1.48777
1.5467
1.56911
1.57607
1.55421
1.69694
1.63318
1.76016
1.80077
1.79346
1.8293
1.88841
1.75224
1.83739
1.86289
1.93599
1.98444
2.01291
2.03109
2.06156
2.00643
2.06273
2.01943
2.09893
2.09968
2.14914
2.11731
2.18
2.21032
2.19952
2.14854
2.21483
2.23817
2.20493
2.20086
2.26701
2.24379
2.27497
2.21517
2.21454
2.27972
2.2466
2.19878
2.19907
2.23093
2.26358
1.25819
1.21586
1.39007
1.38398
1.35277
1.33737
1.34654
1.11022
1.2423
0.95091
0.976808
1.08511
1.0686
0.940151
1.02484
1.00987
1.18436
1.08577
1.08964
0.994212
0.997727
1.00837
1.02332
0.565657
0.413231
0.831911
0.607706
0.823539
0.767486
0.000916407
8.46075e-05
0.000950228
0.000249595
0.000871396
5.63731e-07
0.120108
0.405753
0.271836
0.335153
0.000224743
0.00069126
0.000943677
0.000831092
0.00142305
0.000453926
0.00012748
0.000146108
0.000949
0.000431299
6.93167e-06
1.61879e-05
0.000990101
0.00093513
0.00100829
0.000592124
0.000911134
0.000410555
0.0010095
0.000980492
0.000959872
0.00101933
0.000715312
0.00101484
0.000974989
0.000909683
0.00101
0.00057983
0.00110058
0.000817287
0.00109813
0.00109978
0.000987002
0.00109314
0.00109576
0.00109373
0.000491
0.000525935
0.000993933
0.000773625
0.000877713
0.00099375
0.000922247
0.000776475
0.0010078
0.000994205
0.000136415
0.000956593
0.000950381
0.000921886
0.000915695
0.000919934
0.000616213
0.00101
0.000623175
0.000968314
1.88401
1.88267
1.83614
1.83606
1.75195
1.83285
1.64763
1.58775
1.57359
1.57335
1.57835
1.5755
1.51349
1.52156
1.3642
1.32554
1.28219
1.45821
1.45258
1.40507
1.40387
1.40793
0.00081225
0.000359391
0.00112377
0.001124
0.000962471
0.000414864
0.00093308
0.000410365
0.00112432
0.000868949
0.000161511
0.00100893
0.000972717
0.000941946
0.000297472
0.000985833
0.000574986
0.00091818
0.000596209
0.000832281
0.382247
0.203736
0.416291
0.409518
0.65401
0.457428
0.853056
1.00848
1.13804
1.00706
1.30039
1.47635
1.5004
1.53602
1.61367
1.71629
1.79236
1.75919
1.8019
1.75372
1.79715
1.83258
1.78599
1.80346
0.00101
0.000865295
0.00100993
0.000849207
0.000924318
0.00119055
0.000760444
0.000802352
0.00119055
0.000964874
0.000981161
0.000996251
1.77598e-10
1.51015e-05
0.00101
0.000411253
6.50111e-40
0.00072123
0.00101
0.000253336
0.000277025
0.000765241
0.00096459
0.000879022
0.00221051
0.00101078
1.25615
1.25934
1.17746
1.19616
1.07335
1.09686
1.03312
1.03502
1.03424
1.03128
1.00848
1.00626
0.980659
0.97998
0.957341
0.995472
1.07403
1.0349
1.07398
1.07224
0.895644
0.916101
0.958406
0.936393
0.948916
0.949497
0.898446
0.890725
0.877467
0.887773
0.89562
0.895544
1.74124
1.74429
1.57423
1.48871
1.479
1.46524
1.74036
1.65497
1.90008
1.97385
1.86937
1.79603
1.98845
1.97071
2.03683
2.08673
2.11806
2.11605
2.14642
2.11757
2.17269
2.20009
2.19435
2.19506
2.21202
2.19816
2.19717
2.24433
2.18784
2.18298
1.31034
1.23612
1.38052
1.45444
1.23492
1.18223
1.23566
1.23433
1.06309
1.1146
0.955003
1.11931
1.00849
1.28336
1.21112
1.28204
1.26979
1.28546
1.17737
1.07271
0.995392
0.983832
0.999501
1.03348
0.961251
0.951638
0.877089
0.964322
1.04752
1.0377
0.959808
1.05911
1.12663
1.07922
1.18152
1.12544
1.17299
1.22207
1.25913
1.23398
1.27132
1.26916
1.28041
1.27135
1.3056
1.31332
1.31255
1.32788
1.33375
1.33331
1.36815
1.38088
1.36982
1.36598
1.36919
1.36029
1.37901
1.39511
1.44327
1.43609
1.40497
1.43489
1.4306
1.46369
1.49436
1.55747
1.5884
1.58435
1.59562
1.66715
1.74814
1.82349
1.83575
1.96459
1.83857
1.88703
2.0374
2.06322
2.0628
2.10004
2.15021
2.19888
2.21143
2.21387
2.24306
2.27007
2.29706
2.2957
2.29518
2.29659
2.29567
2.27653
2.21109
2.27633
2.24422
2.19777
2.19693
2.23061
2.26159
2.27136
2.19926
2.26131
2.21858
1.04354
1.04087
1.10563
1.18069
1.07862
1.14454
1.27713
1.21496
1.24212
1.07547
0.979387
0.944108
0.941074
1.04698
1.0383
0.696378
0.810829
0.993586
0.883962
0.995052
0.992272
1.00139
0.995786
1.01374
1.02478
0.219708
0.38518
0.465424
0.654197
0.674646
0.664229
0.00086849
0.000172666
0.000348616
0.00101
0.00113384
2.17813e-05
0.0169662
0.000916487
0.13094
0.00101256
0.000515202
0.00142268
0.000928609
0.00101
0.00081637
0.000660221
0.000998234
0.000701989
0.000938544
0.000874495
0.0010517
0.000942103
0.000791252
0.000751098
0.000990039
7.57449e-05
0.00099613
0.000976554
0.000151024
0.00055227
0.000544652
0.000936558
0.000861569
0.000977295
0.000840254
0.00100349
0.000978339
0.000944855
0.000974885
0.00092222
0.000207016
0.000979907
0.000919067
0.00101
0.000732523
0.00100962
0.000641972
0.000367709
0.000916152
0.000960434
0.000966563
0.000892128
0.000571791
0.000479733
1.78637
1.77806
1.74861
1.77017
1.70871
1.77092
1.56959
1.64683
1.54115
1.53883
1.47829
1.45964
1.40255
1.40699
1.32095
1.21965
1.19348
1.36603
1.4061
1.40814
1.41184
1.40377
0.00112397
0.000958748
0.00112377
0.00091718
0.000973634
0.000973647
0.00094649
0.000972052
0.00100548
0.000830393
0.000135327
0.000443538
0.00093376
0.000997208
0.00060297
0.00100999
0.000906931
2.06716e-05
0.000159024
0.0941465
0.269403
0.412798
0.47629
0.428806
0.637287
0.82026
0.969422
1.01016
1.20313
1.03189
1.34098
1.46776
1.45325
1.55544
1.72363
1.62996
1.70489
1.69717
1.69478
1.72308
1.78235
1.78282
1.78109
1.7498
0.000769413
0.000922585
0.000563688
0.000958878
0.000712787
0.000933944
0.000627141
0.000452485
0.000821791
0.000879841
0.000957505
0.000856862
0.000968979
3.88215e-28
0.000922039
0.000873917
0.00096514
0.000987798
0.000743529
0.00100999
0.000468733
3.64694e-12
0.0020736
0.000901385
0.00101
0.000860782
0.000668131
0.000489708
0.000816537
1.60794e-24
0.00098545
1.13232
1.13279
1.09778
1.07594
1.0339
1.05432
1.0178
1.02241
1.17559
1.11869
1.0962
0.950386
0.956295
0.888603
0.892667
0.956759
0.957328
0.948231
0.987671
1.04753
1.00025
1.03502
1.01975
0.916957
0.897089
0.910713
0.930157
0.858098
0.856104
0.857706
0.868732
0.884046
0.873753
0.83844
0.845814
2.31724
2.32368
2.35349
2.33326
2.37507
2.36123
2.38719
2.3761
2.43174
2.42026
2.38672
2.43774
2.40368
2.45482
2.2883
2.24006
2.25952
2.30806
2.29043
2.26053
2.26396
2.31487
2.32057
2.29427
2.27701
2.32762
2.31303
2.3235
2.34567
2.1975
2.19657
2.19709
2.19658
2.21633
2.23772
1.78837
1.73543
1.63372
1.53878
1.45273
1.52894
1.72572
1.70966
1.94628
1.9695
1.85633
1.93731
1.97685
2.02647
2.07353
2.11679
2.1132
2.11618
2.11165
2.14327
2.15501
2.18187
2.168
2.17106
2.17451
2.18394
2.16188
2.1616
1.35888
1.28756
1.22902
1.21896
1.27524
1.4536
1.4312
1.15863
1.21295
1.08589
1.0187
2.30561
2.32428
2.34255
2.34886
2.35216
2.36296
2.3666
2.3938
2.37897
2.39568
2.39534
2.44436
2.46355
2.49211
2.49014
2.49588
2.51099
2.53046
1.00328
0.939151
0.947778
1.21065
1.09265
1.25691
1.17246
1.07977
0.981704
0.98881
0.982502
0.985979
0.835276
0.914777
0.769404
0.786312
0.869023
0.788788
1.05561
0.981573
0.88051
1.07304
1.07777
1.07487
1.12857
1.0914
1.21307
1.15744
1.24391
1.21491
1.24551
1.27004
1.29574
1.31679
1.34019
1.34073
1.34881
1.34389
1.39999
1.38716
1.38143
1.38062
1.43244
1.40647
1.47756
1.43707
1.41936
1.46194
1.50711
1.49691
1.52006
1.55562
1.5563
1.50186
1.61017
1.63694
1.60623
1.59969
1.67883
1.76532
1.83581
1.90642
1.85416
1.8676
1.99657
2.05786
2.09956
2.08152
2.14699
2.17778
2.2194
2.23601
2.23048
2.2489
2.30585
2.28775
2.29783
2.3082
2.29873
2.29536
2.29512
2.29601
2.29514
2.29483
2.29375
1.03208
1.01834
1.04542
0.963431
0.989985
1.00283
0.942326
1.08267
0.983009
0.918456
0.938542
0.917744
0.819326
0.923262
0.941117
0.723202
0.717425
0.665575
0.781387
0.995429
0.88496
0.892421
0.890598
0.679403
0.575687
0.378835
0.384912
0.304713
0.133702
0.126706
0.671358
0.488667
0.652172
0.649721
0.000776109
0.00096702
0.000896738
0.000998449
9.17652e-05
0.000888291
0.00100984
7.34022e-08
0.127866
0.000547769
0.000398457
0.000668916
0.00101
0.000330569
0.000740386
1.30863e-22
1.03714e-14
0.00240697
0.000379096
0.000850418
0.000694792
0.000545923
0.000997667
0.0003892
0.00100993
0.000972649
0.000977525
0.000963111
0.000999516
0.00075433
0.00101168
0.000953765
0.000757065
0.000971465
0.000559367
0.00101208
0.00089779
0.000955844
0.000631827
0.000258775
0.000715607
0.000964465
0.000941166
0.000838222
0.00101
0.000334973
0.000769708
0.000685233
0.000978177
0.000925692
0.000935309
0.000871371
0.00091709
0.000695524
0.000567275
0.00219958
0.000154752
0.000674617
0.000835469
0.000871147
0.00219955
2.49342
2.45332
2.41752
2.52744
2.56179
2.5568
1.77027
1.76696
1.76473
1.76926
1.67707
1.74296
1.57055
1.49305
1.41978
1.43501
1.41061
1.41505
1.4001
1.4037
1.28323
1.20396
1.29359
1.37164
1.37544
0.00093523
0.000765659
0.000875173
0.000890082
0.000922295
0.0009764
0.000965395
0.000493094
0.000931051
0.000554111
0.00100943
0.000959595
0.000969088
0.972987
1.00181
1.03719
0.000369691
0.000396475
0.000302862
0.000821616
0.264266
0.139502
0.435262
0.465798
0.629324
0.493317
0.800787
1.17151
1.32152
1.43274
1.42392
1.72741
1.66095
1.68057
1.46132
1.56034
1.65521
1.70572
1.7026
1.69589
1.71564
1.75534
1.74432
0.000676039
0.00118269
0.000629706
0.000982796
0.000704864
0.000720222
0.00100904
0.000845157
0.000694048
0.000865554
0.000823186
0.000932446
0.000763197
0.000831138
0.000896425
0.000464554
0.000627663
0.00100504
0.000978863
0.000935387
0.000938185
0.000682923
0.000677014
0.000937995
0.000997599
0.000978674
0.000347723
0.000953032
0.000978459
0.000973622
0.00101
0.00100979
0.000838321
0.000978065
0.000644837
0.000954507
0.000811322
1.13051
1.16617
1.15676
1.09697
1.09672
1.06933
1.09035
0.959494
0.985163
0.896684
0.898156
1.10322
1.08952
0.852217
0.850007
0.851232
0.856666
0.907034
0.887769
0.925968
0.870956
0.994507
0.945134
0.992899
1.00323
0.838487
0.796869
0.818068
0.845543
0.821581
0.825132
0.762271
0.801494
0.782391
0.763037
0.741836
0.744728
2.31986
2.33346
2.35571
2.37571
2.37649
2.38291
2.42286
2.40274
2.25256
2.25154
2.23623
2.25714
2.28786
2.2513
2.29061
2.27222
2.18425
2.17238
2.17177
2.20283
2.23311
2.20691
1.79448
1.71806
1.61525
1.70393
1.55299
1.46436
1.71551
1.715
1.95278
1.9557
1.97133
1.86811
1.94518
2.05981
2.00398
1.94713
1.99013
2.09064
2.10548
2.0953
2.10277
2.10995
2.13364
2.16017
2.15018
2.15974
2.1601
2.15972
2.15972
2.16029
2.15992
1.20128
1.20512
1.34638
1.42736
1.20531
1.28585
1.44498
1.46096
1.19406
1.13634
1.04629
1.11312
2.33658
2.2957
2.31233
2.3597
2.35548
2.35696
2.36861
2.38905
2.41183
2.42006
2.42243
2.42762
2.45223
2.49307
2.47385
2.49174
2.50921
2.56107
2.53524
2.36481
2.37352
2.39033
2.56212
2.56598
2.55326
0.949489
0.949685
0.939456
0.91099
1.02048
1.02333
0.836962
0.867867
0.903488
0.794566
0.830654
0.831622
0.766725
0.761967
0.766011
0.769774
0.796839
0.828205
0.933029
0.858817
0.860742
1.00155
1.07643
0.996139
1.15297
1.17456
1.11202
1.14639
1.20947
1.17774
1.30177
1.24731
1.31662
1.33002
1.34094
1.32963
1.38088
1.41906
1.45726
1.45684
1.46261
1.44748
1.47443
1.45614
1.50469
1.50849
1.53153
1.53275
1.50903
1.50921
1.62783
1.67562
1.57331
1.63668
1.68279
1.64839
1.74564
1.79504
1.89074
1.93052
1.90951
1.99808
2.05571
2.15267
2.14025
2.19919
2.17264
2.26841
2.27438
2.2674
2.29676
2.32518
2.32352
2.37994
2.3439
2.37242
2.33416
2.33286
2.37027
2.29962
2.33696
2.29865
0.396678
0.712752
0.403028
0.682358
0.957331
0.939282
0.944213
0.921943
0.938561
0.792208
0.692187
0.68509
0.586463
0.785198
0.662835
0.689301
0.807461
0.0709957
0.0730088
0.445113
0.575837
0.574192
0.362975
0.250703
0.250093
0.0328883
0.0435882
0.0565353
0.12707
0.127326
0.0329945
0.211799
0.115231
0.37231
0.160252
0.0912984
0.0010004
0.000112849
0.00044385
0.000919656
5.36441e-19
0.000297927
0.00225564
2.56336e-07
0.00100073
0.0111479
0.0009581
0.000364482
0.00101
0.000172236
0.000992079
0.00220795
0.00097449
0.000134455
0.00096781
0.00100982
0.00138779
0.000336682
0.00100983
0.000979813
0.000465046
0.000983408
0.00101
0.000808151
0.00101175
0.00101181
0.000896998
0.000917166
0.00101184
0.00101189
0.000955402
0.000686228
0.000711032
0.000919589
0.00171242
5.8272e-05
0.00171233
0.000734443
0.00098702
0.000966821
0.00099923
0.00100984
0.00101
0.00100994
0.000799141
0.000805878
0.000827454
1.20946e-05
9.12481e-06
0
0.00090453
0.000799517
0.000430028
0.000825255
0.00138775
0.000898711
0.00100958
0.00100997
0.000681893
0.000998553
0.000946811
0.000914726
0.00101
2.46195
2.44954
2.45712
2.4615
2.48711
2.59659
2.59341
2.58546
2.61959
2.54341
1.67353
1.66276
1.58303
1.59171
1.55704
1.58817
1.50555
1.46018
1.43431
1.40173
1.38362
1.3892
1.29197
1.30361
1.17217
1.212
1.21422
0.000529692
0.000965684
0.000913493
0.00101
0.000949844
0.000924031
0.000585991
1.00653
1.14685
1.00378
2.83399e-05
0.000191265
0.000772147
0.000979614
0.869176
0.708702
0.0412213
0.000987812
0.0681438
0.178055
0.472905
0.327049
0.505256
0.507877
0.536492
1.5532
1.53741
1.58748
1.2872
1.42599
1.43126
1.46013
1.58003
1.66039
1.60012
1.52803
1.60049
1.62711
1.62068
1.56846
1.57863
0.000957717
0.000978883
0.00118272
0.00101
0.000630818
0.000823908
0.00101
0.00115604
0.000802903
0.000412699
0.000160682
0.000986054
0.000875008
0.000698776
6.65039e-05
0.000970585
1.80347e-05
1.40765e-06
0.000982444
0.00101
0.000771965
0.000895476
0.000833864
0.000976221
0.00092185
0.00100577
0
0
0
0.00065666
0.000752837
0.00101
0.00100563
0.000944429
0.000473953
0.000911195
0.000978965
0.000968087
0.00097325
0.000338297
0.00093345
0.000914242
3.25382e-05
0.000822171
2.23599e-07
1.1471
1.16121
1.16857
1.03539
1.05934
1.01797
1.01843
0.946317
0.937519
0.852644
0.860972
0.851296
0.850663
0.951538
0.945374
0.799335
0.795983
0.76333
0.738888
0.836613
0.831156
0.853802
0.907854
0.989098
0.952875
1.01969
0.973592
0.777101
0.750642
0.809377
0.830876
0.704319
0.702847
0.675508
0.697875
0.740512
0.71967
0.742612
0.74719
2.32701
2.27655
2.36258
2.32128
2.3277
2.38641
2.3506
2.41802
2.36832
2.44075
2.38125
2.36901
2.45042
2.40251
2.21904
2.21764
2.20967
2.22149
2.23624
2.24707
2.24663
2.25834
2.16018
2.15987
2.18362
2.16856
2.19978
2.20689
1.79707
1.72028
1.64088
1.71666
1.51344
1.60587
1.71667
1.72255
1.94543
1.94556
1.94768
1.87644
2.03448
2.08302
1.99329
1.9457
2.08933
2.08815
2.10345
2.08858
2.12557
2.1491
2.15672
2.15765
2.15777
2.15476
2.16039
2.16049
2.15836
2.15506
1.20019
1.19409
1.36491
1.44067
1.34162
1.26013
1.49775
1.44093
1.17022
1.19466
1.16466
1.08185
2.33611
2.37093
2.35494
2.37945
2.39604
2.38465
2.42141
2.43106
2.41014
2.42193
2.41189
2.42293
2.42761
2.45128
2.4696
2.49227
2.49078
2.54393
2.52244
2.57434
2.57883
2.44587
2.458
2.57851
2.58826
0.691981
0.847392
0.705049
0.821206
0.737166
0.710261
0.675142
0.645911
0.664807
0.703286
0.59828
0.6455
0.648693
0.546198
0.600433
0.742799
0.858833
0.776554
0.865754
0.86894
0.857914
0.926954
1.07407
0.982975
1.16246
1.16939
1.12911
1.08485
1.20429
1.24482
1.30393
1.29038
1.31597
1.30441
1.4258
1.37287
1.47614
1.46519
1.49214
1.4955
1.47364
1.5266
1.57162
1.5441
1.52746
1.55489
1.6053
1.59093
1.57211
1.61436
1.69814
1.69944
1.69376
1.71213
1.84454
1.75694
1.92727
1.95596
1.95381
2.02427
2.09756
2.17602
2.1825
2.19562
2.24175
2.29068
2.32591
2.32623
2.36393
2.33847
2.39131
2.40534
2.40763
2.406
2.40786
2.4061
2.37343
2.40652
2.37352
0.0550604
0.048077
0.0681654
0.0346074
0.345188
0.6469
0.344314
0.814223
0.680207
0.685574
0.539746
0.549621
0.555763
0.550452
0.555595
0.553918
0.548456
0.545582
0.561366
0.0682485
0.0578223
0.0005566
0.000360975
0.0311609
0.000844238
0.0367161
0.0348449
0.00507237
0.0155588
0.000828062
0.00102349
0.000501817
0.000773736
2.58782e-06
0.000703311
0.00204879
1.09082e-07
0.000959982
0.00100986
0.000887496
0.000962023
0.000987812
0.00189385
0.000983271
7.644e-07
1.36216e-05
0.000607696
6.02172e-07
0.000988249
0.000479144
0.000826696
0.000961729
0.00100941
0.00031059
3.071e-05
0.000987756
0.00100992
0.000817418
0.000560979
0.00060855
0.00101
0.000799183
0.000980343
0.000279366
0.000905419
0.000941315
0.000777968
0.0010008
0.000939674
0.000880492
0.000886752
0.00100949
0.00097168
0.000773375
0.000984106
0.000952799
0.000420242
0.00098992
0.000934564
0.000964099
0.000974876
0.000974485
0.00101
0.00099424
0.000905098
0.000464111
0
0
0
0
0
0
0
0
0
0
0
0
0
0
0
0
0
0
0
0.00099334
0.000868756
0.000937661
0.000812305
0.000920623
0.000434354
0.000930589
0.00106263
0.000325168
0.000811332
0.000989834
0.000885277
2.62569
2.62407
2.63311
2.59718
2.64248
2.6389
2.48324
2.47815
2.5554
2.50935
2.60939
2.64766
2.61316
2.49842
2.45534
1.53634
1.53814
1.55443
1.52558
1.54565
1.47395
1.51632
1.30415
1.35992
1.22273
1.22801
1.17443
1.17007
1.17233
4.53839e-05
0.000617054
0.000495047
0.000982711
0.978169
1.17083
1.00453
0.000948865
0.000925054
0.95743
0.851199
0.000995385
0.0103963
0.000728012
0.000437349
0.548394
0.690244
0.0762081
0.0770773
0.220277
0.0749704
0.513341
0.363692
0.514095
1.53361
1.5419
1.53304
1.54115
1.54516
1.25468
1.36955
1.31283
1.43599
1.49571
1.52077
1.45719
1.54152
1.48773
1.48779
1.46908
0.000121536
0.00023346
0.000974368
0.000929622
9.03786e-05
8.44859e-05
0.000882206
0.000307419
0.000819845
0.000852266
0.000529383
0.000931702
0.000105169
0.00093288
0.000573511
0.0699144
0.0792476
0.0218463
0.000453662
0.000826621
0.0208376
0.000988875
0.000740767
0.000908685
0.000621516
0.00100955
0.000627569
0.000973579
0.000348921
2.15212e-05
0
0
0
0
0
0.000965035
0.0010622
0.000978274
0.00106224
0.000270827
0.000676925
1.04117e-08
0.000169984
0.000427501
0.000793227
0.000542817
0.000953825
0.000281881
0.000866524
0.000162724
0.0627119
0
0
0
0
0
0
1.14602
1.07479
1.06533
0.995401
0.983999
0.906061
0.889219
0.881259
0.881104
0.872719
0.880639
0.813261
0.822196
0.744273
0.733903
0.880399
0.8864
0.675883
0.665367
0.670786
0.677713
0.952529
1.01634
0.935736
0.827397
0.812151
0.886931
0.818748
0.904532
0.744843
0.715671
0.772335
0.730066
0.678019
0.678613
0.670094
0.690894
0.689381
0.660878
0.653404
0.636788
2.27095
2.28117
2.28426
2.28005
2.30414
2.27227
2.35727
2.39896
2.3574
2.35166
2.44335
2.38788
2.36586
2.20787
2.20835
2.23433
2.22341
2.24415
2.24873
2.27202
2.25726
2.16078
2.16784
2.19102
2.17556
2.1908
2.19779
1.83638
1.75954
1.683
1.71937
1.66728
1.57331
1.75497
1.7198
1.9514
1.94966
1.9126
1.95453
2.04175
2.09068
1.95317
1.99889
2.09175
2.09091
2.11369
2.09254
2.13354
2.15318
2.15157
2.1518
2.15238
2.15251
2.15786
2.15615
2.15368
2.15361
1.19103
1.25352
1.44024
1.41845
1.33833
1.42333
1.44357
1.51809
1.18657
1.18046
1.17599
1.09377
0.931247
0.976234
1.05691
2.40422
2.40824
2.43481
2.42553
2.4492
2.46225
2.46215
2.4606
2.49788
2.47774
2.49032
2.45434
2.48726
2.49822
2.52253
2.54248
2.55628
2.55026
2.60603
2.60526
2.63321
2.60799
2.51741
2.5231
2.64624
2.64078
0.476741
0.535896
0.401712
0.644364
0.553205
0.63757
0.645483
0.633601
0.560119
0.486667
0.422768
0.427101
0.453172
0.510898
0.679275
0.587892
0.559169
0.767348
0.918419
0.878
0.730342
0.971397
1.01124
1.02838
1.01333
1.1142
1.18282
1.06253
1.28796
1.22352
1.29596
1.30119
1.3916
1.32888
1.45277
1.48476
1.48046
1.48716
1.60805
1.57361
1.54453
1.59579
1.62097
1.61498
1.60689
1.59891
1.61401
1.6126
1.69684
1.73602
1.77591
1.73061
1.77464
1.80316
1.9431
1.87298
1.96618
1.95701
2.03496
2.11374
2.19816
2.1951
2.22971
2.26776
2.34331
2.33143
2.35456
2.35968
2.38868
2.39764
2.4181
2.40933
2.42289
2.41685
2.40653
2.41994
2.40477
2.40614
0.000101092
0.000960218
0.0218953
0.00269297
0.00195182
0.0228936
0.00342904
0.179725
0.00134564
0.547335
0.564576
0.0925858
0.289666
0.550309
0.555561
0.551739
0.556182
0.547211
0.553279
0.490022
0.380633
0.000969431
0.000840974
0.000929073
0.00010945
0.000929424
0.000752195
0.000855343
0.000865478
0.000652424
0.000624923
0.00101
0.000209386
0.000613088
0.00100863
0.00184296
0.000987832
0.000918269
0.00098372
0.00369356
1.64929e-05
0.000210438
0.00024578
0.00100974
0.00081637
6.39222e-09
0.000980809
0.00100983
0.000216105
0.000848872
0.00100647
0.000131712
0.00100976
0.000959372
0.000148949
0.000986414
0.000975827
0.000992903
0.00360388
0.000980885
0.00062664
0.00098777
0.000776699
0.000611031
0.0013308
0.00133074
0.00133075
0.000900202
0.000946957
0.000832782
0.000987787
0.000948013
0.000941776
0.000961192
0.000871734
0.000897996
0.000947049
0.000951887
0.000925848
1.67713e-05
0.000881191
0.00092376
0.0003855
0.000414352
0.00098456
0
0
0
0
0
0
0
0
0
0
0
0
0
0
0
0
0
0
0
0.000832366
0.000943785
0.00101
0.000948967
0.00168955
0.000621202
0.00104009
0.000872323
0.00101693
0.000868563
0.000669612
0.000991424
2.6535
2.67739
2.68205
2.64922
2.64903
2.62856
2.6401
2.51342
2.52013
2.55882
2.57783
2.57781
2.61735
2.65417
2.48478
2.50808
2.43207
2.47541
2.46851
1.5176
1.53437
1.44193
1.40071
1.5038
1.43428
1.43897
1.30519
1.33674
1.19897
1.17146
1.16955
1.17449
1.14975
0.000888564
0.000174735
1.08989
1.19732
0.976066
0.000919421
0.00047511
0.932144
0.927584
0.000742498
0.000763681
0.666615
0.802775
0.0395194
0.112859
0.0487065
0.00720051
0.52638
0.535519
0.127869
0.156992
0.197925
0.301264
0.455302
1.49275
1.5513
1.51231
1.4902
1.25733
1.26274
1.28517
1.34516
1.47057
1.47092
1.42358
1.46031
1.47324
0.00141405
0.000256476
0.000783608
0.00955413
0.0272153
0.0496454
0.0620798
0.0577043
0.0571826
0.0896172
0.104236
0.130423
0.131539
0.142822
0.181334
0.224084
0.178675
0.261054
0.222251
0.175074
0.208576
0.217643
0.226858
0.000995064
0.000829077
0.00106228
0.000570634
0.00039799
0.00101
0.000981855
3.7271e-05
0.000733696
0
0
0
0
0
0.000500823
0.000887854
0.000776104
0.00053316
0.04852
0.0786582
0.158331
0.177535
0.24631
0.135649
0.000587414
0.00038146
0.337934
0.225243
0.263678
0.295262
0
0
0
0
0
0
0
0
0
0
1.06369
0.982026
0.980887
0.920866
0.922709
0.897381
0.911511
0.882856
0.92309
0.848461
0.849876
0.760019
0.77576
0.685167
0.682904
0.655275
0.656468
0.80436
0.777091
0.662005
0.653725
0.655787
0.649785
0.874791
0.921114
0.760013
0.732838
0.803701
0.920798
0.979503
0.938118
0.66548
0.62068
0.686926
0.714126
0.61076
0.595349
0.584786
0.552252
0.583677
0.555594
0.579803
0.599078
2.33219
2.27096
2.37532
2.29846
2.27149
2.32161
2.33305
2.3332
2.35229
2.40086
2.34398
2.42599
2.39899
2.46063
2.18977
2.21074
2.20849
2.22903
2.21138
2.23784
2.25482
2.23109
2.15678
2.16514
2.1729
2.18058
2.17979
2.18035
1.89048
1.8129
1.70275
1.72099
1.62476
1.71503
1.72706
1.78274
1.9564
1.9587
1.95679
1.93731
2.04767
2.09432
2.01362
1.96912
2.09398
2.09517
2.10064
2.12056
2.15108
2.13925
2.1515
2.15131
2.1518
2.15273
2.15395
2.15468
2.15378
2.15359
1.27496
1.17886
1.44872
1.45079
1.36086
1.45648
1.45436
1.55408
1.1762
1.17581
1.15397
1.13816
1.08047
1.17565
2.41728
2.4363
2.45558
2.49101
2.4856
2.5067
2.51959
2.5282
2.53579
2.52386
2.53224
2.55372
2.57099
2.58758
2.5861
2.59805
2.62029
2.63929
2.64906
2.6509
2.66239
2.53501
2.52386
2.68501
2.69956
0.270836
0.328954
0.311495
0.37698
0.517296
0.584979