/*--------------------------------*- C++ -*----------------------------------*\
  =========                 |
  \\      /  F ield         | OpenFOAM: The Open Source CFD Toolbox
   \\    /   O peration     | Website:  https://openfoam.org
    \\  /    A nd           | Version:  8
     \\/     M anipulation  |
\*---------------------------------------------------------------------------*/
FoamFile
{
    version     2.0;
    format      ascii;
    class       volScalarField;
    location    "21840";
    object      nut;
}
// * * * * * * * * * * * * * * * * * * * * * * * * * * * * * * * * * * * * * //

dimensions      [0 2 -1 0 0 0 0];

internalField   nonuniform List<scalar> 
526318
(
0.00033
0.000314647
0.00012248
0.000498771
0.000467925
1.74601e-05
0.000390457
0.000331103
0.00032192
0.000268625
0.000271747
0.000219933
0.000290215
0.000416731
0.000387762
0.000428098
0.000286717
0.000208405
0.000185413
0.000284888
0.000562402
0.00061624
0.000380452
0.000454166
9.27058e-05
0.000300693
0.000464936
0.000588638
0.00023495
0.000158383
0.000382115
0.000244015
0.000322838
0.000612038
0.000204753
0.000669007
0.000696807
0.000292867
0.000310882
0.00025636
0.000578354
0.000470564
0.000303783
0.000217881
0.000202107
0.000222997
0.000146042
0.000363082
0.000537612
0.000147691
0.000318553
0.000406907
0.000214234
0.000344151
0.000100927
0.000244863
0.000250453
0.000242284
0.000303884
0.000260915
0.000482992
0.000417488
0.000276825
0.000100067
0.000374733
0.000484388
0.000317894
0.000519573
0.000303023
0.000467445
0.000191109
0.000138441
9.99504e-05
0.000440526
0.000300859
0.000222479
0.000306739
0.000303608
0.000426628
4.04075e-05
0.000377036
0.00041199
0.000378644
0.000504131
0.000341077
0.000262595
0.000373659
0.000206637
0.00025482
0.000424721
0.000353825
0.000154491
0.000222168
0.000287371
0.000225201
0.000316214
0.000347092
0.000309808
0.000318128
0.000242116
0.00012986
0.000294438
0.000229584
0.000223583
0.000120932
4.85609e-05
0.000213672
0.000197209
0.000214216
0.000268799
0.000212242
0.000197128
0.000507556
0.000242275
0.00015768
0.000369136
0.000347007
0.000186162
0.000189704
0.000207406
0.00026445
0.000212682
0.000271855
0.000159256
0.000209297
0.000165212
0.000212423
8.62664e-05
0.000148149
0.000107061
0.000111995
6.7094e-05
0.000129336
5.81862e-05
8.02892e-05
6.26181e-05
4.3405e-05
9.66126e-05
7.0881e-05
6.64295e-05
7.966e-05
9.22171e-05
3.79413e-05
5.17983e-05
6.73532e-05
8.36737e-05
0.000114437
9.38969e-05
0.000203482
2.92022e-05
7.06292e-05
0.000130665
0.000116885
0.000383734
0.000113381
0.000160107
0.000128836
0.00022545
0.000388935
0.000141554
0.000368311
0.000109228
2.42009e-05
0.000230515
6.70094e-05
0.000308196
0.000276235
0.000328122
0.00032151
0.000496131
0.000279591
0.000384256
0.000260435
0.000120259
0.000392827
0.000411979
0.000278427
0.000233267
0.000342447
0.000290218
0.000271806
0.000318503
0.000222032
0.000198573
0.000223478
0.000177034
7.5015e-05
4.75889e-05
8.29581e-05
1.50305e-05
5.3903e-05
6.2851e-05
2.99296e-05
3.78426e-05
9.95835e-05
0.000165503
7.54071e-05
0.000121823
0.000200099
8.90502e-05
0.000112452
0.000540182
0.000181866
5.40777e-05
0.000159306
0.000209285
0.000228799
0.000178571
0.000199602
0.00017927
0.000192928
0.000315097
0.000400136
0.000583872
0.000119131
0.000413458
0.000421442
0.000447656
0.000711758
0.000375506
0.00015848
0.000243579
0.000383215
0.000259337
0.000202318
0.000285889
0.000465129
0.000533127
0.00036819
0.00012644
0.000272052
0.000302805
0.000396097
0.000349275
0.000186076
0.000253266
8.78279e-05
0.000153262
0.0003362
0.000107304
0.000385759
0.000129509
0.000430904
0.000403935
0.000214921
0.000126273
0.000427334
0.000122421
0.00040263
0.000457534
0.00026495
0.000227689
0.000330419
0.00029131
0.000359235
0.000202986
0.000211299
0.000239789
0.000283026
0.00021296
0.000282909
7.62831e-06
4.57886e-05
0.000149178
7.60874e-05
0.000186732
0.00020599
0.000180631
0.000180462
0.000260963
0.000193636
0.000297743
0.000242971
0.000317437
0.000160231
0.000382921
0.000334609
0.000311846
0.000241934
0.000188493
0.000304459
0.000201147
0.000208907
0.000226242
0.000127708
0.000110036
0.00017324
9.26274e-05
0.000129426
8.95201e-05
7.88951e-05
7.50477e-05
8.39525e-05
3.59628e-05
0.000173089
0.000160868
0.000162509
0.000155268
0.00017149
0.000163377
0.000167279
0.000158429
0.00013948
0.000143719
0.000161161
0.000168291
4.46545e-05
8.75592e-05
0.000130029
0.000241563
7.04419e-05
4.82522e-05
0.0001594
0.000152285
0.000133545
8.60914e-05
0.00014087
0.000156875
0.000165558
0.000161158
0.00030089
0.000597836
0.000341733
0.000244496
0.000502508
0.000373058
0.00027557
0.000410411
0.000123829
0.000476996
0.000465927
0.000122681
0.000141747
0.000382565
0.000193382
0.000353335
0.000184528
0.000220852
0.000280138
0.000171711
0.000170559
7.35884e-05
0.000132064
0.000150136
6.98747e-05
9.89733e-05
8.86086e-05
5.19701e-05
0.000112068
7.81343e-05
0.000153882
8.00948e-05
0.000162859
0.00010158
0.000134155
0.000206933
0.000107254
8.76399e-05
6.25056e-05
0.000183868
0.000103786
6.18898e-05
0.000170674
0.000171868
0.000186964
0.000172624
0.000164047
0.000156706
0.000163603
0.000194311
0.000188133
0.000151923
0.000183755
0.000164347
0.000181375
0.000173617
0.000156946
0.00025542
0.000275104
0.000267413
0.00083723
0.00022676
0.000386286
0.00060532
0.000619178
0.000645424
0.000404952
0.000146671
0.000379852
0.000519915
0.0001886
0.000291076
0.00040822
0.000452554
0.00040519
0.000279587
0.000437817
0.000524886
0.000537327
0.000431528
0.000358764
0.000488243
0.00031917
0.000391612
0.000140852
3.28086e-05
0.000112075
3.98484e-05
3.49965e-05
0
0.000180303
0.000303157
0.000265601
0.000457932
0.000799305
0.000124854
0.000160337
0.000295029
0.00048041
9.09686e-05
0.000382875
0.000333544
7.97008e-05
0.000339587
0.000209216
0.000292786
0.000391269
0.000256325
0.000409379
0.000280221
0.000255172
0.000229375
0.000352508
0.000204722
0.000254325
0.00030063
0.000220726
0
1.68393e-11
1.12286e-10
0
0
0
0
8.38068e-11
1.11398e-10
1.57854e-10
1.93836e-05
0
0
0
1.80011e-05
0
5.00831e-05
0.000108495
2.65179e-05
7.51697e-05
0.000134239
0.000133376
0.000208022
0.00022378
0.000230274
0.000213993
0.000279955
0.000215051
0.000277911
0.000265405
0.000401884
0.000253183
0.000391604
0.000182156
0.000354488
0.00046935
0.000330994
0.000284835
0.000224745
0.000170319
0.000159371
0.000194492
0.000177086
0.000131789
0.000107052
0.000129002
8.99073e-05
6.96982e-05
6.96865e-05
8.6842e-05
9.86386e-05
0.000133501
0.000186549
0.000135644
0.000149342
0.000172294
0.00015613
0.0001453
4.38148e-05
8.70021e-05
9.30494e-05
3.2662e-05
8.15328e-05
0.000156292
9.12146e-05
8.9216e-05
0.000101375
2.37345e-05
4.62385e-05
0.000145023
0.000175719
0.000183368
0.000182956
0.000167783
0.000185076
0.000206477
0.000170546
0.000164667
0.000199504
0.000197923
0.000221202
0.000170228
0.000165563
0.000517989
0.000399925
0.000479661
0.000326324
0.000315776
0.000307642
0.000449426
0.000111477
0.000209637
0.000488275
0.000213559
0.000431599
0.000392568
0.000123585
0.000377854
0.000111405
0.000140031
0.000322716
0.000179134
0.000217568
0.000118666
0.000118686
0.000166023
0.000148676
0.000144242
0.000102291
7.81752e-05
0.000190554
9.99167e-05
9.92387e-05
9.73697e-05
7.27455e-05
0.000161638
7.21772e-05
8.94574e-05
0.000184439
0.000121452
9.4633e-05
0.000132824
8.83378e-05
0.000136002
0.000184139
6.48721e-05
0.000136381
0.000156343
0.000185261
0.000197599
0.000131428
0.000176576
0.000153267
0.000140369
0.00015623
0.000150391
0.000156931
0.000133591
0.000163986
0.000211507
0.000158649
0.000200404
0.000244837
0.000211381
0.000455745
0.000293655
0.000420284
0.000712447
0.000583939
0.000788114
0.000713551
0.000499228
0.000438223
0.000542012
0.000498263
8.09581e-05
0.000291417
0.00016664
0.000236678
0.000279046
0.000233098
0.000221905
0.000346285
0.000141534
0.000347718
0.000302348
0.0005074
0.000390193
0.000317828
0.000244711
0.000286015
1.12388e-06
0
0
0
0.00035483
0
0.000834136
0.00111482
0.00060923
0.000336424
0
0
0
0
0
0
0
0
0
0
1.47566e-09
0
1.31673e-10
0
4.84815e-10
1.58401e-09
0
0
0
0
0
0
0
0
0
0
0
0
0
0
0.000139654
0.000216419
0.000188232
0.00017903
0.000408132
0.000459157
0.000259509
0.000344895
0.000223014
0.000297212
0.000373727
0.000226646
0.000279025
0.000238777
0.000266029
0.00032071
0.000349663
0.000291476
0.000216552
0.000314917
0.000235658
0.000211318
0
0
0
0
0
0
0
0
0
0
0
0
0
0
0
0
0
0
0
0
0
0
0
0
3.45391e-07
0.000118819
0.000167038
4.77053e-05
5.29288e-05
8.87969e-05
0.000169926
0.000160474
0.000218296
0.000183577
0.000124535
0.000233396
0.000186494
0.000221936
0.000346224
0.000250272
0.000291854
0.000342133
0.000200829
0.000381697
0.000344112
0.000318318
0.000415825
0.000341898
7.91107e-10
0
0
0
0
0
0
0
0
0
0
0
0
0
0
0
0
0.000205399
0.000184761
0.00018654
0.000171307
0.000147997
0.000160273
0.000120967
0.000131906
9.29595e-05
7.734e-05
7.36418e-05
8.20693e-05
0.000113686
8.43304e-05
0.000131859
0.000128211
0.000182853
0.000128818
0.000159677
0.000186914
8.81837e-05
5.11385e-05
5.29531e-05
0.000101656
6.36933e-05
9.80256e-05
0.000113746
6.47079e-05
4.00737e-05
6.20387e-05
3.6926e-05
6.15805e-05
0.000252316
0.00022368
0.000238408
0.00029845
0.000217134
0.000171626
0.000309826
0.000328233
0.00033677
0.000362457
0.000203989
0.000245311
0.00019468
0.000249429
0.000224249
0.000186997
0.000246215
0.000207976
0.000188128
0.000168275
0.000287003
0.000428195
0.000323863
0.000300468
0.000502792
0.000307125
0.000248607
0.000354863
0.000398454
0.000120385
0.000406658
8.24781e-05
0.000351468
0.000112627
0.000155285
0.000333835
0.00011217
0.000276288
0.00018564
0.000164192
4.95633e-05
6.74134e-05
0.000133577
0.000129055
0.00022388
0.000183248
0.000111065
0.00018125
8.14609e-05
9.61707e-05
0.00012576
4.42321e-05
2.02877e-05
0.000143851
0.000136909
5.22801e-05
6.31145e-05
0.000106006
5.50947e-05
0.00010894
0.000111109
0.000146477
0.000117697
7.53751e-05
0.000159811
0.000178328
0.000106672
0.000161796
0.000138463
0.000173363
0.000121597
0.000142374
0.000132112
0.000149821
0.000151977
0.000177908
0.000219228
0.000243768
0.000291743
0.00030627
0.000364673
0.000342284
0.000391916
0.00038951
0.00040146
0.000437105
0.000462008
0.000425426
0.000419583
0.000412701
0.00043315
0.000464341
0.000458108
0.000509312
0.000461937
0.000522237
0.000518078
0.000584662
0.000566347
0.000497212
0.00056708
0.000627598
0.00061405
0.000588156
0.000544451
0.000649589
0.000593434
0.000614206
0.000654392
0.000651458
0.0006451
0.000665848
0.000623346
0.000624377
0.000595621
0.000664241
0.000598253
0.000571018
0.000545855
0.000552038
0.000629381
0.000530558
0.000561143
0.000435679
0.000234432
0.000167963
0.000234346
0.000314987
0.000383993
0.000296413
0.000304447
0.000255106
0.000160298
0.000305393
3.23487e-05
0.000196483
0.000120402
0.000201629
0.000162368
0.000224752
0.000143668
0.000318017
0.000294176
0.000144459
0.000363006
0.000407502
0.000199731
0.000319679
0.000174409
0.000158798
0
0
0
0
0
0
0.000331027
0.00107126
0.000621967
0.000354348
0
0
0
0
4.75694e-09
0
0
0
0
0
0
0
0
0
0
0
0
0
0
0
0
6.04113e-11
0
5.62035e-11
0
0
0
0
1.05608e-08
0
9.87221e-09
1.66269e-08
0
4.19232e-09
3.66152e-09
1.69881e-08
0
0
0
0
0
0
0
0
0
0
0
0
0
0
0
0
0
0
0
0
0.000399907
0.000156464
5.5413e-05
0.000162259
0.000304199
0.00010619
0.000307739
0.000413514
0.000132046
0.000285798
0.00034801
0.000369421
0.000287728
0.000297841
0.000224002
0.000224141
0.000201589
0.000266555
0.000315118
0.000308689
0.00028985
0.000308384
0
0
6.89717e-10
9.91201e-10
0
0
0
0
1.82609e-09
0
0
0
0
0
0
0
0
0
0
0
0.000117755
0.00012178
3.44989e-05
6.22882e-05
6.84113e-05
7.25735e-05
0.000154277
0.000131611
0.000164626
0.000198104
0.000285759
0.000253164
0.000296074
0.000140091
0.000346016
0.000160676
0.000199678
0.00044803
0.000224596
0.000272453
0.000320371
0.000515174
0.000253715
0.000428639
0
0
0
0
0
1.52606e-11
0
0
9.98815e-12
0
0
0
0
0
0
0
0
0
0
0
0
0
0
0
5.956e-07
6.58667e-07
0.000194368
0.000189632
0.000177349
0.000178533
0.000153277
0.00014818
0.000125475
0.00011991
8.05015e-05
0.000101584
4.92815e-05
0.000115917
9.20125e-05
6.77366e-05
0.000141909
0.000109328
0.00014066
0.000166748
0.000180965
0.000162593
4.67155e-05
8.62552e-05
8.62627e-05
4.48297e-05
2.81353e-05
0.000123495
1.84381e-05
0.000123324
7.53851e-05
4.11997e-05
5.81983e-05
5.14567e-05
0.000397108
0.000377336
0.000266747
0.000235095
0.000245881
0.000195751
0.000355498
0.000332222
0.000492958
0.000490799
0.000455937
0.000435513
0.000552098
0.00055751
0.000635944
0.000622042
0.00065791
0.000670396
0.000663611
0.000663605
0.000621624
0.000619761
0.000555398
0.000552771
0.000532066
0.000520552
0.00053927
0.000575566
0.000523903
0.000523332
0.000259025
0.00020465
0.000209376
0.000265977
0.000166975
0.000214814
0.000211924
0.000202525
0.000166328
0.000173858
0.000371884
0.000439122
0.00019568
0.000477451
0.000170776
0.000205603
0.000195269
0.000535987
0.000445186
0.000141853
0.000115073
0.000354693
0.000349673
0.000177653
0.000224779
0.00028501
0.000226542
0.000153156
0.00014982
0.000137763
0.000121554
0.000143422
0.000189123
0.000136339
0.000153215
0.000203359
0.000170764
5.53674e-05
0.000103783
1.81177e-05
4.27915e-05
0.000111872
9.50685e-05
3.57662e-05
1.49817e-05
6.20566e-05
9.28613e-05
2.0003e-05
3.72305e-05
9.00078e-05
9.69403e-05
8.81787e-05
7.50478e-05
7.78866e-05
0.000154597
0.000126463
9.93226e-05
0.000111066
0.000111928
0.00016298
0.000134822
0.000188684
0.000198226
0.000114468
0.000210751
0.000241379
0.000295167
0.000297646
0.000331434
0.000354957
0.000370222
0.000379812
0.000399438
0.000400486
0.000370428
0.000404091
0.000418674
0.000434889
0.000433622
0.0004894
0.000485464
0.000517516
0.000532717
0.00055312
0.000596175
0.000598771
0.000651859
0.000613911
0.000599833
0.000655257
0.000621033
0.000563176
0.00053282
0.000566494
0.000536179
0.000525772
0.000509387
0.00052797
0.000526382
0.000509485
0.000521931
0.00051763
0.000491933
0.000277457
0.000145473
0.000592837
0.000370453
0.000529154
0.000173267
0.000413203
0.000432773
0.000294458
0.000270703
0.000425458
0.000343255
0.000309802
0.000183977
0.000264738
9.00708e-05
5.4605e-05
0.000105982
4.1227e-05
0.000212402
0.000142304
0.000168511
0.000260212
0.000211206
0.000164585
0.000298452
9.2893e-05
5.56953e-05
0.000102784
9.91449e-05
0.000186974
0
0
0
0
0
0
2.25815e-05
0
0.000323366
1.12494e-06
0
6.98864e-09
0
0
0
0
0
0
0
0
1.32041e-11
0
0
0
0
0
0
0
0
0
0
0
0
0
0
0
0
0
0
0
0
0
0
0
0
0
0
0
0
0
0
0
0
0
0.000395574
0.00027448
0.000289676
0.000234136
0.000121419
0.000390803
0.000291525
0.000229219
0.000319968
0.000351147
0.000254546
0.000306567
0.000243317
0.000288903
0.000205625
0.000228592
0.000188848
0.00027479
0.000238126
0.000268813
0.000370177
0.00029383
8.27102e-10
0
3.58836e-10
0
0
0
0
0
0
0
0
0
0
0
0
0
0
0
0
3.69038e-05
0.000168702
6.75323e-05
5.5979e-05
7.45454e-05
3.09588e-05
9.01237e-05
0.000134774
0.00010864
4.38382e-05
0.000193378
0.000218805
7.8652e-05
0.000201321
0.000324316
0.000135327
0.00035573
0.000373473
0.000359445
0.000399908
0.000197068
0.000519203
0.000529642
0.000274538
0.000257626
0
0
0
0
0
0
0
0
0
0
0
0
0
0
0
0
0
0
0
0
0
0
4.8073e-07
0
0
0
0
0
0
0
0
0.000172181
0.000190336
0.000154174
0.000151624
0.000135536
0.000134232
0.000130839
0.000109416
0.000193226
0.000203981
0.000165057
8.83266e-05
0.000134757
0.000120047
8.39982e-05
9.55617e-05
6.63659e-05
0.000120389
0.000106933
0.000132838
0.000161313
0.000175782
0.000195221
8.36624e-05
5.74737e-05
4.92588e-05
9.76841e-05
8.45347e-05
0.000136214
0.000143375
7.75401e-05
5.69958e-05
8.98802e-05
6.62617e-05
6.76279e-05
0.000382784
0.000531068
0.000461824
0.00051537
0.00051397
0.000527017
0.000548899
0.000615456
0.000486739
0.000497876
0.000433473
0.000608442
0.000436578
0.000539584
0.000505013
0.000492418
0.0004626
0.000496524
0.000510619
0.000499523
0.000448577
0.000489334
0.000552151
0.000448203
0.000434293
0.000492203
0.000526465
0.000469184
0.000463867
0.000529015
0.000531176
0.000515131
0.000528511
0.000516311
0.000483047
0.000419902
0.000385267
0.000295142
0.000260997
0.000220062
0.00026642
0.000366567
0.00033282
0.000522841
0.000527274
0.000462175
0.000502739
0.000611947
0.000624645
0.000688073
0.000666382
0.000697446
0.00066293
0.000644211
0.000608836
0.000588245
0.0005498
0.000549324
0.000517295
0.000522873
0.000532013
0.000537128
0.000518074
0.000245122
0.000198334
0.000157625
0.000205502
0.000201109
0.000253248
0.00021593
0.000190897
0.000226175
0.000231129
0.000189126
0.000534203
0.00052486
0.000532343
0.000550219
0.000529459
0.00053205
0.000559407
0.000554679
0.000565673
0.00052667
0.000570019
0.000568597
0.000551332
0.000600686
0.000585392
0.000623305
0.00060023
0.000418616
0.000479919
0.00019472
0.000480429
0.00041591
0.000173965
0.000135416
0.00045534
7.75824e-05
8.4458e-05
0.000386156
0.000136154
0.000370999
0.000219069
0.000366185
0.000271859
0.000259435
0.000191249
0.000195905
9.17962e-05
0.000182295
0.000147553
0.000168747
3.15837e-05
0.000188576
0.00011223
0.000113177
9.65705e-05
0.000144213
9.08041e-05
6.05569e-05
3.67297e-05
6.62446e-05
6.16231e-05
4.03908e-05
3.76166e-05
8.70011e-05
7.86322e-05
3.37235e-05
8.22584e-05
1.09638e-05
7.30969e-05
5.60294e-05
5.24586e-05
4.09424e-05
0.000128568
7.62205e-05
6.73374e-05
9.09287e-05
8.84399e-05
0.000197172
0.000195264
0.000260567
0.000250808
0.000143053
0.000302535
0.000278615
0.00032115
0.000336707
0.000359518
0.00036292
0.000381386
0.000361128
0.000344782
0.000382095
0.000395439
0.000387613
0.000402933
0.000424726
0.000441939
0.000462627
0.000490328
0.000496268
0.000544392
0.00054159
0.000588405
0.000607368
0.000610121
0.000640227
0.000640467
0.000591134
0.000567749
0.0006059
0.000537565
0.000560783
0.000533897
0.000204518
0.00026799
0.000274524
0.000602897
0.000236195
0.000247557
0.000562496
0.000440478
0.000159415
0.000184663
0.000482706
0.000473901
0.000233426
0.000460269
0.000291932
7.57565e-05
0.000281564
0.000197139
9.14518e-05
9.1574e-05
9.17031e-05
0.00012785
0.000176305
0.000176
0.000137374
0.000124481
8.45042e-05
0.000184675
6.30829e-05
6.12099e-05
0.000100545
0.000295256
6.56044e-05
0.000215751
0
0
0
0
0
0
0
0
6.38706e-05
0
0
0
0
0
0
0
0
2.7987e-07
0
0
0
0
0
0
0
0
0
0
0
0
1.73051e-10
0
0
0
0
2.3275e-09
0
0
0
0
0
0
0
0
0
0
0
0
0
0
0
0
0
0
0
2.06548e-09
0
0
0
0
2.24627e-09
0.00060891
0.000770936
0.000449019
0.000671179
0.000513113
0.000445282
0.000482867
0.000269849
0.000191344
0.000272524
0.000243093
0.000355864
0.000343956
0.000350433
0.000253497
0.00024318
0.000257269
0.000378652
0.00023747
0.000286489
0.000219002
0.00026245
0.000300746
0.000224987
0.000321401
0
0
0
0
0
0
0
0
0
0
0
0
0
0.000103272
0.000140261
0.00012895
0
0
0
0
7.1867e-05
9.7601e-05
8.89795e-05
8.78789e-05
9.33333e-05
5.95765e-05
7.73461e-05
0.00020152
0.000213284
0.000107353
0.000267523
0.000244585
0.000372918
0.000390859
0.000244978
0.000274088
0.000173995
0.000293189
0.000305535
0.000395246
0.000351503
0.000568233
0.000298768
0
2.71183e-10
0
0
0
0
0
0
0
0
0
0
0
0
0
0
0
0
0
0
0
0
0
0
0
0
0
0
0
0
0
0
0
0
0
0
0
0.000180692
0.000220848
0.000231649
0.000135547
0.000164096
0.000119729
0.000127362
0.000119279
9.15009e-05
0.00010121
0.00011441
0.000176559
0.000135861
0.00011201
9.67461e-05
0.000109814
0.000115054
9.31192e-05
8.32878e-05
0.000120761
0.000102179
0.000158741
0.000129102
0.00012707
0.000200536
5.47898e-05
4.66446e-05
7.3018e-05
9.01446e-05
0.000162307
0.000123954
0.00013608
0.00010606
7.51918e-05
0.000120719
4.694e-05
7.97826e-05
0.00054692
0.00044214
0.000421485
0.00042956
0.000632002
0.000389981
0.000760335
0.000777526
0.000443679
0.0004801
0.000483992
0.000427699
0.00043532
0.000462462
0.000414585
0.00040713
0.000530856
0.000525292
0.000517356
0.000512143
0.000472831
0.000509449
0.000447481
0.000375705
0.000284256
0.00031645
0.000278442
0.000247003
0.000313136
0.000371043
0.000564984
0.000596345
0.000641439
0.000482537
0.000549288
0.000675067
0.000685173
0.00066166
0.000681727
0.000722193
0.00067913
0.000686173
0.000622065
0.000622436
0.000563335
0.00054071
0.000588534
0.000536085
0.000574204
0.000523016
0.000524571
0.000549827
0.000527765
0.000220802
0.000167937
0.000219761
0.000227571
0.000216408
0.00020945
0.000240746
0.000238085
0.000235135
0.000208327
0.00018427
0.000235792
0.000566075
0.000568002
0.000556315
0.000574666
0.000571378
0.000569016
0.000591072
0.000578872
0.00058473
0.000603042
0.000574095
0.000611915
0.000628052
0.000579589
0.000614148
0.000590736
0.000545281
0.000603176
0.000624763
0.000612356
0.000615922
0.000603823
0.000587397
0.000604942
0.000219462
0.000510533
0.000563312
0.00021536
0.00015852
0.000506702
0.000100122
0.000392534
5.77294e-05
0.000100383
0.000338321
0.000367597
0.000168757
0.000369803
0.000330715
0.00032935
0.000260222
0.000208031
0.000156175
0.000164899
0.000191129
0.000125237
0.000228852
0.000152081
0.00012478
0.000199509
0.00014469
0.00013012
0.000124083
0.000105383
7.925e-05
0.000124542
7.74397e-05
7.13218e-05
6.33838e-05
3.0114e-05
8.83382e-05
9.10183e-05
6.73585e-05
6.68362e-05
0.000130292
6.50535e-05
4.9623e-05
3.32534e-05
0.000164604
6.14637e-05
0.000155662
0.000110669
5.05143e-05
0.00012096
0.000237854
0.000244188
0.000288278
0.000202579
0.00026517
0.000285314
0.00032254
0.000332233
0.000349056
0.000367966
0.000311439
0.000343409
0.000365715
0.000366554
0.00038794
0.000385708
0.000416753
0.00040801
0.000461889
0.000447197
0.000493084
0.000514099
0.000565816
0.000544782
0.000606669
0.000579944
0.000617258
0.000598915
0.000589133
0.000616599
0.000564571
0.000594817
0.000572693
0.000212485
0.000426093
0.00018665
0.00023754
0.000360813
0.000403707
0.000481445
0.000777596
0.000876078
0.000292244
0.000447324
0.000496969
0.000202284
0.000383264
0.000360481
0.000493259
0.000227153
4.54282e-05
6.95878e-05
9.46529e-05
0.000205732
0.000197463
0.00021074
3.46904e-05
0.00012729
1.28442e-05
1.45655e-05
4.12081e-05
0.000134065
0.00012403
2.81548e-05
0.000100374
0.000118508
0.000284061
0.000148143
6.48787e-05
0
0
0
0
0
0
3.23019e-07
0
0
1.26733e-05
0
0
0
0
0
1.35132e-07
0
0
0
0
1.20547e-09
0
0
0
0
0
0
0
5.62562e-10
2.9293e-10
0
0
1.12054e-09
1.67418e-09
0
0
0
0
2.73745e-09
0
3.51738e-09
0
0
0
0
0
0
0
0
0
0
0
0
0
0
0
0
0
1.30476e-09
0
0
0
0
0
0
0
0
0.000584649
0.000454449
0.00111402
0.00085154
0.000244652
0.000539858
0.000862843
0.000376324
0.000728906
0.000291572
0.000350541
0.000250036
0.000181911
7.67229e-05
0.000281032
0.000325256
0.000396247
0.000265374
0.000195326
0.000380952
0.000192704
0.000367044
0.000280314
0.000290817
0.000269484
0.000222641
0.000265808
0
0
0
0
0
0
0
0.000118052
0.000118328
0.000128413
0
0
0
0
0.000140421
9.01498e-05
3.44932e-05
0
6.20019e-05
8.3667e-05
3.25702e-05
2.44791e-05
8.44866e-05
7.31935e-05
0.000105455
0.00060874
0.000406235
0.000178593
0.000185272
0.000117981
0.000162409
0.000187019
6.55794e-05
0.000659465
0.00015101
0.000281722
0.000423864
0.00028921
0.000156511
0.000150318
0.000397964
0
0
2.56834e-10
0
0
0
0
7.49661e-10
0
0
0
0
0
0
0
0
0
0
0
0
0
0
0
0
0
0
0
0
0
0
0
0
0
0
0
0
0
0
0
0
0
0
0
0
0
0.000200116
0.000228865
0.000227211
0.00015595
0.000176021
0.000104625
0.000131047
9.16777e-05
7.60976e-05
5.74213e-05
6.68618e-05
5.3843e-05
5.60026e-05
0.000137244
0.00011786
6.31879e-05
6.35534e-05
9.42117e-05
8.83627e-05
0.000101136
9.14076e-05
0.000111304
0.000126073
0.00015257
0.000155425
0.000193556
0.000171744
4.54282e-05
7.44468e-05
7.95903e-05
7.95307e-05
0.000109236
0.00014884
0.000149149
0.000110439
8.81291e-05
0.000140843
0.000126629
3.21159e-05
0.000374575
0.000581776
0.000631033
0.00105168
0.000547018
0.000564133
0.00102961
0.00167891
0.000648505
0.00109657
0.00150876
0.000961256
0.000677186
0.000728777
0.000481658
0.000430574
0.000458225
0.000409319
0.00048385
0.000406584
0.000601343
0.000387213
0.000513616
0.000508595
0.000505916
0.000510048
0.000499984
0.000472117
0.000458713
0.000334226
0.00028338
0.000315594
0.000256681
0.000268312
0.000287909
0.000344592
0.000600378
0.000640666
0.000586628
0.000497439
0.000745144
0.000704124
0.000707994
0.000715499
0.000652268
0.000732382
0.000587893
0.00065594
0.000613669
0.000566815
0.000608154
0.000569399
0.00056374
0.00059327
0.000512951
0.000510178
0.000537772
0.000540223
0.000210896
0.000241556
0.000242227
0.000231572
0.000240506
0.000242987
0.000243652
0.000247448
0.000215728
0.00024548
0.000237224
0.00021742
0.000603951
0.000595022
0.000605651
0.000613518
0.000617944
0.000596336
0.000640993
0.000670021
0.000649853
0.000626145
0.000610659
0.000627216
0.000600715
0.000623656
0.000607823
0.000674341
0.000619535
0.00048296
0.000654035
0.000587154
0.000526699
0.000633452
0.000645232
0.000539444
0.000622499
0.000553963
0.00049053
0.000183942
0.000438614
7.54164e-05
4.88266e-05
0.000120109
0.000328729
0.000291068
0.000138679
0.000290783
0.000258455
0.000348944
0.000222692
0.000205126
0.000445872
0.000120228
0.000256978
0.000114429
0.00017026
0.000178551
0.00014796
0.000239503
0.000293915
8.49524e-05
0.000226858
0.000105661
0.000226994
0.000183654
3.36203e-05
0.0001004
9.66612e-05
5.18516e-05
8.12458e-05
4.12345e-05
7.31456e-05
0.000123392
3.46727e-05
0.000151422
0.000166721
8.32023e-05
4.18942e-05
7.48087e-05
8.94062e-06
0.000196067
0.000104345
7.45253e-05
0.000135662
0.000167533
0.000256228
0.000249132
0.000277621
0.000208076
0.000253695
0.000298588
0.000286836
0.000331389
0.000318771
0.000333624
0.00033505
0.000366424
0.000355308
0.000381494
0.000382235
0.000431231
0.000411334
0.000478785
0.000456069
0.000503552
0.000517252
0.000550784
0.000536833
0.000567997
0.00056649
0.000579399
0.000584581
0.000622041
0.00059861
0.000572246
6.58486e-05
3.26406e-05
5.74172e-05
3.19711e-05
0.000288977
0.000507483
9.10323e-05
0.000300296
0.00053622
0.000408204
0.000344531
0.000420045
0.000144001
0.000350296
0.000277137
0.000447933
0.000274291
0.000224204
0.000642189
3.77727e-05
5.621e-06
0
0
1.7564e-05
0
3.49021e-05
9.83601e-06
2.16782e-06
7.10601e-06
0
0
0
0
0
0
2.15747e-07
0
0
0
0
0
0
8.94264e-07
0
0
0
0
0
0
0
0
0
0
0
0
0
0
0
0
0
0
0
0
0
0
0
0
0
0
0
0
0
0
0
0
0
0
0
0
0
0
0
0
0
0
0
0
0
0
0
0
0
0
0
0
0
0
0
0
0
0
0
0
0
0
0
0
0
0
0
0
0
1.33653e-11
0
0
0
0
0.000484996
0.000783285
0.000383516
0.00035859
0.000295002
0.000676012
0.000480956
0.000323688
0.00138529
0.000610162
0.00121142
0.00109164
0.000181807
0.000645472
0.00069083
0.00019315
0.000353049
0.000288756
0.00036603
0.000241659
0.000114251
0.000363908
0.00041807
0.000255166
0.000221287
0.000264142
0.000229309
0.000236818
0.000231106
0
0
0
0
0.000155264
0.00020253
0.000136469
0
0
9.17215e-05
8.20677e-05
0
3.36501e-06
0
0
4.00404e-05
7.68349e-05
1.45658e-05
2.13367e-05
4.46195e-05
2.63995e-05
7.25734e-05
5.55836e-05
5.96608e-05
0.000277601
0.000518812
0.000329749
0.000348151
0.000390895
0.000195332
0.000202087
0.000223993
0.000266714
0.000312941
0.000298313
0.000116312
0.000301649
0.000300089
0.000367741
0.000332185
0
0
0
0
0
0
0
0
0
0
0
0
0
0
0
0.00011339
8.18544e-05
5.03947e-06
0
0
4.11455e-06
0
0
0
0
0
0
0
0
0
0
0
0
0
0
0
1.87397e-09
0
5.83551e-10
0
0
0
0
0
0
0
0
0
0
0
4.60999e-05
0
0
0
0
0
0
0.000219301
0.000219288
0.000170092
0.000150317
0.000184284
0.000119881
0.000129271
7.65042e-05
0.000109106
4.64246e-05
8.90652e-05
2.39617e-05
5.13454e-05
3.57276e-05
4.61661e-05
9.29636e-05
9.37139e-05
4.22404e-05
4.67449e-05
7.38568e-05
6.12456e-05
0.000161341
0.000193114
0.000181734
0.00010538
0.000110231
0.000131041
0.000145766
0.000178179
4.81879e-05
9.59869e-05
7.38138e-05
8.60532e-05
8.56616e-05
0.000103362
0.000147248
0.000103789
0.000106754
0.000158784
6.07412e-05
0.000162979
0.00047777
0.000165888
0.000763641
0.00145043
0.000283899
0.00184493
0.000353298
0.00200623
0.00136258
0.000986901
0.00123035
0.000285456
0.000463079
0.000437663
0.000480492
0.000425452
0.000465619
0.000422727
0.000405391
0.000652636
0.000590785
0.000501729
0.000512502
0.000512737
0.000499793
0.000491912
0.000487238
0.000481375
0.000326485
0.000282221
0.000295654
0.000267503
0.000270047
0.000329129
0.000288748
0.000644369
0.000682285
0.00055891
0.000634087
0.000771924
0.000689218
0.000764932
0.000712088
0.000701432
0.000610564
0.000578299
0.00062876
0.000623331
0.000592794
0.000602273
0.00059148
0.000565612
0.000567308
0.000520783
0.000507917
0.000544803
0.00055061
0.000225863
0.000238238
0.000253863
0.000241343
0.000231884
0.000256769
0.000230422
0.000253281
0.000236876
0.000208762
0.00024463
0.000249026
0.000136872
0.000192043
0.000188862
0.000637232
0.00064073
0.000650953
0.000644224
0.000624053
0.000671583
0.000657507
0.000684098
0.000649221
0.000662101
0.000672198
0.000629373
0.000691663
0.000655906
0.000598257
0.000685881
0.00065197
0.000588586
0.000629564
0.000581831
0.000691553
0.00044608
0.000686446
0.000663555
0.000651574
0.000392723
0.000518303
0.000364975
0.000175024
0.000362575
0.000130414
0.000176569
0.000354191
0.000209797
0.000220792
0.000154065
0.000233891
0.000135517
0.000185572
0.000356783
0.000415286
0.000232844
0.00023555
7.88005e-05
0.000276322
9.07986e-05
0.000187726
0.000101853
0.000267155
0.000346235
2.52501e-05
0.000229866
8.97943e-05
0.000156571
2.73236e-05
0.000221603
7.39087e-05
6.82077e-05
7.61324e-05
9.50692e-05
4.41374e-05
6.74836e-05
7.55655e-05
9.98281e-05
0.000140268
7.76296e-05
9.80867e-05
8.86567e-05
8.6468e-05
5.44602e-05
0.00021338
0.000105581
9.9231e-05
0.000125286
0.000161246
0.000236248
0.000260674
0.00024641
0.000228382
0.000209797
0.000277872
0.000310187
0.000327735
0.0002936
0.000347732
0.000318078
0.000365481
0.000347276
0.000396104
0.000390041
0.000428138
0.000451181
0.000474919
0.000484035
0.000509846
0.000502729
0.00052352
0.000522782
0.000535844
0.000556837
0.000617263
0.00055999
0.000651823
0.00060124
0
0
9.75087e-06
1.2009e-06
3.17833e-07
1.56733e-05
2.13264e-06
0.000233292
8.668e-07
0.000623715
0.000324946
0.000174015
0.000298131
0.000162112
0.000273337
0.000177298
0.000418466
0.000424472
0.000422777
0.000633997
0.000269065
0
0
0
0
0
0
0
0
0
0
0
0
0
0
3.03301e-07
0
0
0
4.4795e-07
0
0
0
0
0
0
0
0
0
0
0
0
0
0
0
0
0
0
1.83032e-07
0
0
0
0
0
6.05191e-10
9.25382e-10
1.37447e-09
0
0
0
0
0
0
0
0
0
0
0
0
0
0
0
0
0
0
0
0
0
0
0
0
0
0
0
0
0
0
0
0
0
0
0
0
0
0
0
0
0
3.11054e-09
0
6.21779e-10
0
2.06169e-09
0
0
0
0.000217091
0.000577767
0.000609613
0.000828059
0.00060909
0.000845895
0.000712655
0.000439172
0.00078274
0.000808004
0.000727609
0.00123506
0.00099477
0.00114338
0.00114245
0.00117319
0.000779237
0.000593944
0.000649017
0.000315458