/*--------------------------------*- C++ -*----------------------------------*\
  =========                 |
  \\      /  F ield         | OpenFOAM: The Open Source CFD Toolbox
   \\    /   O peration     | Website:  https://openfoam.org
    \\  /    A nd           | Version:  8
     \\/     M anipulation  |
\*---------------------------------------------------------------------------*/
FoamFile
{
    version     2.0;
    format      ascii;
    class       volScalarField;
    location    "4680";
    object      Hclip;
}
// * * * * * * * * * * * * * * * * * * * * * * * * * * * * * * * * * * * * * //

dimensions      [0 1 0 0 0 0 0];

internalField   nonuniform List<scalar> 
526318
(
0.7993
0.755028
0.830401
0.74378
0.814871
0.767472
0.783863
0.700896
0.757048
0.641135
0.608922
0.735267
0.675658
0.726583
0.685207
0.710907
0.682506
0.885815
0.793808
0.838364
0.83082
0.787686
0.548589
0.791395
0.673411
0.531018
0.81189
0.810368
0.81473
0.829117
0.854178
0.899484
0.885741
0.76451
0.767819
0.733252
0.741626
0.83164
0.753699
0.70455
0.762914
0.741008
0.399482
0.454503
0.354536
0.411868
0.373823
0.504967
0.687311
0.575827
0.668413
0.662722
0.620439
0.584557
0.0910799
0.331372
0.32323
0.0842938
0.839877
0.853989
0.870159
0.82413
0.772637
0.898656
0.894512
0.850334
0.840256
0.838603
0.742666
0.733329
0.847454
0.628987
0.685043
0.574777
0.533688
0.521841
0.623946
0.611646
0.528834
0.570345
0.648214
0.6513
0.604026
0.55784
0.588091
0.655493
0.656579
0.631769
0.583564
0.655092
0.562206
0.510546
0.503197
0.432263
0.435187
0.43799
0.435017
0.43189
0.431116
0.426211
0.001
0.001
0.001
0.001
0.001
0.001
0.346868
0.151767
0.470465
0.430177
0.475891
0.589395
0.811522
0.708877
0.820027
0.825875
0.889873
0.86647
0.909548
0.426573
0.424942
0.430316
0.430636
0.387609
0.427826
0.339991
0.379259
0.290024
0.341628
0.287379
0.290056
0.280814
0.25403
0.246198
0.269592
0.213122
0.267338
0.221815
0.236663
0.182213
0.190079
0.209377
0.23477
0.225519
0.181729
0.183227
0.195299
0.18763
0.185806
0.186484
0.20315
0.19213
0.19549
0.187784
0.188148
0.160739
0.190084
0.190786
0.160979
0.114904
0.190048
0.139795
0.195352
0.695749
0.78547
0.733312
0.71508
0.522285
0.590037
0.521793
0.520095
0.520076
0.518744
0.540768
0.520417
0.455798
0.427838
0.394096
0.334226
0.393064
0.43564
0.434011
0.435562
0.321914
0.373879
0.260084
0.268284
0.276958
0.2686
0.269
0.274481
0.263254
0.266724
0.263601
0.250086
0.231674
0.258282
0.248384
0.223302
0.203885
0.227136
0.215237
0.196884
0.224739
0.214671
0.21332
0.184818
0.193065
0.228795
0.231814
0.680538
0.694174
0.723498
0.697395
0.682163
0.67679
0.679534
0.562808
0.596212
0.344497
0.33031
0.326651
0.444945
0.581393
0.448993
0.485458
0.487764
0.431162
0.424191
0.001
0.001
0.0438126
0.273109
0.001
0.001
0.001
0.001
0.001
0.001
0.889353
0.872524
0.918949
0.91332
0.878378
0.873558
0.782467
0.866431
0.713539
0.655695
0.658458
0.654634
0.655487
0.655156
0.643217
0.642025
0.561725
0.623255
0.444824
0.49549
0.4279
0.438321
0.00100536
0.001
0.001
0.00100202
0.001
0.001
0.001
0.0604344
0.44138
0.249803
0.488196
0.49075
0.605859
0.700931
0.83012
0.824474
0.86268
0.84393
0.905792
0.937443
0.407131
0.406201
0.36798
0.338928
0.234248
0.274539
0.200184
0.213378
0.200724
0.195126
0.181001
0.18684
0.116273
0.126024
0.176738
0.208957
0.25725
0.231624
0.187211
0.188088
0.129769
0.108447
0.173885
0.220175
0.149476
0.179484
0.179534
0.145875
0.144918
0.11233
0.113938
0.074216
0.0778447
0.0804358
0.0645636
0.200721
0.228519
0.19451
0.230089
0.590132
0.553964
0.450895
0.539362
0.460313
0.508555
0.519191
0.510328
0.520054
0.520328
0.432497
0.346343
0.277729
0.25318
0.333652
0.272383
0.260944
0.37388
0.260369
0.311571
0.251643
0.24949
0.260392
0.252268
0.268067
0.262283
0.260296
0.267153
0.26298
0.2606
0.268412
0.264404
0.279095
0.281379
0.274377
0.259092
0.267832
0.256029
0.233245
0.224197
0.252394
0.285674
0.274304
0.254208
0.24131
0.254074
0.301704
0.298837
0.314456
0.273398
0.303486
0.315258
0.3606
0.313562
0.32685
0.342424
0.373694
0.501882
0.574539
0.500713
0.533149
0.601247
0.668903
0.57763
0.443468
0.559771
0.463869
0.476807
0.216625
0.159324
0.188988
0.17504
0.295242
0.415078
0.341467
0.404951
0.415991
0.428077
0.41971
0.001
0.001
0.001
0.001
0.0667651
0.00106436
0.001
0.00100998
0.001
0.00100962
0.001
0.00100889
0.001
0.001
0.001
0.001
0.912476
0.906207
0.939235
0.930603
0.908102
0.882327
0.808166
0.723537
0.656208
0.668476
0.644951
0.644653
0.624167
0.623864
0.602941
0.604566
0.556153
0.596511
0.519108
0.462857
0.406825
0.36338
0.001
0.00111857
0.00111885
0.001
0.001
0.001
0.001
0.001
0.00111857
0.00111835
0.001
0.00100984
0.001
0.00100942
0.00128277
0.001
0.001
0.001
0.001
0.001
0.001
0.001
0.001
0.001
0.138707
0.001
0.351104
0.510283
0.528591
0.615763
0.834401
0.736687
0.854606
0.848199
0.865287
0.894357
0.922728
0.942402
0.323529
0.325435
0.279492
0.3019
0.245126
0.206995
0.203464
0.198841
0.195729
0.201291
0.154733
0.146364
0.0956998
0.106301
0.154012
0.125249
0.10547
0.148535
0.143581
0.174387
0.077052
0.0678111
0.0880042
0.104016
0.108296
0.054487
0.062087
0.0554767
0.0599796
0.0448725
0.044552
0.351533
0.321236
0.321301
0.324713
0.343093
0.444202
0.409401
0.383572
0.264422
0.309995
0.28893
0.298425
0.200182
0.14569
0.316129
0.430566
0.318568
0.324463
0.300428
0.382757
0.363525
0.432591
0.470821
0.39548
0.376125
0.409936
0.285731
0.259527
0.257847
0.255919
0.178997
0.227655
0.152776
0.105243
0.0861475
0.203282
0.202095
0.25084
0.254351
0.251333
0.256972
0.246573
0.259803
0.253445
0.265171
0.256071
0.271758
0.270808
0.278059
0.270412
0.302948
0.292665
0.311072
0.312485
0.260399
0.244515
0.305078
0.296207
0.280108
0.297611
0.277816
0.266902
0.322342
0.294187
0.403533
0.413986
0.365302
0.407423
0.417652
0.377173
0.473821
0.442942
0.508695
0.52779
0.553369
0.464276
0.481383
0.472796
0.439667
0.413711
0.38556
0.480932
0.325174
0.30716
0.355075
0.385194
0.0582833
0.0956732
0.190837
0.31363
0.341562
0.375687
0.271983
0.245463
0.216108
0.144458
0.001
0.001
0.001
0.001
0.00114259
0.0539569
0.001
0.001
0.00100979
0.001
0.001
0.001
0.001
0.001
0.001
0.001
0.001
0.001
0.001
0.001
0.001
0.00101
0.001
0.00100053
0.001
0.001
0.00118782
0.001
0.001
0.00118784
0.00118784
0.00118785
0.001
0.001
0.001
0.001
0.001
0.001
0.001
0.001
0.00100959
0.001
0.0010078
0.00100281
0.001
0.001
0.910425
0.919862
0.941172
0.929817
0.912456
0.83767
0.659875
0.743768
0.627047
0.624704
0.601891
0.606602
0.598365
0.595261
0.59252
0.592579
0.536827
0.505297
0.404812
0.450256
0.303698
0.341657
0.001
0.001
0.001
0.001
0.001
0.001
0.001
0.001
0.001
0.001
0.001
0.001
0.001
0.001
0.001
0.001
0.001
0.00100737
0.001
0.001
0.001
0.001
0.001
0.001
0.001
0.001
0.00104817
0.001
0.001
0.001
0.0135234
0.001
0.0294297
0.0285548
0.321873
0.163009
0.531459
0.493803
0.562862
0.662379
0.775084
0.846906
0.861787
0.852203
0.891358
0.923387
0.907184
0.903939
0.00101
0.001
0.001
0.001
0.001
0.001
0.001
0.001
0.001
0.001
0.001
0.001
0.001
0.001
0.001
0.00101
0.001
0.302913
0.30683
0.300979
0.266761
0.186075
0.228857
0.15207
0.14059
0.104041
0.0995358
0.0566476
0.054266
0.0929598
0.0886561
0.043218
0.0849781
0.0805351
0.114365
0.0984667
0.0995634
0.0226279
0.00129176
0.00146771
0.0352946
0.0458847
0.0464927
0.0231004
0.0263636
0.001
0.001
0.001
0.001
0.543853
0.507143
0.550641
0.559635
0.506677
0.468237
0.627636
0.656563
0.723915
0.736461
0.275021
0.324009
0.374334
0.460708
0.279147
0.218503
0.2526
0.253968
0.0891341
0.1492
0.201692
0.0876538
0.297185
0.301823
0.298272
0.297006
0.32576
0.303097
0.316988
0.334568
0.208621
0.200802
0.105154
0.185155
0.183135
0.138159
0.0904877
0.103485
0.0491666
0.0697468
0.0548595
0.135449
0.201954
0.130784
0.195513
0.251806
0.252627
0.250773
0.257701
0.25557
0.278061
0.267903
0.285715
0.280667
0.296322
0.300135
0.316646
0.311924
0.320009
0.318899
0.323046
0.322188
0.36861
0.331272
0.302014
0.300015
0.369325
0.335457
0.350304
0.383675
0.423794
0.423534
0.425555
0.421351
0.44826
0.508778
0.554244
0.586895
0.590959
0.574761
0.724646
0.654184
0.782089
0.822575
0.812545
0.854555
0.90671
0.774978
0.862908
0.88212
0.96498
1.01604
1.03743
1.06099
1.0876
1.03045
1.08535
1.04232
1.11777
1.11911
1.16709
1.13443
1.19318
1.2258
1.21476
1.16152
1.23131
1.25707
1.22192
1.21612
1.28729
1.26313
1.2918
1.23675
1.23135
1.30447
1.27181
1.21977
1.21784
1.24848
1.2829
0.280739
0.230017
0.402788
0.402761
0.377917
0.371279
0.374489
0.142929
0.27232
0.001
0.00164991
0.0993297
0.0910481
0.001
0.0485408
0.0380401
0.205091
0.111507
0.113665
0.0183789
0.017363
0.0282933
0.0419391
0.001
0.0010352
0.001
0.001
0.001
0.001
0.00101
0.001
0.001
0.001
0.001
0.00138895
0.001
0.001
0.001
0.001
0.001
0.001
0.001
0.001
0.00119593
0.001
0.001
0.001
0.001
0.001
0.001
0.001
0.001
0.001
0.00100231
0.001
0.001
0.001
0.001
0.001
0.00119415
0.001
0.001
0.00104166
0.00100986
0.001
0.00114659
0.001
0.001
0.001
0.00105765
0.001
0.00102502
0.001
0.00110876
0.00110852
0.001
0.001
0.0010182
0.001
0.001
0.001
0.001
0.001
0.00100983
0.00100977
0.001
0.001
0.001
0.001
0.001
0.001
0.001
0.00123361
0.001
0.001
0.903145
0.887592
0.857997
0.862665
0.777375
0.853027
0.670596
0.610327
0.593275
0.598396
0.59729
0.594627
0.53584
0.542272
0.385086
0.345016
0.306002
0.477521
0.481363
0.424841
0.431155
0.425836
0.001
0.001
0.00112151
0.00112155
0.001
0.001
0.001
0.001
0.001
0.001
0.001
0.00100893
0.001
0.001
0.001
0.001
0.001
0.001
0.001
0.001
0.001
0.001
0.00120617
0.00120644
0.001
0.001
0.001
0.029913
0.163896
0.0294917
0.320847
0.490306
0.523993
0.548048
0.635781
0.742911
0.810139
0.793929
0.834354
0.768729
0.815958
0.860704
0.813967
0.81036
0.00123872
0.001
0.00101
0.001
0.001
0.0012019
0.001
0.001
0.00120189
0.001
0.00100237
0.001
0.001
0.001
0.001
0.001
0.001
0.001
0.001
0.001
0.001
0.001
0.001
0.001
0.00202641
0.00100903
0.27761
0.280186
0.19475
0.213256
0.0940354
0.11413
0.0540951
0.0537896
0.0524581
0.0546528
0.0258717
0.0273241
0.00194184
0.00264436
0.001
0.0171109
0.0998041
0.0580673
0.102374
0.0955658
0.001
0.001
0.001
0.001
0.001
0.001
0.001
0.001
0.001
0.001
0.00124779
0.001
0.767184
0.767658
0.587785
0.503901
0.493658
0.484237
0.766907
0.661838
0.921473
1.00258
0.890036
0.823141
1.01616
0.994876
1.06
1.10342
1.12936
1.1319
1.16015
1.13134
1.18826
1.21378
1.20906
1.21067
1.23323
1.22022
1.21807
1.268
1.20621
1.20187
0.330207
0.26124
0.402556
0.477921
0.256492
0.204136
0.251276
0.259692
0.0847186
0.137014
0.001
0.138998
0.0293003
0.301
0.241517
0.30295
0.297536
0.303087
0.191802
0.0949567
0.0194985
0.00521201
0.0182073
0.0554313
0.001
0.001
0.001
0.001
0.064618
0.0599728
0.001
0.0764624
0.152379
0.0900406
0.197976
0.14748
0.194783
0.240818
0.281786
0.255979
0.290191
0.293075
0.300621
0.285646
0.329213
0.336304
0.332066
0.358034
0.360581
0.356346
0.388078
0.402886
0.392019
0.390338
0.385087
0.384937
0.399753
0.418138
0.46695
0.451241
0.416475
0.454697
0.445961
0.485034
0.508921
0.575179
0.608809
0.606129
0.622024
0.690209
0.776142
0.843526
0.862917
0.990909
0.861769
0.914366
1.05973
1.08562
1.08145
1.11849
1.16674
1.21768
1.22756
1.23294
1.26239
1.29099
1.3155
1.32091
1.30519
1.30889
1.32078
1.30308
1.23245
1.29197
1.25752
1.21419
1.21687
1.24933
1.2837
1.29755
1.21539
1.28018
1.24179
0.0664977
0.0558495
0.135691
0.205538
0.092612
0.164294
0.302327
0.234186
0.260277
0.0970567
0.00353174
0.001
0.001
0.0691216
0.0583437
0.001
0.001
0.0136757
0.00100198
0.0173915
0.0143492
0.022628
0.0152494
0.0302142
0.0507347
0.001
0.001
0.001
0.001
0.0012634
0.001264
0.001
0.001
0.001
0.00138856
0.001
0.001
0.001
0.001
0.001
0.00101
0.001
0.00119542
0.001
0.001
0.001
0.001
0.001
0.001
0.00100779
0.001
0.00105283
0.001
0.001
0.001
0.00111367
0.001
0.001
0.001
0.001
0.001
0.001
0.001
0.001
0.001
0.001
0.001
0.001
0.001
0.001
0.001
0.001
0.00136067
0.001
0.00104483
0.001
0.00100962
0.001
0.001
0.001
0.001
0.001
0.001
0.001
0.001
0.81731
0.806131
0.787004
0.802428
0.724863
0.793512
0.596185
0.661645
0.555327
0.55556
0.501382
0.48272
0.43093
0.42869
0.343307
0.242748
0.215251
0.384563
0.426908
0.427835
0.430143
0.42853
0.00112168
0.001
0.00112159
0.001
0.001
0.001
0.001
0.001
0.001
0.001
0.001
0.001
0.001
0.001
0.001
0.00100999
0.001
0.001
0.001
0.001
0.001
0.001
0.001
0.00101
0.001
0.001
0.001
0.0281248
0.22816
0.053806
0.359546
0.494352
0.468534
0.574687
0.7405
0.649116
0.725652
0.722453
0.715561
0.746626
0.80371
0.796079
0.802979
0.771474
0.001
0.001
0.001
0.001
0.001
0.001
0.001
0.001
0.001
0.001
0.001
0.001
0.001
0.001
0.001
0.001
0.001
0.001
0.001
0.00122657
0.001
0.00122057
0.0014496
0.001
0.00101
0.001
0.001
0.001
0.001
0.001
0.001
0.15564
0.154721
0.114726
0.0998314
0.05315
0.0745763
0.0411326
0.040144
0.197208
0.138262
0.117126
0.001
0.00102284
0.001
0.001
0.00141869
0.00141419
0.001
0.00867902
0.0707539
0.0232161
0.0555672
0.0440662
0.001
0.001
0.001
0.001
0.001
0.00101512
0.001
0.001
0.001
0.001
0.001
0.001
1.34121
1.34746
1.37324
1.35225
1.39125
1.37772
1.40418
1.39532
1.45397
1.43844
1.39833
1.45581
1.43007
1.47713
1.31201
1.25814
1.28905
1.33708
1.31466
1.28294
1.29144
1.34851
1.34292
1.32808
1.29928
1.35371
1.33608
1.34465
1.36683
1.21697
1.21686
1.21733
1.21632
1.23363
1.25627
0.814103
0.756409
0.642335
0.554497
0.469516
0.545612
0.74701
0.718039
0.972052
0.993049
0.884542
0.955825
1.00093
1.05057
1.09933
1.13414
1.1334
1.13162
1.12825
1.15845
1.17381
1.19561
1.1839
1.18641
1.19535
1.20442
1.18047
1.18112
0.379408
0.308015
0.250182
0.237404
0.294567
0.472352
0.448847
0.179816
0.236492
0.108916
0.0393621
1.32591
1.35472
1.36636
1.37419
1.38046
1.39023
1.38765
1.41696
1.39679
1.4174
1.41399
1.4645
1.48679
1.51296
1.51247
1.51996
1.53638
1.55411
0.0184383
0.001
0.00146524
0.225988
0.113207
0.287237
0.184326
0.107586
0.00622277
0.00569563
0.00587515
0.00538163
0.001
0.001
0.001
0.001
0.001
0.001
0.0721206
0.00236262
0.001
0.0920933
0.0950049
0.100456
0.148298
0.1059
0.23154
0.183958
0.267724
0.22819
0.260498
0.301319
0.314673
0.341637
0.357348
0.354612
0.365706
0.365393
0.419061
0.41819
0.407173
0.402283
0.45289
0.428396
0.495402
0.457401
0.442083
0.482864
0.532382
0.514682
0.543632
0.571911
0.574092
0.526397
0.636034
0.66587
0.636972
0.625854
0.710261
0.788509
0.865726
0.932927
0.880702
0.894607
1.01771
1.07756
1.11978
1.09789
1.1661
1.19719
1.24
1.25676
1.25084
1.27092
1.32697
1.30585
1.30986
1.31951
1.32348
1.33225
1.30019
1.29974
1.31866
1.31977
1.31883
0.0511939
0.0434243
0.0622009
0.001
0.00647115
0.0239347
0.001
0.102816
0.00678758
0.001
0.001
0.001
0.001
0.001
0.00148413
0.001
0.001
0.001
0.001
0.0134274
0.001
0.001
0.001
0.001
0.001
0.001
0.001
0.001
0.00116673
0.00116666
0.00126361
0.001
0.00108202
0.001
0.001
0.001
0.001
0.001
0.001
0.001
0.00100984
0.001
0.00116645
0.001
0.001
0.001
0.00100238
0.001
0.001
0.001
0.001
0.00241337
0.001
0.00100904
0.001
0.001
0.001
0.001
0.00100993
0.001
0.001
0.001
0.001
0.001
0.00107677
0.001
0.001
0.001
0.001
0.001
0.001
0.001
0.001
0.001
0.001
0.001
0.001
0.001
0.00101
0.001
0.001
0.001
0.001
0.001
0.001
0.001
0.001
0.001
0.001
0.00177301
0.001
0.001
0.001
0.001
0.00178146
1.50116
1.4801
1.4487
1.55836
1.58365
1.58129
0.785969
0.796591
0.783687
0.770479
0.694364
0.767389
0.592701
0.51132
0.442118
0.461485
0.429058
0.431612
0.429093
0.4312
0.305907
0.225217
0.311947
0.393511
0.390201
0.001
0.001
0.001
0.001
0.001
0.001
0.001
0.001
0.001
0.001
0.00100943
0.001
0.001
0.001
0.0263545
0.0537019
0.00100998
0.001
0.001
0.001
0.001
0.001
0.001
0.001
0.001
0.001
0.001
0.195689
0.34162
0.448586
0.448418
0.769669
0.690656
0.702018
0.483815
0.571509
0.664938
0.713608
0.717562
0.717091
0.735193
0.766349
0.755557
0.001
0.00111943
0.001
0.001
0.001
0.001
0.00100904
0.001
0.001
0.001
0.001
0.001
0.001
0.001
0.00100996
0.001
0.001
0.00102336
0.001
0.001
0.001
0.001
0.001
0.001
0.00102411
0.001
0.001
0.001
0.00114833
0.001
0.00101271
0.001
0.001
0.00101478
0.001
0.00104356
0.00104322
0.155207
0.189059
0.174609
0.119227
0.119902
0.087816
0.112404
0.001
0.00792018
0.001
0.001
0.123751
0.11009
0.001
0.001
0.001
0.001
0.001
0.001
0.001
0.001
0.0158397
0.001
0.01875
0.0270468
0.001
0.001
0.001
0.001
0.001
0.001
0.001
0.001
0.001
0.001
0.001
0.001
1.34593
1.35252
1.37321
1.39877
1.40234
1.40368
1.43728
1.41588
1.27856
1.26768
1.25584
1.28238
1.3153
1.27398
1.32241
1.29625
1.20395
1.19617
1.19315
1.21983
1.25465
1.22599
0.821027
0.738761
0.633677
0.711734
0.579981
0.483198
0.731315
0.730942
0.980446
0.977471
0.995596
0.895927
0.971291
1.0849
1.02993
0.973782
1.01198
1.11821
1.12821
1.11933
1.12627
1.13358
1.15477
1.17732
1.17002
1.17272
1.17936
1.18316
1.17877
1.1814
1.17452
0.221412
0.223839
0.365498
0.447434
0.215253
0.306291
0.463084
0.482408
0.220267
0.163727
0.0672551
0.134746
1.36389
1.30987
1.34024
1.38349
1.38309
1.38014
1.39001
1.40894
1.43151
1.44143
1.44195
1.44841
1.47143
1.51625
1.49584
1.51428
1.53274
1.57862
1.55305
1.38695
1.39513
1.41041
1.58534
1.58157
1.57815
0.00146887
0.00148242
0.00148426
0.001
0.0358136
0.0522095
0.001
0.001
0.001
0.001
0.001
0.001
0.001
0.0012674
0.001
0.00126736
0.001
0.001
0.001
0.001
0.00176731
0.0236831
0.098773
0.0159667
0.163931
0.192449
0.123182
0.169495
0.230423
0.199923
0.325116
0.264415
0.328406
0.357124
0.361815
0.347074
0.405446
0.440598
0.47367
0.47069
0.47954
0.472781
0.490124
0.477906
0.524617
0.527436
0.550931
0.543975
0.525355
0.528601
0.654141
0.700502
0.593445
0.662353
0.705987
0.66836
0.768495
0.818672
0.91615
0.954975
0.932651
1.02045
1.07221
1.17452
1.15461
1.21591
1.1959
1.29503
1.29463
1.28806
1.31999
1.34609
1.34353
1.39828
1.36222
1.39742
1.37189
1.33146
1.37373
1.34774
1.37566
1.31232
0.001
0.001
0.001
0.001
0.001
0.001013
0.001
0.001
0.00101625
0.001
0.001
0.001
0.001
0.001
0.001
0.001
0.001
0.001
0.001
0.001
0.001
0.001
0.001
0.001
0.001
0.001
0.001
0.001
0.00116663
0.00116662
0.001
0.001
0.001
0.001
0.00101
0.001
0.0010004
0.001
0.001
0.001
0.001
0.001
0.00183498
0.001
0.001
0.001
0.001
0.001
0.001
0.001
0.001
0.00219628
0.001
0.001
0.001
0.00125548
0.00114845
0.001
0.00100983
0.001
0.001
0.001
0.001
0.001
0.00107674
0.00107687
0.001
0.001
0.00107649
0.00107678
0.001
0.001
0.001
0.001
0.00132474
0.001
0.00132446
0.001
0.001
0.001
0.001
0.00101787
0.00104574
0.0010455
0.001
0.001
0.001
0.001
0.001
0.001
0.001
0.001
0.001
0.001
0.00114835
0.001
0.00100958
0.00100998
0.001
0.001
0.001
0.001
0.00101
1.44937
1.49147
1.48508
1.47996
1.50983
1.62647
1.59559
1.59858
1.62337
1.56763
0.702724
0.681769
0.618243
0.62479
0.576746
0.611554
0.521266
0.47466
0.464119
0.42955
0.406937
0.404185
0.313898
0.323741
0.193606
0.234509
0.233104
0.001
0.001
0.001
0.00101
0.001
0.001
0.001
0.0263279
0.16218
0.0239995
0.001
0.001
0.001
0.001
0.001
0.001
0.00101
0.001
0.001
0.00102247
0.001
0.001
0.001
0.001
0.001
0.561903
0.564777
0.608697
0.314062
0.453399
0.443862
0.485804
0.609006
0.681565
0.638003
0.542992
0.628669
0.657008
0.664441
0.5806
0.608381
0.001
0.001
0.00111951
0.00104685
0.001
0.001
0.00104163
0.00121531
0.001
0.001
0.001
0.00195605
0.001
0.001
0.001
0.00295707
0.0029586
0.00295652
0.001
0.001
0.001
0.00102298
0.001
0.001
0.001
0.00103457
0.001
0.001
0.001
0.001
0.001
0.001
0.00100136
0.001
0.001
0.001
0.001
0.001
0.001
0.001
0.001
0.001
0.001
0.001
0.001
0.171405
0.179833
0.191881
0.058333
0.0810362
0.0400181
0.0408052
0.001
0.001
0.001
0.001
0.00110291
0.00210291
0.001
0.001
0.001
0.001
0.001
0.001
0.001
0.001
0.001
0.001
0.0106494
0.001
0.045646
0.001
0.001
0.001
0.001
0.00120278
0.001
0.001
0.001
0.001
0.00101
0.001
0.001
0.00131256
1.34257
1.30178
1.37267
1.34011
1.33942
1.39961
1.38098
1.42698
1.42693
1.46488
1.43005
1.38244
1.46173
1.41274
1.23646
1.23836
1.22792
1.24813
1.25743
1.27192
1.26951
1.28096
1.18547
1.18403
1.20749
1.19269
1.2211
1.22896
0.820683
0.742287
0.661344
0.731029
0.533454
0.634653
0.733615
0.736238
0.972864
0.968454
0.972685
0.90213
1.05895
1.10711
1.01436
0.970941
1.11433
1.113
1.12703
1.10985
1.14921
1.17119
1.18075
1.17942
1.17783
1.17524
1.18401
1.18116
1.17601
1.16492
0.210872
0.21798
0.387639
0.461373
0.357888
0.276143
0.513295
0.462955
0.197991
0.214788
0.191765
0.0997384
1.34292
1.40594
1.39494
1.39551
1.4149
1.40979
1.44853
1.4526
1.42623
1.44444
1.43156
1.44443
1.45186
1.47181
1.49807
1.51115
1.51833
1.56629
1.54125
1.58793
1.59511
1.46778
1.47904
1.59976
1.60804
0.001
0.001
0.001
0.001
0.001
0.001
0.001
0.001
0.00101
0.001
0.001
0.001
0.001
0.001
0.001
0.001
0.00176754
0.001
0.001
0.001
0.001
0.001
0.0967339
0.0014953
0.18304
0.186945
0.157727
0.101048
0.23639
0.25935
0.324749
0.320455
0.336144
0.323538
0.441678
0.386748
0.496356
0.478793
0.508525
0.515065
0.49368
0.538704
0.586806
0.558419
0.545469
0.570247
0.619475
0.610296
0.589781
0.636991
0.72292
0.718578
0.716836
0.733879
0.864617
0.784128
0.952464
0.975725
0.977527
1.0382
1.11918
1.1891
1.20642
1.21156
1.26732
1.31029
1.34861
1.34421
1.38208
1.36182
1.41354
1.42555
1.42926
1.4303
1.42627
1.42663
1.42512
1.44296
1.37177
0.001
0.001
0.00637053
0.00102572
0.001
0.001
0.001
0.001
0.001
0.001
0.00104496
0.00127203
0.001
0.00127203
0.00127169
0.00127089
0.00127297
0.001
0.00127185
0.00586547
0.00100016
0.001
0.001
0.00211698
0.001
0.00211694
0.00211693
0.001
0.001
0.00100217
0.001
0.001
0.001
0.001
0.00104056
0.00104748
0.001
0.001
0.00100986
0.001
0.001
0.001
0.00170382
0.001
0.001
0.001
0.001
0.001
0.001
0.001
0.001
0.001
0.00100941
0.001
0.001
0.001
0.00100992
0.001
0.001
0.001
0.00101
0.001
0.001
0.001
0.001
0.001
0.001
0.00100223
0.001
0.001
0.001
0.00100949
0.001
0.001
0.001
0.001
0.001
0.001
0.001
0.001
0.001
0.001
0.00118601
0.001
0.001
0.001
0.001
0.001
0.001
0.001
0.001
0.001
0.001
0.001
0.001
0.001
0.001
0.001
0.001
0.001
0.001
0.001
0.001
0.001
0.001
0.001
0.001
0.001
0.001
0.001
0.001
0.001
0.00110088
0.001
0.001
0.001
0.001
1.6531
1.64174
1.65494
1.64331
1.65691
1.65977
1.49797
1.4945
1.5666
1.53716
1.62396
1.64657
1.6172
1.5048
1.44064
0.559592
0.558225
0.560714
0.550365
0.560358
0.493351
0.536126
0.324567
0.381857
0.24599
0.249059
0.189206
0.189177
0.197572
0.001
0.001
0.001
0.00125236
0.00126164
0.18768
0.0234364
0.001
0.001
0.001
0.001
0.00104897
0.001
0.001
0.001
0.001
0.001
0.001
0.00101546
0.001
0.00101544
0.001
0.001
0.001
0.56236
0.561596
0.564091
0.565341
0.56579
0.279538
0.399816
0.330823
0.459039
0.519839
0.542932
0.469407
0.557005
0.508837
0.509869
0.494922
0.001
0.00114366
0.001
0.001
0.001
0.001
0.001
0.00101754
0.001
0.001
0.00101586
0.001
0.001
0.001
0.001
0.001
0.001
0.001
0.001
0.00101585
0.001
0.001
0.001
0.001
0.001
0.00100951
0.001
0.001
0.001
0.001
0.001
0.001
0.001
0.001
0.001
0.001
0.001
0.001
0.00117031
0.00101
0.001
0.001
0.001
0.001
0.00100983
0.001
0.001
0.001
0.001
0.001
0.001
0.001
0.001
0.001
0.001
0.001
0.001
0.164057
0.102289
0.0887256
0.0155463
0.00949291
0.001
0.001
0.001
0.001
0.001
0.00100956
0.001
0.001
0.001
0.001
0.001
0.001
0.001
0.001
0.001
0.001
0.001
0.0361694
0.001
0.001
0.001
0.001
0.001
0.001
0.001
0.001
0.001
0.001
0.00184333
0.00183879
0.001
0.001
0.001
0.001
0.00100972
0.001
1.32612
1.29995
1.31144
1.31087
1.31674
1.32915
1.32488
1.3801
1.37202
1.39898
1.47321
1.42346
1.3718
1.23322
1.2279
1.25865
1.24384
1.2735
1.26868
1.29356
1.28036
1.18321
1.19107
1.21968
1.1985
1.21304
1.22048
0.855641
0.778265
0.69961
0.741142
0.688754
0.591653
0.770256
0.734059
0.978459
0.973306
0.934272
0.977712
1.06316
1.11116
0.979985
1.02072
1.11422
1.11217
1.13844
1.11446
1.15613
1.17504
1.17605
1.16334
1.19014
1.16152
1.17843
1.17192
1.17908
1.16626
0.2146
0.263017
0.462808
0.443615
0.357892
0.440625
0.462191
0.535406
0.207325
0.210265
0.20689
0.108736
0.001
0.00343523
0.0760715
1.41363
1.44255
1.44513
1.4548
1.46455
1.47637
1.48726
1.48572
1.52112
1.49698
1.51323
1.47898
1.51291
1.51788
1.55062
1.55955
1.57314
1.57669
1.62286
1.62717
1.64841
1.6282
1.53895
1.54248
1.66036
1.66395
0.001
0.001
0.00101
0.001
0.001
0.00122929
0.00122919
0.001
0.001
0.001
0.001
0.00189722
0.001263
0.001
0.001
0.001
0.00100232
0.001
0.001
0.001
0.001
0.001
0.0297753
0.0476094
0.0315428
0.144551
0.204632
0.0966835
0.311473
0.250929
0.31239
0.323541
0.410144
0.346542
0.476065
0.504158
0.49464
0.503798
0.626824
0.595503
0.563227
0.615396
0.636376
0.630297
0.627195
0.623199
0.635922
0.635194
0.719307
0.757223
0.798536
0.761853
0.798788
0.830942
0.962449
0.901708
0.990327
0.971521
1.0565
1.12718
1.22127
1.21231
1.25024
1.28786
1.36012
1.35249
1.37188
1.38041
1.41185
1.41663
1.44021
1.4329
1.44679
1.44597
1.4307
1.44023
1.42961
1.42528
0.001
0.001
0.00101898
0.001
0.001
0.001
0.001
0.001
0.001
0.00127287
0.001
0.001
0.001
0.00127258
0.00127393
0.0012717
0.00126999
0.00127098
0.00126826
0.001
0.001
0.00100989
0.001
0.001
0.001
0.00100179
0.001
0.001
0.001
0.001
0.001
0.00101
0.001
0.001
0.00100863
0.0010476
0.001
0.001
0.001
0.00358901
0.001
0.001
0.001
0.00100996
0.001
0.001
0.001
0.00100983
0.001
0.001
0.00100647
0.001
0.00100976
0.001
0.001
0.001
0.001
0.001
0.00358617
0.001
0.001
0.001
0.001
0.001
0.00113921
0.0011391
0.00113911
0.001
0.001
0.001
0.001
0.001
0.001
0.001
0.001
0.001
0.001
0.001
0.001
0.001
0.001
0.001
0.001
0.001
0.001
0.001
0.001
0.001
0.001
0.001
0.001
0.001
0.001
0.001
0.001
0.001
0.001
0.001
0.001
0.001
0.001
0.001
0.001
0.001
0.001
0.001
0.00101
0.001
0.0010574
0.001
0.00117738
0.001
0.001
0.00112541
0.0010469
0.001
1.67404
1.69482
1.70349
1.65556
1.66904
1.64942
1.66186
1.55051
1.56657
1.5822
1.5924
1.59656
1.63565
1.66207
1.51527
1.53616
1.45471
1.48896
1.47743
0.554068
0.553898
0.461144
0.421579
0.516147
0.452449
0.457838
0.328458
0.354947
0.21911
0.190533
0.196946
0.193741
0.168189
0.001
0.001
0.108142
0.218042
0.00101226
0.001
0.001
0.001
0.001
0.001
0.001
0.001
0.00118786
0.001
0.001
0.001
0.001
0.00111464
0.001
0.001
0.001
0.001
0.001
0.001
0.519551
0.561665
0.538953
0.514283
0.28831
0.279549
0.300539
0.37802
0.492203
0.492886
0.445649
0.49278
0.494322
0.00100999
0.001
0.001
0.001
0.001
0.001
0.001316
0.00131783
0.001
0.001
0.00102554
0.00100946
0.001
0.001
0.00100978
0.001
0.001
0.00181216
0.001
0.001
0.001
0.001
0.001
0.001
0.001
0.001
0.001
0.001
0.00134603
0.001
0.001
0.001
0.001
0.001
0.001
0.001
0.001
0.001
0.001
0.001
0.001
0.001
0.001
0.001
0.001
0.001
0.001
0.001
0.001
0.001
0.001
0.00173458
0.001
0.001
0.001
0.001
0.001
0.001
0.001
0.001
0.001
0.001
0.001
0.0875956
0.00333328
0.0033762
0.001
0.001
0.001
0.001
0.001
0.00131231
0.001
0.001
0.001
0.001
0.001
0.001
0.001
0.001
0.001
0.001
0.001
0.001
0.001
0.001
0.001
0.001
0.001
0.001
0.001
0.001
0.00143578
0.001
0.001
0.001
0.001
0.00141441
0.00101
0.001
0.001
0.001
0.001
0.00100999
0.001
0.001
1.29599
1.30067
1.34979
1.31837
1.34796
1.33949
1.3686
1.33816
1.35827
1.41788
1.37373
1.44834
1.41398
1.49141
1.21299
1.23374
1.2269
1.2491
1.23268
1.25918
1.30021
1.2536
1.17475
1.18281
1.19445
1.20239
1.19753
1.20097
0.907937
0.828062
0.720178
0.742114
0.642699
0.734018
0.741198
0.79883
0.983287
0.981561
0.979376
0.952359
1.07298
1.11712
1.04261
0.99536
1.12358
1.116
1.12586
1.14316
1.18787
1.17202
1.18828
1.16442
1.162
1.17787
1.16857
1.16686
1.17136
1.17345
0.289367
0.205157
0.472357
0.47483
0.378359
0.467527
0.475308
0.572245
0.205558
0.197441
0.180523
0.1584
0.0993105
0.204649
1.43623
1.45113
1.47267
1.50942
1.50271
1.52918
1.53934
1.54863
1.55844
1.54302
1.55534
1.57244
1.59705
1.61091
1.59928
1.6124
1.63853
1.66038
1.67059
1.67353
1.68056
1.55484
1.54738
1.70651
1.72563
0.001
0.001
0.001
0.001
0.001
0.001
0.001
0.001
0.001
0.00189707
0.001
0.001
0.001
0.001
0.001
0.00107672
0.00107473
0.001
0.001
0.001
0.001
0.00101315
0.0729142
0.0613779
0.001
0.127919
0.130657
0.217785
0.286123
0.254133
0.339254
0.275135
0.476024
0.396352
0.498996
0.502094
0.513849
0.57568
0.705258
0.713728
0.654302
0.678196
0.714198
0.66019
0.768131
0.697083
0.667069
0.710892
0.845799
0.853743
0.922705
0.970765
0.85771
0.943378
1.08844
1.03536
1.10345
1.07638
1.27082
1.23554
1.30402
1.3163
1.38825
1.39734
1.45964
1.42488
1.47776
1.45604
1.48028
1.51723
1.48838
1.51945
1.52304
1.48325
1.46886
1.50784
1.50427
1.47998
0.001
0.001
0.00101
0.001
0.001
0.001
0.001
0.001
0.001
0.001
0.001
0.001
0.001
0.001
0.001
0.001
0.00100968
0.00126308
0.001
0.001
0.00127173
0.0010038
0.001
0.001
0.00137915
0.001
0.001
0.001
0.001
0.001
0.00111194
0.00100999
0.001
0.001
0.001
0.001
0.001
0.00100967
0.001
0.001
0.001
0.001
0.001
0.001
0.001
0.001
0.00102669
0.00102682
0.0010271
0.001
0.001
0.001
0.001
0.00106837
0.001
0.001
0.00106825
0.001
0.001
0.001
0.00100996
0.00105728
0.001
0.00112483
0.001
0.001
0.001
0.001
0.00101
0.001
0.001
0.001
0.001
0.001
0.001
0.001
0.001
0.001
0.001
0.001
0.001
0.001
0.001
0.001
0.001
0.001
0.001
0.001
0.001
0.001
0.001
0.001
0.001
0.001
0.001
0.001
0.001
0.001
0.001
0.001
0.001
0.001
0.001
0.001
0.001
0.001
0.001
0.001
0.001
0.001
0.001
0.001
0.001
0.001
0.001
0.001
0.001
0.00117739
0.001
0.001
0.001
0.00112519
0.001
0.001
1.7245
1.71358
1.72043
1.70381
1.68651
1.7134
1.70066
1.68071
1.70036
1.54791
1.57819
1.58086
1.57986
1.65361
1.69327
1.71995
1.61881
1.48864
1.52525
1.49595
1.49274
1.48515
1.53078
1.41497
0.32534
0.419333
0.324489
0.361654
0.368367
0.276955
0.272117
0.271105
0.275808
0.270618
0.246264
0.169336
0.135522
0.0574826
0.0608631
0.171971
0.279709
0.001
0.001
0.00132873
0.001
0.001
0.00101
0.001
0.001
0.001
0.00101212
0.001
0.00114831
0.001
0.001
0.001
0.00114839
0.001
0.00110188
0.001
0.001
0.428679
0.349384
0.324508
0.413385
0.277703
0.304629
0.438856
0.371261
0.415374
0.488274
0.490764
0.00113989
0.001
0.001
0.00117044
0.001
0.001
0.00131676
0.00131653
0.001
0.001
0.00100995
0.001
0.001
0.001
0.001
0.001
0.00200403
0.00202381
0.001
0.001
0.00200383
0.001
0.00173494
0.001
0.001
0.001
0.001
0.00282071
0.001
0.00134608
0.00289483
0.001
0.001
0.001
0.001
0.001
0.001
0.001
0.001
0.001
0.001
0.001
0.001
0.00101
0.001
0.001
0.001
0.001
0.001
0.00110907
0.001
0.001
0.001
0.00136858
0.001
0.001
0.001
0.001
0.001
0.001
0.001
0.001
0.001
0.001
0.001
0.001
0.001
0.001
0.001
0.001
0.001
0.001
0.001
0.001
0.001
0.001
0.001257
0.00125672
0.001
0.001
0.001
0.001
0.001
0.001
0.001
0.001
0.00152462
0.001
0.001
0.001
0.001
0.001
0.001
0.00152461
0.001
0.001
0.001
0.001
0.001
0.001
0.001
0.001
0.001
0.001
0.0819124
0.00394944
0.001
0.00101
0.00109426
0.001
0.00101423
0.001
0.001
0.001
0.001
0.001
0.001
0.001
1.27347
1.27915
1.26162
1.3166
1.29842
1.31424
1.29307
1.32535