/*--------------------------------*- C++ -*----------------------------------*\
  =========                 |
  \\      /  F ield         | OpenFOAM: The Open Source CFD Toolbox
   \\    /   O peration     | Website:  https://openfoam.org
    \\  /    A nd           | Version:  8
     \\/     M anipulation  |
\*---------------------------------------------------------------------------*/
FoamFile
{
    version     2.0;
    format      ascii;
    class       volScalarField;
    location    "6240";
    object      alpha;
}
// * * * * * * * * * * * * * * * * * * * * * * * * * * * * * * * * * * * * * //

dimensions      [0 0 -1 0 0 0 0];

internalField   nonuniform List<scalar> 
526318
(
0.000387545
0.000598371
0.000424734
0.000471387
0.000469647
0.000376994
0.000483533
0.000537865
0.000417687
0.000549698
0.000317427
0.000718412
0.000511305
0.000508161
0.000611308
0.000532728
0.000511853
0.000427411
0.000359504
0.000343228
0.000468135
0.00053267
0.00101845
0.000487228
0.000239676
0.000361785
0.000460393
0.000380201
0.000675453
0.000520027
0.000267738
0.000373273
0.000318099
0.000283773
0.000547809
0.0001888
0.000499024
0.000410372
0.000752504
0.000204076
0.000509236
0.000504353
0.00200615
0.000531291
0.00176244
0.00136216
0.00100099
0.00126486
0.000427135
0.000445281
0.000259402
0.000153363
0.000130072
0.000321256
0.0266663
0.00116075
0.000476465
0.0228812
0.000570192
0.000539547
0.00027289
0.000151483
0.000391857
0.000201857
0.000497901
0.000293452
0.000497909
0.00019543
0.000693633
0.000503329
0.000261441
0.000555816
0.000146302
0.000854032
0.000116324
0.00086235
0.000643868
0.000663224
0.000484207
0.00084089
0.000367941
0.000513017
0.00050161
0.000410178
0.000450664
0.000522346
0.000325968
0.000850225
0.000655796
0.000812567
0.000604927
0.000851152
0.00158142
0.00154573
0.00184056
0.000437834
0.00203822
0.00184055
0.000660976
0.000553178
0
0
0
0
0
0
0.00174028
0.00485855
0.000804614
0.000670403
0.000673609
0.000750013
0.000489657
0.000645011
0.00055051
0.000236374
0.000143836
0.000476746
0.000342269
0.00104493
0.00118754
0.00204619
0.00191019
0.00125197
0.00151314
0.00210177
0.00209793
0.00326076
0.0019427
0.00332602
0.00391539
0.00466074
0.00281343
0.00616876
0.00268013
0.00496304
0.00379826
0.0042282
0.00241224
0.010741
0.00529451
0.00346213
0.00211014
0.00465419
0.0046061
0.00391445
0.00321712
0.00365922
0.0102099
0.00598407
0.00467463
0.00297226
0.00449713
0.0030192
0.00633139
0.00817303
0.00673774
0.00312341
0.00414964
0.0134028
0.0038661
0.013975
0.00251033
0.000473539
0.000368692
0.000163956
0.000454365
0.000603296
0.000278571
0.00051539
0.000398095
0.000583931
0.00107614
0.00108849
0.000494318
0.000669144
0.00205117
0.00133475
0.000492093
0.00452521
0.00203056
0.00269553
0.00224428
0.000754499
0.0020777
0.00327206
0.00263872
0.00232281
0.0030975
0.00207913
0.00174033
0.00324193
0.000955901
0.00215277
0.00300009
0.00149069
0.00363257
0.00213526
0.00610167
0.00816203
0.00190465
0.00519329
0.00335968
0.00589985
0.00237418
0.00637405
0.00517107
0.00403117
0.00354373
0.00567195
9.71996e-05
0.000548184
0.000615136
0.000324714
0.000543787
0.000572259
0.0004421
0.000133004
0.000337803
0.00181956
0.00227068
0.00279771
0.000617462
0.000122514
0.000962677
0.000648429
0.000554852
0.000911631
0.000546053
0
0
0.265322
0.00508801
0
0
0
0
0
0
0.000186865
0.000499951
8.46678e-05
0.000354348
0.000298786
0.000342986
0.000366108
0.000326967
0.000506894
0.000441972
0.000615516
0.000617161
7.96697e-05
0.000257878
0.000370184
0.000525761
0.00052556
8.062e-05
0.000480735
0.000559354
0.000463202
0.000265038
0
0
0
0
0
0
0
0
0.00107693
0.00238551
0.00105695
0.000606831
0.000734168
0.000626867
0.000413635
0.000383612
0.000147309
0.000392161
0.000239814
0.000178732
0.00095507
0.000647554
0.00110239
0.00128344
0.00274928
0.00132895
0.00677252
0.00344656
0.00786546
0.00380271
0.0137192
0.00389227
0.0102588
0.017869
0.0130286
0.00382878
0.00234399
0.00245642
0.00243557
0.0110341
0.0109903
0.00540436
0.00705234
0.00391532
0.00621627
0.0020571
0.0116322
0.00481642
0.00794318
0.0136791
0.0270128
0.163167
0.147915
0.0575711
0.273027
0.00565299
0.00370147
0.0131074
0.00410299
0.000649888
0.000649602
0.00121496
0.00066502
0.00111825
0.000368269
0.00113416
0.000409714
0.00112196
0.000214744
0.000984965
0.0030612
0.00778415
0.00299863
0.00367665
0.00441468
0.00616721
0.00317202
0.0175675
0.00149921
0.00190388
0.00394414
0.00302716
0.00200397
0.00240894
0.00145948
0.00133627
0.00285155
0.00211132
0.00161678
0.000857884
0.00328158
0.00230172
0.0048418
0.00358965
0.00295422
0.00435294
0.00152309
0.00497383
0.00611136
0.00359022
0.00330253
0.00496549
0.00208742
0.00127484
0.0041202
0.00174947
0.00160548
0.00135937
0.00629479
0.00423942
0.00330888
0.000882513
0.00190404
0.0010857
0.00151382
0.00243669
0.000677029
0.000296973
0.00115004
0.000883055
0.000485804
0.000312765
0.000279131
0.000959518
0.000871354
0.000480999
0.0009288
0.00290758
0.0110048
0.00572184
0.0015656
0.00175628
0.00141836
0.00277674
0.00149785
0.00134077
0.000880131
0.00129441
0
0
0
0
0.421576
0
0
0
0
0
0
0
0
0
0
0
0.000229242
0.000144414
9.94065e-05
1.14674e-05
0.000414066
0.000185757
0.000488365
0.000245068
0.000577736
0.000590925
0.000618714
0.000329643
0.00032816
0.000756357
0.00024491
0.000172105
0.000537266
0.000449723
0.000351305
7.70325e-05
0.000246583
0.00106277
0
0.00518911
0.0100902
0
0
0
0
0
0.000940353
0.0041012
0
0
0
0
0.00690431
0
0
0
0
0
0
0
0
0
0.0161797
0
0.00265127
0.000872797
0.000766943
0.000738429
0.000412357
0.000488185
0.000329835
0.000244967
0.0003455
9.83854e-05
0.000170451
0.000185985
0.000401744
0.00194224
0.00238767
0.00111692
0.00208631
0.00299332
0.0071431
0.00502131
0.0049408
0.00615795
0.00198917
0.00757766
0.0265824
0.00718344
0.00698756
0.0181173
0.0263765
0.00947508
0.0108597
0.00815534
0.114119
0.292481
0.00954323
0.0138409
0.0270696
0
1.06033
0
0.469221
0
0
0.00216195
0.00383687
0.0021269
0.00299715
0.00171076
0.00151087
0.00247983
0.00278743
0.00148611
0.00505896
0.0034147
0.00454954
0.00959305
0.00362441
0.00176753
0.00130827
0.00151581
0.000580389
0.000824298
0.000506183
0.000952215
0.00133752
0.00136957
0.000999477
0.00256492
2.48304e-05
0.00205191
0.0110435
0.00416697
0.0136156
0.0237761
0.0172113
0.0146376
0.120456
0.110276
0.00727169
0.00134532
0.0027926
0.00418802
0.00213951
0.00151679
0.000909363
0.0024453
0.00169786
0.003562
0.00434536
0.00291954
0.00509487
0.00277289
0.000763077
0.00150992
0.0019716
0.00149098
0.000416515
0.000213613
0.00363603
0.00137213
0.00218275
0.00127672
0.00153509
0.00230213
0.00129028
0.00206048
0.00247315
0.00143367
0.000846258
0.000834803
0.00191745
0.00240218
0.00202747
0.001477
0.00215057
0.00186067
0.00152725
0.00128498
0.000598679
0.000934208
0.000506926
0.000922604
0.00130329
0.000677829
0.000440773
0.00241289
0.00141731
0.00197107
0.00137972
0
0.0287181
0.00969528
0.000445045
0.00155035
0.000718638
0.0013638
0.00144863
0.0017029
0.00927797
0
0
0
0
0
0.0555609
0
0
0
0
0
0
0
0
0
0
0
0
0
0
0
0
0
0
0
0
0.000384028
0
0
0.000509924
5.74557e-05
0.000382818
0
0
0
0
0
0
0
0
0
0
0
0
0
0
0.000139602
0.000360857
0.000209672
0.000224131
0.000464481
0.000386836
0.00062205
0.000470543
0.00035757
0.00019605
0.000322208
0.000184112
0.000217998
0.000196811
0.000154422
0.000516208
0.00036781
0.000251027
0.000759977
0.000411192
0.00165346
0.000654424
0
0
0
0
0
0
0
0
0
0
0
0
0
0
0
0
0
0
0
0
0
0
0
0
0
0
0
0
0
0
0
0
0.0349291
0
0.00238856
0.00687564
0.000710479
0.00148275
0.00129711
0.000532658
0.000698044
0.000314556
0.000280711
0.000460503
0.000364983
0.000404185
0.0004691
0.000217588
0
0
0
0
0
0
0
0
0
0
0
0
0
0
0
0
0
0.000379496
0.00217032
0.0010978
0.000706379
0.00427828
0.00171419
0.00583185
0.00478112
0.0108696
0.0219529
0
0
0.0973927
0.0301739
0
0.20699
0.0579579
0.0159405
0.0465097
0.0296441
0
0
0
0
0
0
0
0
0
0
0
0
0.00146477
0.00181383
0.00148152
0.00188428
0.00234909
0.00227677
0.00157712
0.00125619
0.00107608
0.00115553
0.00944002
0.00353525
0.00388087
0.00203321
0.00210206
0.0115232
0.00322786
0.00383971
0.0700414
0.0137132
0.00601392
0.0314541
0.00262936
0.000971644
0.000456835
0.00182147
0.00257827
0.00214006
0.0028937
0.00165179
0.00255139
0.0141432
0.0230626
0.024938
0.0595799
0.0191035
0.255057
0.372791
0
0.0916738
0
0.00766876
0.0054228
0.00789937
0.00317726
0.00425511
0.000970561
0.00151391
0.00318303
0.00302663
0.000398345
0.00472974
0.00170345
0.00128447
0.000509901
0.0017112
0.00129209
0.00227828
0.00260156
0.00278479
0.00204493
0.0015256
0.00126446
0.0020279
0.00298442
0.00203138
0.00174017
0.000593266
0.00146022
0.001674
0.000844455
0.00246183
0.000683974
0.00161375
0.000902456
0.000808976
0.00120767
0.00132259
0.0014349
0.00204725
0.0013347
0.00127767
0.000825282
0.000794807
0.000684195
0.000616485
0.000518038
0.000695854
0.000609319
0.000517019
0.000556102
0.000429517
0.00038147
0.000433714
0.000436831
0.000290385
0.000274322
0.000229995
0.000420723
0.000429669
0.000261092
0.000255682
0.000351208
0.000217546
0.000364842
0.000218047
0.000349112
0.000154381
0.000329682
0.000160266
0.000346893
0.000263092
8.0169e-05
0.000222177
5.0917e-05
0.000203635
0.000143388
0.00014267
4.37728e-05
6.97927e-05
0.000251506
0.00324738
0.00256158
0.000490148
0.000367021
0.00104113
0.00143566
0.00192143
0.0110189
0.002098
0
0
0.00841105
0.042763
0
0
0
0.00396951
0.0110926
0.022316
0
0
0
0
0
0.0141926
0
0
0
0
0
0
0
0
0
0.0102067
0
0
0
0
0
0
0
0
0.0130972
0
0
0
0
0
0
0
0
0
0
0
0
0
0
0.00325733
0.00623955
0
0
0.00681205
0
0
0.013568
0
0
0
0.0158423
0.00899342
0.00215276
0
0.0177556
0.00805935
0
0
0
0
0
0
0
0
0
0
0
0
0
0
0
0
0
0.0118693
0
0
0.000372757
0.00045236
0.000531836
0.000400441
0.000504349
0.000460027
0.00072005
0.000475999
0.000526889
0.00022283
0.000485389
0.00032279
0.000512358
0.000363878
0.000212598
0.00102969
0.000779826
0.000402938
0.000152636
0.000203079
0.000674951
0.00083275
0
0
0.00625924
0.0045824
0
0
0
0
0.00975838
0
0
0
0
0
0
0
0
0
0
0
0
0
0.0140026
0.0107578
0
0
0
0.0203601
0.0114548
0
0.000652248
0.000866978
0.00125928
0.000789049
0.00122741
0.000465282
0.000420611
0.000756026
0.000573754
0.000688284
0.000495568
0.00064745
0.000456579
0.000703193
0.00299216
0
0
0
0
7.32063e-05
0
0
0.000248985
0
0
0
0
0
0
0
0
0
0
0
0
0
0
0
0.300116
3.34601
0.00374622
0.00187669
0.00451159
0.00243597
0.030431
0.00802121
0
0
0
0.0102981
0
0
0
0
0
0
0.0304019
0
0.0269291
0.0154701
0
0
0
0
0
0
0
0
0
0
0.00164348
0
0.000792051
0.000832645
0.00171845
0.00227725
0.00230078
0.00257319
0.00106415
0.00140911
0.000327044
0.00041018
0.000493847
0.000444566
0.000428122
0.000223727
0.000237032
0.00038733
0.000336643
0.000181324
0.000284465
0.000171883
0.00013142
0.000253928
0.000107749
0.000191154
6.7552e-05
5.28886e-05
0.000119043
0.000135884
0.000137807
6.84062e-05
0.00362356
0.00851407
0.00342452
0.00162091
0.00075931
0.0102516
0.00407104
0.00180041
0.0615314
0.0160196
0
0.0172878
0
0.00186837
0.00336459
0.00098172
0.0010738
0.00327215
0.00612658
0.0495338
0
0
0
2.70957
0
0
0
0
0.293518
0
0
0.0432721
0.00349319
0.0218834
0.00363093
0.00278577
0.00599148
0.00160193
0.00169532
0.00352047
0.0018537
0.00275188
0.000217191
0.00194511
0.00043771
0.00390015
0.00223336
0.00321613
0.00195458
0.00107527
0.00105887
0.000998242
0.000916428
0.00207305
0.00188671
0.00120314
0.000724912
0.00104083
0.00131368
0.00073886
0.00124945
0.00190172
0.0012567
0.00145868
0.00142756
0.00170874
0.00172391
0.0015893
0.00114211
0.00133828
0.000788812
0.0006541
0.000674973
0.00044513
0.000567461
0.000765468
0.000575819
0.000310177
0.000508344
0.000282405
0.000391587
0.000218256
0.000391842
0.000176944
0.000350764
0.000105146
0.000234238
0.000144979
3.36344e-05
0.000303953
0.000174454
0.000158995
0.000110819
0.000263912
0.000106012
3.45459e-05
9.90147e-05
6.54457e-05
8.5308e-05
0.000135282
2.99521e-05
5.35066e-05
0.00013507
0.228609
0
0.0240529
0.0130508
0.0175953
0.0262336
0.00816039
0.00562194
0.00431273
0.322136
0
0
0
0.339749
0
0
0
0
0
0.0293615
0.0159546
0
0
0
0
0
0
0.0653916
0
0.0269757
0.0253279
0
0
0
0.0132019
0
0
0
0
0
0
0
0.015234
0
0.030068
0
0
0
0
0
0
0.000239553
0
0
0
0.00629742
0
0
0
0
0
0
0
0
0
0
0
0
0
0
0
0
0.013218
0
0.00694738
0
0
0
0
0
0
0
0
0
0
0.000406903
0.000478805
0.000478343
0.000546504
0.000204226
0.000325709
0.00042817
0.000355934
0.000232788
0.000251488
0.000327714
0.000610255
0.000238712
0.000643898
0.000754523
0.00167904
0.00206886
0.000769951
0.000128733
0.000372682
0.000573661
0.000822438
0.00399866
0
0.000777633
0
0
0
0
0
0
0
0
0
0
0
0
0
0
0
0
0
0
0
0
0
0
0
0
0
0.00296032
0
0.000817023
3.37775e-05
0.000931505
0.000454727
0.000541113
0.000993312
0.000765405
0.000703494
0.00074384
0.000797028
0.000520293
0.000703451
0.000718565
0.000595521
0
0
0
0
0
0
0
0
0
0
0
0.00431762
0
0
0
0
0
0
0
0.0491401
0
0.0771745
0.207566
0
0
0
0
0
0
0
0
0.0122745
0.0128355
0.0171204
0.00481855
0
0.0397929
0
0
0.00210872
0.00491717
0.0184828
0
0
0
0
0.00104495
0.00169646
0
0
0.130471
0
0
0
0
0
0
0
0
0
0
0
0
0
0
0
0.000203326
0.000142947
0.000202936
0.000259459
0.000208601
0.000215733
0.000217809
0.000197935
0.000195214
0.000167158
0.000104129
0.000207992
0.000220816
0.000183807
2.56596e-05
3.6901e-05
0.000127089
7.5628e-05
5.65578e-05
2.70818e-05
4.48255e-05
3.56765e-05
8.25477e-05
2.80445e-05
8.38331e-05
3.37414e-05
6.17441e-05
0.000127477
0.000163199
8.21415e-05
3.01013e-05
7.02439e-05
5.24214e-05
3.26599e-05
3.15196e-05
0.000663057
0.000797039
0.00143304
0.00153566
0.00203252
0.00142055
0.00113441
0.00124956
8.76364e-05
0.000424176
0.000450497
0.000383411
0.000129295
0.000265932
0.000244743
0.000281846
0.000190802
0.000343553
0.000185243
0.000262235
0.00018765
0.000266575
0.000221783
0.00015788
1.86238e-05
6.03164e-05
0.000203913
9.27322e-05
0.0031808
0.00297091
0.0039329
0.0102113
0.0063072
0.00185436
0.00240248
0.00927427
0.00568295
0.0719319
0
0.000113338
5.31871e-05
9.35826e-05
4.67704e-05
3.64421e-05
2.09316e-05
6.75632e-05
0.000126442
0.000134914
0.000153957
0.000102953
0.000109906
0.000116545
0.000149202
0.000120463
0.000219876
0.000148861
0.000136666
0
0
0.00299428
0.00469462
0.0474323
0.00201348
0.00567353
0.0429794
0.00278555
0
0.00942639
0.0163526
0
0
0
0
0
0
0.271258
0
0
0.0262398
0.0229884
0.0162552
0.0113878
0.0619802
0.00478134
0.0136379
0.00228803
0.0046679
0.000996461
0.00144293
0.00205369
0.00188484
0.00221344
0.00139927
0.00261007
0.002335
0.00118101
0.00396857
0.00199743
0.000952346
0.00172562
0.000999263
0.00132976
0.00218362
0.00216769
0.000588653
0.000930595
0.000505117
0.00123654
0.00152978
0.00151035
0.00144764
0.00151361
0.00150191
0.00150652
0.00149289
0.000670399
0.000813278
0.000646536
0.000584071
0.000837901
0.000896946
0.000691948
0.000333105
0.0005348
0.000323772
0.000453057
0.000267134
0.00018901
0.000393971
0.000386906
0.000111235
0.000116033
0.000276671
7.23662e-05
0.000287021
4.19519e-05
0.000335799
0.00018167
0.000543965
0.000130871
0.000153596
0.000192854
3.09107
0
0.722417
0
0
0
0
0.0274766
0
0
0
0
0
0
0.0155227
0
0
0
0
0.0192657
0
0
0
0
0
0
0
0
0.00837397
0
0.0171479
0
0.00349174
0
0
0
0
0
0
0
0
0
0.0203704
0
0
0
0
0
0
0
0
0.209598
0
0.00166037
0
0
0
0
0
0
0
0
0
0
0.0117976
0
0
0
0
0.00145183
0
0
0
0
0
0
0
0
0
0
0
0
0
0
0
0
0
0
0
0.00288081
0
0
0
0
0.000963028
0.000147516
0.000141285
0.000127097
0.000103334
0.000167722
0.000136049
0.00027845
0.00031649
0.000409418
0.000368821
0.000436756
0.000344512
0.000520118
0.000312536
0.000431806
0.000460631
0.000244819
0.000239441
0.000331412
0.000475808
0.00109686
0.00270581
0.00114355
0.000446661
0.000908652
0
0
0
0
0
0
0
0
0
0
0
0.0038738
0
0
0
0
0
0
0
0
0
0
0
0
0
0
0
0.0091333
0.00104467
0.000700563
0.000395176
0.000597179
0.000278526
0.000617235
0.000619575
0.000120201
0.000806456
0.000469484
0.000587092
0.000620742
0.000636002
0.000639324
0.000452486
0
0.00165042
0
0
0
0
0
0
0
0
0
0
0
0
0
0
0
0.00322144
0
0
0
0
0
0
0
0
0
0
0
0
0
0
0
0
0
0.050108
0
0.0121588
0.0056811
0.00468392
0.00724878
0.00721556
0.0179518
0.0171081
0
0
0
0
0.0289252
0.02652
0
0
0
0
0
0
0
0
0
0
0
0
0
0
0
0
0
0
0
0
0
0
0
0
0.000145671
0.00020978
0.000302706
0.000231851
0.000241136
0.000285162
0.000347402
0.000398967
1.4213e-05
6.04195e-05
6.17346e-05
4.28339e-05
0.000105834
8.83795e-05
8.42645e-05
0.00014158
9.23045e-06
0.000113051
0.000100321
3.59707e-05
3.68364e-05
9.31227e-05
0.000641078
0.00111543
0.00130625
0.00108094
0.00136762
0.00185279
0.00129213
0.0010385
4.32275e-05
0.000422372
0.000391367
0.000609533
0.000179538
0.000294932
0.00046068
0.000248062
0.000133578
0.000274001
0.000270779
0.000233523
0.000300527
0.000242581
0.000318499
0.000228789
0.000285133
0.000133685
0.000269232
5.63307e-05
5.2434e-05
0.000199017
0.000100991
0.0111531
0.00653891
0.00346386
0.00258186
0.010373
0.00523495
0.00171862
0.00249731
0.00237628
0.0129889
0.0743364
0.00866252
0.000102249
0.00018564
0.000180492
4.63591e-05
4.84159e-05
4.58812e-05
1.66772e-05
5.89241e-05
5.23939e-05
0.000122037
0.000101702
0.000151906
0.000132706
0.000103673
0.000136898
0.000137515
0.000130284
2.44474e-05
0.000118255
6.61436e-05
2.11608e-05
4.84219e-05
8.99901e-05
0.000126347
0.000115641
0.00877996
0.02347
0.0100114
0
0
0
0
0
0
0
0
0
0
0.00980476
0
0.00452622
0
0
0
0
0.00472061
0
0.032388
0
0.0213671
0.00756181
0.0948761
0.0139497
0.004176
0.00413018
0.0027039
0.0038349
0.00171705
0.00345534
0.00381275
0.00323659
0.00349479
0.000946716
0.000186974
0.00200128
0.000433578
0.00130938
0.00111356
0.00187501
0.000898991
0.000276168
0.000485995
0.000831532
0.00117109
0.00109428
0.00146642
0.000895061
0.00185432
0.00124972
0.00139151
0.00117183
0.00145663
0.000443476
0.000670825
0.00110677
0.000970119
0.000629953
0.00042104
0.00047613
0.000317155
0.000291428
0.000450309
0.000401579
0.000224284
0.000173653
0.000356386
0.000318466
9.52762e-05
0.000243934
6.37501e-05
0.000180016
0.000299297
0.000340946
0.000480317
0.000276851
0.000425721
0.000495885
0
0
0
0
0
0
0
0
0
0
0
0
0
0
0
0
0
0
0
0
0
0
0
0
0
0
0
0
0.0090074
0.00447454
0
0
0
0
0
0
0
0
0
0
0
0
0.244927
0
0
0
0
0
0
0
0
0.124124
0
0
0
0.00933079
0.00483244
0
0
0
0
0
0
0
0.0106347
0.00800113
0
0
0.00354266
0.00520932
0
0
0
0
0.00965525
0
0.0143684
0
0
0
0
0.0186655
0.00295653
0.00243679
0
0
0
0
0
0
0
0
0
0
0.00566577
0
0
0
0
0
0
0
0
8.35355e-05
0.00014366
1.70029e-05
0.000268021
0.000200888
0.000106283
3.41382e-05
7.15133e-05
0.000144533
0.000127352
0.000324922
0.000436602
0.000443777
0.000193975
0.000328251
0.000323523
0.000470632
0.000860666
0.000462628
0.00024764
0.000351025
0.000188921
0.00101476
0.00122575
0.00344453
0.00236658
0.00362474
0
0
0
0
0
0
0
0.00388838
0.00252389
0
0
0
0
0
0
0
0
0
0
0.000232524
0
0
0
0
0
0.000902367
0.000449588
0.000357234
0.00230401
0.000935642
0.00127263
0.00118794
9.02503e-05
0.000414541
0.000610482
0.000656188
0.000778628
0.00010723
0.000400283
0.000642796
0.000266606
0
0
0.0015382
0.0120093
0
0
0
0.00144454
0
0
0
0
0
0
0
0.0134756
0.0159978
0
0
0
0
0.00483721
0
0
0
0
0
0
0
0
0.00734529
0
0
0
0
0
0
0
0
0
0
0
0
0
0
0.00156341
0.00448756
0.00525499
0
0.0680103
0
0
0
0
0
0
0.00465955
0.00149185
0
0
0
0
0
0
0
0
0
0
0
0
0
0
0
0.00313363
0
0.00867579
0
0
0
0
0
0
0
0.00221202
0.000321022
0.000200183
0.000369599
0.000293229
6.68086e-05
0.00026427
0.000178477
0.000309253
0.000382385
0.000248908
0.000235098
0.000479002
0.000129339
0.000217796
9.56314e-05
0.000107335
0.000159435
0.00015348
0.000110374
0.000111407
0.000163329
0.000150458
2.74011e-05
6.02907e-05
6.01476e-05
7.69798e-05
7.45034e-05
0.000136336
0.000540595
0.00141587
0.00093089
0.000747836
0.00131137
0.000872331
0.000975322
0.00076747
0.000304117
0.000145544
0.000243558
0.000795077
0.000212374
0.000178657
7.40317e-05
4.66228e-05
0.000304076
0.000231906
0.000233184
0.000238567
0.000231663
0.000302052
0.000320201
0.000333862
0.000223939
0.000527935
3.17959e-05
0.000193808
9.10448e-05
0.000347485
0.00517712
0.0109195
0.00308684
0.00253518
0.00168667
0.00140062
0.00197295
0.00233251
0.0107416
0.00850682
0.0129309
0.0333219
0.000402027
0.000426226
6.10007e-05
0.000172373
0.00012977
0.00015142
0.000147381
6.57984e-05
0.000111156
8.88245e-05
9.18508e-05
0.000119882
5.80353e-05
6.79566e-05
9.85658e-05
0.000123063
7.00532e-05
9.47504e-05
0.00010944
5.7989e-05
3.39834e-05
9.63858e-05
0.000159533
9.79247e-05
5.7092e-05
0
0
0
0
0
0
0
0
0
0
0
0
0
0
0
0
0.00484291
0
0
0
0
0
0.668216
0
0.0229649
0.00576038
0.0320263
0.163155
0.00102159
0.002599
0.00237323
0.00296958
0.00229692
0.00452504
0.00256293
0.00256071
0.000974813
0.00043891
0.00264213
0.00231584
0.00124264
0.000820002
0.00121001
0.00107332
0.000633472
0.00099618
0.00077276
0.0010043
0.00146183
0.00131312
0.00119502
0.00121188
0.00102395
0.000973303
0.000775118
0.00103914
0.00091827
0.000459565
0.000713661
0.000472467
0.000504297
0.00032211
0.000430602
0.000330954
0.000391088
0.00028151
0.000362914
0.00021249
0.000164837
0.000293556
0.0002547
0.000100821
0.000227442
0.00025486
0.000223615
0.000261532
0.000430194
0.000270905
0.000476274
0
0
0.00964254
0.00029095
0
0
0
0
0
0
0
0.00200293
0
0.00756571
0.0415968
0.0447477
0.00275162
0
0.00643592
0.0564629
0
0
0
0.00174686
0
0.00329086
0.00480935
0
0
0
0
0
0
0
0
0.000330224
0
0
0
0
0
0
0.273472
0
0
0
0
0
0
0
0
0
0
0
0
0
0
0
0
0
0
0
0
0
0
0
0
0
0
0
0
0
0
0
0
0
0
0
0
0
0
0
0.0165646
0
0
0
0
0
0
0
0
0
0
0
0
0
0
0
0
0
0
0
0
0
0
0
0
0
0
0
0
0
0.000694101
0
0
0
0
0.000167711
4.65611e-05
0.000160009
0.000103343
0.000153606
4.69963e-05
0.000464058
0.000197583
0.000135106
0.000191042
0.000175091
7.9093e-05
0.000326615
0.000138358
0.000107015
0.00125685
0.00041037
0.00128814
0.000333479
0.00032279
0.000443152
0.000307396
0.000534258
0.000108121
0.00251972
0.000412544
0.0032501
0.00582075
0.00376488
0
0
0
0
0
0.0144129
0
0
0
0
0
0
0
0
0
0
0
0
0
0
0
0
0
0
0.000191834
0.000286682
0.000828438
0.000622237
0.0003784
0.00313243
0.00228019
0.000916182
0.00142964
0.000435219
0.000858234
0.000448548
0.000991549
0.000775942
9.698e-05
0.000627003
0
0.00373705
0
0
0
0
0
0.0013263
0
0
0.00127376
0
0
0
0
0
0
0
0
0.000166627
0
0
0
0
0
0
0
0
0
0
0
0
0
0
0
0
0.00399043
0.0460757
0.00367867
0
0
0
0
0.00977929
0.0143573
0
0
0
0
0
0
0
0
0
0
0
0
0.00444551
0.0415186
0.0767634
0
0
0
0
0
0
0
0
0
0
0
0
0
0
0
0
0
0
0
0
0
0
0
0
0
0
0
0
0
0
0.00574809
0.00575995
0
0
0
0
0
0
0.000274452
0.000351747
0.000447368
0.00050774
0.000815199
9.43509e-05
0.000752796
0.00045365
0.000208524
0.000288149
0.000413255
0.000254285
0.000286247
0.000158237
0.000229465
0.00016376
0.000194922
0.00012372
0.000169629
0.000268292
0.000153551
0.000107521
8.10975e-05
0.000111742
0.000136525
0.000131099
0.000140164
0.000564505
0.00114969
0.000883859
0.000620535
0.00108727
0.00121477
0.00073519
0.000779051
0.000338377
1.66105e-05
0.000895989
0.000255525
0.000160419
0.000122042
5.25942e-05
0.000221634
0.000194583
0.000269101
0.000280205
0.000130569
0.000238787
0.000334342
0.000259219
0.000205759
7.17389e-05
0.000184471
6.72919e-05
5.4646e-05
3.81271e-05
0.000121967
0.00604144
0.00232025
0.00220653
0.00220442
0.0022926
0.00169641
0.00173322
0.00163755
0.00830808
0.00520527
0.00854897
0.0504523
0
0
0.0496127
0.000419063
0.000299334
0.000113047
0.000118722
0.000226298
0.000120887
0.00017529
0.000122639
0.000137429
0.000198635
7.84361e-05
0.000107066
7.13899e-05
9.65326e-05
7.99854e-05
0.000114838
3.0243e-05
4.87455e-05
5.23647e-05
7.38459e-05
4.51694e-05
0.000141066
0.000115441
8.80001e-05
9.04607e-05
9.80573e-05
0
0
0
0
0
0.0351435
0.0335742
0
0
0
0
0.00499432
0.00610943
0
0
0
0
0
0
0
0
0
0
0
0
0.0316713
0.00917171
0.069374
0.00236841
0.00873976
0.00695885
0.00499198
0.00328243
0.00404528
0.000838223
0.000767716
0.00136209
0.00190473
8.26883e-05
0.001407
0.00165823
0.000843744
0.000497211
0.00134968
0.00118125
0.00101556
0.00138653
0.00087577
0.000862622
0.00089208
0.000882209
0.000976025
0.000826231
0.000822743
0.000604852
0.000758148
0.000763758
0.000742175
0.000595827
0.000434571
0.000400084
0.000348219
0.000385717
0.000302392
0.000282521
0.00032531
0.000218352
0.000329138
0.000269846
0.000135098
0.000250001
0.000173945
0.000221459
0.000148755
0.000327635
0.0001915
0.000105143
0.00015306
0
0
0
0
0
0
0
0
0
0.00849924
0
0
0
0.0549582
0.0187562
0.0928176
0.0360788
0.00410954
0.0371025
0
0
0
0
0
0
0
0
0
0
0
0
0
0
0
0
0.000422707
0
0
0
0.236912
0
0
0
0
0
0
0
0
0
0
0
0
0
0
0
0
0
0
0.194489
0
0
0
0
0
0.00307455
0.00114078
0.0047113
0
0
0
0
0
0
0
0
0
0
0
0
0
0
0
0
0
0
0
0
0
0
0
0
0
0
0
0
0
0
0
0
0
0
0
0
0
0
0
0
0
0.00894484
0
0.00105134
0
0
0.00440154
0
0.0107705
0.000137133
0.000150132
3.63272e-05
9.7545e-05
0.000125708
0.000189326
0.000112156
0.000613285
0.000230486
0.000324051
9.14217e-05
1.85264e-05
0.000286951
0.000182815
0.000465396
3.21112e-05
0.000143796
0.000267795
0.000210246
0.000664853
0.000450938
0.000940514
0.000655186
0.000637502
0.000776347
0.000336801
0.00183045
0.000166088
0.00152012
0.0026167
0.00180056
0.00878106
0.00422569
0
0
0.0147901
0.00729682
0
0
0
0
0
0
0
0
0.0173752
0
0
0
0
0.0184783
0
0
0.0483749
0
0
0
0.000850445
0.000395932
0.000697152
0.000184327
0.00338411
0.00320322
0.00051266
0.00143837
0.000879587
0.000310276
0.000338193
0.000887485
0.000881978
0
0
0
0
0
0
0.0140163
0.00747077
0
0
0.00596514
0
0
0
0
0
0
0.0267978
0
0
0
0
0
0
0
0
0
0
0.0245492
0
0
0
0
0
0
0
0
0
0
0
0
0
0
0
0
0
0
0
0
0
0
0.00973185
0
0
0
0
0
0
0
0
0
0
0
0.0728077
0
0
0
0
0
0
0
0.00717679
0
0
0
0
0
0
0
0
0
0
0
0
0
0
0
0
0
0
0
0
0
0
0
0
0
0.00445766
0
0
0
0
0
0
0
0
0.0010162
6.32812e-05
0.000365322
6.47794e-05
0.000858436
0.000448207
8.76884e-05
0.000242248
9.17865e-05
0.000168105
0.000126593
0.000151123
0.000119856
0.000209856
0.000243422
0.000161421
0.000157186
0.000184295
0.000172135
0.000149926
0.00031368
0.000214019
0.000216314
0.000145895
5.74547e-05
0.000194079
0.000172461
0.000259741
0.000619343
0.000884362
0.000891383
0.0009828
0.000648069
0.0010806
0.000902412
0.000926912
0.00011806
0.000613963
0.000470938
0.000781477
0.000139381
0.000140515
0.000163632
0.000189133
0.00018382
0.000188213
0.000148213
0.000156527
0.000644092
0.000499974
0.000495237
0.000828867
0.000481912
0.00044956
0.000278002
0.000151489
0.000241265
0.000136767
0.0036691
0.00722805
0.00275242
0.00121825
0.00153133
0.00145561
0.00111871
0.00197922
0.00453791
0.0140567
0.0183794
0.00874496
0.070507
0.00133279
0.000148072
0.000141804
0.000117965
9.71864e-06
0.000148364
0.000147175
0.000135337
0.000118627
0.000158197
0.000128038
0.000113651
5.84347e-05
7.51807e-05
4.59565e-05
2.46016e-05
5.18596e-05
7.34132e-05
4.44556e-05
3.69237e-05
7.17238e-05
0.00013181
0.000108986
0.000126653
0.000119849
6.2805e-05
0
0
0
0
0
0
0
0
0
0.00562674
0
0
0
0
0
0.000793369
0.00116449
0
0
0
0
0
0.0592986
0.40446
0
0.0144985
0.00311782
0.0064844
0.00694736
0.00506314
0.00344805
0.00469399
0.00285165
0.00252628
0.00108772
0.00131103
0.00101531
0.000706138
0.0015996
0.000677327
0.00140803
0.00167322
0.0002772
0.000517531
0.000755632
0.0010815
0.0014435
0.000407848
0.000899644
0.000822419
0.000710157
0.000559403
0.000900469
0.00055424
0.000620634
0.000537063
0.000567202
0.000628816
0.000351981
0.000420738
0.000338562
0.000329746
0.000310222
0.000270994
0.000287226
0.000236923
0.00027387
0.000111893
0.000158092
0.000204162
0.000119465
0.000241956
0.00016869
0.000148025
0.000170951
0.000161627
0.0001545
0.000185896
0
0
0
0
0
0
0
0
0
0
0
0
0
0
0
0
0
0.0222786
0
0
0.0664953
0
0
0
0.00147157
0
0
0
0
0
0.0514188
0
0
0
0
0
0
0
0
0
0
0
0
0
0
0
0.00792939
0.0121618
0.0116311
0
0
0
0
0.00433446
0
0
0.00534984
0
0
0
0
0.00892203
0
0.00862711
0
0
0
0
0
0
0
0
0
0
0
0
0
0
0
0
0
0
0
0
0
0
0
0
0
0
0
0
0
0
0
0
0
0
0
0
0
0
0
0
0
0
0
0
0
0
0
0
0
0
0
0
0
0.00351341
0
0
0
0.0110615
0
0
9.40356e-05
0.000164816
7.15439e-05
0.000118286
0.00012974
0.000223899
7.33236e-05
8.67864e-05
0.000169573
0.000396058
0.000227726
8.52441e-05
0.000418426
0.000137309
0.000147651
0.000182163
0.000129837
0.000410296
0.000136959
0.000246374
0.000106054
9.82592e-05
0.000174977
0.000146383
0.000802282
0.00125863
0.00219276
0.000560117
0.00157431
0.00105533
0.00101746
0.00111008
0.00226139
0.000322705
0.00224565
0.00480104
0.0138584
0
0
0.0125758
0.00459622
0
0
0.0124362
0
0
0.020691
0
0
0
0.0138483
0.0176453
0
0
0
0
0.0155427
0
0.0103235
0
0
0.000685907
0.00144011
0.00234305
0.000333995
0.0031231
0.0021396
0.000676453
0.00104321
0.00155113
0.000899136
0.000122489
0.00153069
0
0
0.000805613
0
0
0.00216445
0.000791528
0
0
0
0
0
0
0
0
0.0538038
0.118269
0
0
0.00651111
0
0.00909835
0
0
0
0
0.0266738
0
0.00925476
0.0357817
0
0
0
0
0
0
0
0
0
0
0
0
0
0
0
0
0
0
0
0
0
0
0.0206204
0
0
0
0
0
0
0
0
0
0
0
0
0
0
0
0
0
0
0
0
0
0
0.00755263
0.00208704
0
0
0
0
0
0
0
0
0.00209696
0
0
0
0
0
0
0.00139096
0
0
0
0
0
0
0
0
0
0
0.142908
0
0
0
0.00636692
0
0.000568196
0
0
0
0
0
0
0
0.000525252
0.000397092
0.000523078
0.000200049
0.000171369
9.07143e-05
0.000152466
0.000127843
0.000112227
7.73758e-05
0.000130166
0.000118418
0.000171497
0.000143089
0.000192294
0.000107542
0.000183144
0.00029229
0.00018281
0.0002574
0.000152038
0.000174435
0.000121647
0.000140108
0.000239371
0.000279137
0.000151198
0.000180054
0.00023738
0.000731943
0.000771586
0.000830526
0.000931171
0.000920838
0.00097139
0.00095235
0.000972676
0.000546389
0.000274461
0.000612316
0.000581671
3.0869e-05
1.59648e-05
0.000193227
0.00012572
0.000111488
4.85052e-05
0.000360913
0.00026934
0.000458274
0.000244823
0.000653867
0.000527135
6.41196e-05
6.57029e-05
0.000187844
0.000359648
0.000267367
0.00237118
0.00328222
0.00307729
0.00184526
0.00178006
0.00103576
0.00239954
0.00164544
0.0129687
0.00480168
0.00886842
0.00204496
0.00648928
0.00281729
0.000111066
0.000104727
5.59826e-05
0.00012174
0.000127592
0.000114313
7.38172e-05
8.19741e-05
5.31509e-05
4.6443e-05
3.09446e-06
6.51648e-05
1.43804e-05
2.13797e-05
8.86194e-05
4.05861e-05
4.53747e-05
6.14957e-05
6.93167e-05
3.09702e-05
4.46032e-05
0.000103418
7.95331e-05
8.08049e-05
0.00710086
0.0131162
0.0199846
0
0
0
0
0
0
0
0
0
0
0
0
0
0
0
0
0
0.0126476
0
0.170449
0
0.0124422
0.0133935
0.00348142
0.0142626
0.00241933
0.00556267
0.00603604
0.0102627
0.000988793
0.0022063
0.00137133
0.00155578
0.00185931
0.000806232
0.00135281
0.00127505
0.00109619
0.00134004
0.00112521
0.000762366
0.00116119
0.000708346
0.00116499
0.000710387
0.00107752
0.000898213
0.000691395
0.000353513
0.000935497
0.000530548
0.000631662
0.000478978
0.000483398
0.000384298
0.000318288
0.00034803
0.000318343
0.00026083
0.000282603