/*--------------------------------*- C++ -*----------------------------------*\
  =========                 |
  \\      /  F ield         | OpenFOAM: The Open Source CFD Toolbox
   \\    /   O peration     | Website:  https://openfoam.org
    \\  /    A nd           | Version:  8
     \\/     M anipulation  |
\*---------------------------------------------------------------------------*/
FoamFile
{
    version     2.0;
    format      ascii;
    class       surfaceScalarField;
    location    "6240";
    object      phi;
}
// * * * * * * * * * * * * * * * * * * * * * * * * * * * * * * * * * * * * * //

dimensions      [0 3 -1 0 0 0 0];

internalField   nonuniform List<scalar> 
788991
(
-0.0418083
0.00280438
-0.0341699
-0.044238
0.0129387
-0.0433156
-0.00957071
-0.00108601
-0.051878
0.0355765
-0.0288897
0.0283001
-0.00241154
-0.0515166
-0.0280108
-0.037126
0.0509251
0.00206622
-0.0408838
0.0396537
0.0298283
0.0247372
-0.0430208
0.0247566
-0.0361776
0.0412855
-0.0306443
0.0174911
0.00248289
0.0271666
0.00617989
0.0361677
0.0413412
0.00255559
0.0542701
0.0039341
0.00026917
-0.0352467
-0.0550408
0.00841652
-0.0263075
0.0400359
0.0119421
-0.0359575
0.0424674
-0.0181672
-0.0289769
0.0175468
-0.0142283
-0.0623159
-0.0222248
0.0462467
-0.0430247
-0.00915742
0.0336148
0.00350308
-0.00367646
-0.00662929
0.0364642
0.0193922
-0.00290732
-0.00827114
-0.0157216
0.00914815
-0.0101542
0.0142654
0.00416291
-0.0104514
0.00979081
0.00306077
-0.0139574
0.0113829
0.0040454
0.00559822
0.00805999
-0.0503598
-0.00179151
-0.0261573
0.0244215
0.00961546
0.0198412
-0.0416763
0.0511141
-0.0242584
0.00962968
-0.0437231
0.0327235
-0.0308722
-0.0322906
-0.0199097
0.046349
-0.00152418
-0.0416722
-0.0443755
-0.00385351
0.0288221
0.000602
0.0185266
-0.0364085
0.0144925
0.0510625
0.00668337
-0.0143443
-0.0408557
0.0243963
0.0325604
0.0302879
0.0105034
-0.00421359
-0.0211961
0.0197853
0.0269461
-0.00480012
-0.0247539
0.00742593
-0.0343393
0.010178
-0.0096518
-0.00530251
-0.0124514
-0.00792769
-0.0441491
-0.024043
-0.0489097
-0.00741189
-0.00500509
0.0339895
0.0469027
0.0179993
-0.0219384
0
0
0
0
0
0
0.0115421
0.0103588
0.00644858
0.00406746
0.0283949
0.0065767
0.0305229
0.0346825
0.0108692
-0.0253791
0.063808
0.0163669
0.0403636
0.0340128
0.0118305
-0.0358936
0.00524726
0.000187914
0.0348609
0.0103033
-0.0320339
-0.0149499
0.0137028
-0.08028
0.0384401
-0.0332583
-0.00362777
0.0626055
-0.0657317
0.0524926
-0.0425285
0.0154365
0.0733081
-0.0691716
0.0486207
-0.0583718
0.032804
0.0863883
0.0548481
0.0419604
0.0800915
0.0293882
0.0675558
0.0376479
0.0411335
-0.0517037
-0.012131
0.031184
-0.0198885
0.0149759
-0.0590725
-0.0112039
0.0486579
0.0316415
0.0519489
0.0229132
-0.0458211
0.0320972
-0.00417389
0.0261543
-0.0309356
-0.0355118
0.00563314
0.00967502
-0.00722026
-0.0228072
-0.0102678
0.0335426
0.0335152
-0.00934339
-0.0116193
-0.0178353
0.0187446
0.0130026
0.0370018
-0.0139607
-0.00479134
0.0328017
0.0388172
-0.00470614
0.0179603
0.00539192
0.0477144
-0.0112131
0.0225437
0.0245696
-0.00249088
-0.0156267
0.029571
0.0178979
0.00299352
0.0436138
0.0401147
-0.00159531
0.0122766
0.0434359
0.0199125
-0.0656569
0.038582
-0.00427198
-0.03752
-0.0609696
0.0635051
0.114072
-0.0557965
0.0827396
0.00474333
0.0269736
-0.0343499
0.0300848
0.0439441
0.0333742
0.0327465
0.0641475
-0.0355621
0.0301104
0.0454127
-0.0235696
0.0363526
0.0327959
-0.0110881
0.0349019
0.0500228
0.0199736
0.0363984
0.0530467
-0.024153
0.0510903
0.0271628
0.0389377
0.0626229
0.0609975
-0.0143708
0.0306968
0.0135269
-0.012071
-0.0375907
0.0645848
0.0510023
-0.0395159
-0.0188747
-0.0292127
-0.0223639
0.0291355
0.00712973
-0.0349718
-0.0485896
0.025678
0.00851883
-0.0162507
-0.0211678
0.00556958
-0.00121232
0.00113373
-0.029842
-0.000702497
-0.00329152
-0.0064799
0.0040261
0.0169051
-0.00525027
0.0240534
0.0114574
-0.00861042
0.0111275
0.0270321
-0.013973
-0.00135114
0.0223072
0.0217977
-0.0195833
0.0165306
-0.0261809
-0.046488
0
0
-0.0213839
-0.00645121
0.0346003
0
0
0
0
0
0
0
0
-0.0341367
-0.0124894
-0.0210863
-0.0190296
-0.00432047
-0.0169706
-0.0405881
-0.0476443
-0.0036156
-0.0261387
-0.0342708
-0.013141
-0.0464784
-0.0394052
0.0145939
-0.0414834
-0.0169867
0.0278658
-0.0242615
-0.0198588
0.0102117
-0.0190345
-0.0166315
0.0212525
0.0310924
-0.00420522
0.0156698
-0.014059
-0.0147424
0.00162469
0.0142681
0.000458717
-0.00634666
0
0
0
0
0
0
0
0
-0.00783168
0
0
0.0353893
0.0161175
0.0188347
0.0386967
0.0251898
0.0248698
0.0628925
0.0204189
-0.0325589
0.0573699
0.0190869
-0.0268747
0.0308885
0.0172942
0.0223191
0.00172626
0.00317387
-0.0163463
0.0240436
0.0197344
-0.00814183
0.0192206
0.0320891
0.0111791
-0.014123
0.0306133
-0.0256875
-0.0480269
0.0225152
-0.0580615
-0.0149665
0.0221116
0.0568105
-0.0761672
-0.0121311
-0.0556709
-0.0360307
-0.0362956
0.0184883
0.0587165
-0.00351838
-0.0288286
0.00626993
-0.00251823
0.000632247
-0.0334311
-0.023059
-0.0285692
-0.0197859
-0.00786814
0.0334346
0.00957167
-0.00206282
-0.0762191
-0.0281717
0.0510605
-0.0213295
0.0310924
-0.0351589
0.0125123
-0.0133994
-0.0026576
-0.0431015
-0.0442667
-0.00529817
0.0303032
-0.019897
-0.0351135
-0.0416975
0.0938631
-0.0402429
0.0389865
0.0642565
-0.00788899
-0.0141222
-0.000142821
-0.00857996
0.00127502
-0.0371114
0.0141494
-0.00243093
-0.0141916
0.0343647
0.00164156
-0.00245901
0.0209482
0.0246788
-0.0120292
0.0307527
0.0446746
0.0310492
0.0355478
0.0662806
-0.0522491
-0.137716
0.0921433
-0.0549635
-0.0705344
-0.132894
-0.0420609
0.0822789
-0.00800705
-0.00157869
0.0349168
-0.0110552
-0.0181421
0.0368548
0.0230988
-0.00195009
0.0246868
0.0251464
0.00496955
0.0275325
0.0266437
0.00674473
0.0234449
0.0405974
-0.00698467
0.0136764
0.0461186
-0.00620693
0.0250257
0.0545984
-0.00995398
0.0181438
0.0539305
0.0199905
-0.00133965
0.0654576
0.00857948
0.00926739
0.0526187
0.0195745
0.0228885
0.0536804
-0.00369832
0.0428879
0.0465552
0.0308116
0.032602
-0.0264952
-0.00335826
-0.0176248
-0.0417736
-0.0200001
0.0343458
-0.05505
0.058728
-0.00297505
0.0252378
0.00607753
0.0180073
0.0212506
-0.0383163
-0.0202569
-0.064261
0.0223598
-0.0149943
-0.0291189
-0.010022
-0.0276777
0.00242587
-0.024018
-0.00403085
0.0121403
-0.0208476
-0.0211296
0.0400957
0.0391478
-0.0237294
0.00176705
-0.0363834
0.0202145
0.0336485
0.00385185
0.0489611
0.0166129
0.0289297
0.0204556
0.00777011
0.0115446
0.0550267
-0.0495468
-0.00460619
0.0470447
-0.0516138
-0.0189775
0.0421428
-0.0454718
0.00270726
0
0
-0.0175785
0
0
-0.0129296
0
-0.0412014
0
0
0
0
0
0
0
0
0
0
0
0
0
0
-0.0362008
-0.026073
0.00151614
-0.00804713
-0.0180196
0.00691812
-0.0362605
-0.0314442
0.0101425
-0.0356819
-0.0289926
0.0205537
-0.0529359
-0.0292528
-0.0165327
-0.0153962
-0.0105903
0.029161
-0.0182798
-0.0318308
0.0060038
0.000626923
-0.00589854
0.00145751
-0.0177219
-0.0179796
-0.00897999
0.00324435
0.00391073
0.00686378
0.0193322
-0.00354235
-0.00492369
3.67073e-05
0
5.15121e-05
0
0
2.54394e-05
1.11467e-05
-5.34711e-05
-7.36637e-06
9.49623e-05
0
-6.46485e-05
0
0
0
0
6.06224e-05
0
0
-3.91839e-06
0
0
0
0
0
0
0
0
0
0
0.0352682
0
-0.0271199
0.0324171
0.0813167
-0.0111803
0.0581525
0.0177539
-0.0191567
0.051792
0.0255093
0.021723
0.0449068
0.0247537
-0.00770381
0.0201356
0.0267497
-8.57163e-05
-0.0068828
0.0154055
0.00699926
0.0358259
0.0143
-0.0158971
0.0301696
0.0227218
0.00189838
-0.00254641
0.0243616
-0.00813602
-0.019722
0.0409896
-0.024402
-0.0098356
0.0673197
-0.00987462
-0.0145154
-0.0172352
0.0177217
-0.0112976
-1.77446e-05
-0.0175542
-0.0689974
0.0315863
-0.0128964
0.0030238
-0.00347736
0.0162234
0.0153347
0.040821
-0.0562097
0.000691384
-0.00120133
-0.0344633
0.0225478
-0.0420333
0.00298455
0.0118404
-0.051447
-0.0225461
0.0227094
-0.0480123
0.00739203
0.0149506
-0.00332922
-0.00113418
0
-0.0264729
-0.0242172
0.0141829
-0.0557834
0.00747182
-0.00973622
0.0616991
-0.0802835
-0.0691784
0.018258
-0.0567431
-0.0192373
0.05402
-0.0785187
-0.0126409
-0.00303453
0.0261687
0.0551668
0.0418524
-0.00609862
-0.0250146
0.000202555
-0.0397014
-0.019657
0.00428249
0.00918938
0.0358691
-0.00476882
0.0117005
0.00430582
-0.00105039
0.00767472
0.00886748
-0.0121495
0.0250754
0.0265744
-0.0236032
0.0566501
0.0585689
0.0601143
0.0355592
0.0957134
0.100553
-0.259688
0.144001
-0.106274
-0.087747
-0.195237
0.0556673
-0.117027
-0.00521517
-0.027272
0.019413
-0.0240006
-0.0204567
0.011278
0.00868933
0.0254139
0.00403794
-0.0349704
0.0119808
0.0124957
0.00336552
-0.0242924
0.0493566
0.065426
-0.0297782
0.0665565
0.0803016
0.00235355
0.0308012
0.0278559
-0.00861897
0.0135339
0.0233563
-0.0335518
-0.00797377
0.00374847
-0.0240004
-0.00146579
-0.0424973
0.027596
0.0281962
0.0178615
0.0200694
-0.0368793
0.0250362
0.00448248
0.01072
0.017206
0.0155339
0.0531463
0.031315
-0.00185845
-0.0341498
0.0105092
-0.0336885
-0.0028442
0.042086
-0.0269134
0.0352773
0.0339094
-0.0671911
0.0627948
-0.0133285
0.061095
0.0906758
0.0270282
-0.00703227
0.0635712
-0.0444965
-0.00965473
-0.0169163
-0.027364
-0.0538311
-0.0139137
0.0296734
-0.000170243
-0.0242581
-0.0207254
0.00510526
-0.0156409
-0.0268632
0.0218727
-0.0309572
0.0536013
-0.0274382
0.0381176
0.034058
0.00625582
-0.00735676
0.0383044
0.00400288
0.0159681
-0.00482543
-0.00749352
0.000265339
-0.0086898
-0.0296148
0.00838197
-0.0345093
0
0
0
0
0
0
-0.00042279
0
0.000455297
0
0
0
0
0
0
0
0
0
0
0
0
0
0
0
0
0
0
0
0
0
0
0
0
-1.48552e-05
0
1.48358e-06
0
-4.27335e-06
-3.49534e-06
2.41719e-06
0
-7.22016e-07
-3.74861e-06
-1.04894e-06
0
-4.0445e-07
0
0
0
0
0
0
0
0
0
0
0
0
0
0
0
0
0
-0.0173726
-0.0421887
-0.0161201
0.00781129
-0.0392564
0.0256323
-0.0539717
-0.0201675
0.0241984
-0.055062
-0.0317647
-0.0264697
-0.0284409
-0.0206446
-0.0137109
-0.0130105
-0.0148234
-0.0110951
-0.0144516
-0.00163217
-0.0100086
-0.0125079
-0.0187505
-0.00288972
-0.010151
-0.00654503
7.53914e-05
0.0105479
-0.00835683
0.0124056
0.0250246
0.025004
-0.000454758
0
0
0
0
0
0
0
0
0
0
0
0
0
0
0
0
0
0
0
0
0
0
0
0
0
0
0
0
0
0
0
0
0
0
0
0
0
0
0
0
0
0
0
0
0
0
0
0
0.00035747
0.000219975
0.0447611
0.00896685
-0.0402536
0.0422083
0.0713412
-0.00583723
0.0482317
0.0586597
0.00207039
0.0391042
0.0500698
-0.00298276
0.0351556
0.0386718
-0.0153508
0.0101036
0.0388777
0.026069
-0.0291027
0.0298678
-0.0370484
0
0
0
6.78298e-07
0
0
0
0
0
0
0
0
0
0
0
0
0
0
0
0
0
0
0.0361261
0.00509592
-0.0225094
0.0268658
0.00722638
-0.00859941
0.0385884
0.0135038
-0.0202187
-0.0185289
0.0224594
-0.00338472
0.0111668
0.0115422
-0.0122862
-0.014658
-0.000405096
0
0.000731503
0.000202666
0.0195062
-0.0798099
-0.0674124
0.0870406
-0.031886
0.0311844
0.0263083
-0.0336527
-0.0429638
0.029934
-0.00829961
0
0
-0.0137381
0
0
0
0
0
0
0
0
0
0
0
0
0
0
-0.0611592
0.123106
0.0186598
-0.059149
0.0378637
-0.0804896
-0.130209
-0.0472813
0.0646019
-0.0587542
0.109551
-0.0583053
0.0566321
-0.0651675
-0.0668088
0.0898065
-0.110123
-0.0771449
0.0369089
-0.0588679
-0.0107548
0.0605652
-0.127985
-0.00231122
0.00872451
0.00390807
0.0447045
0.0989112
-0.0203631
0.0237214
-0.00571425
0.0827482
-0.00940082
0.00720005
-0.00623081
0.0266828
0.000971991
0.00564584
0.00931872
0.00451102
0.00409836
-0.00579541
0.00421187
0.0198795
0.0156695
0.0431988
-0.0322702
0.0415157
0.0865546
0.0154276
0.0831673
-0.135789
-0.36213
0.0549264
-0.337028
-0.0482384
-0.175051
0
-0.0141525
-0.00954329
0.0138936
-0.0058334
0.000152596
0.00937794
0.0020817
-0.0255879
-0.0354602
0.0163113
-0.0210263
-0.0143931
0.0317278
0.0444162
0.043831
0.0308846
0.0799909
-0.0386957
0.0218791
0.0135781
0.00735019
-0.00132674
-0.031658
-0.00927169
0.00299232
0.000524352
0.0381261
0.0338509
0.074117
0.0517341
0.0570618
0.031658
0.00454932
0.0736739
0.0271597
-0.0335522
0.0498155
0.0233519
0.00521387
0.042759
-0.00453585
0.00147187
0.0231852
0.0111245
-0.00746939
0.0278374
0.0388814
-0.0208834
-0.0259734
-0.0456235
0.0194609
0.0577978
-0.0404998
-0.0360606
0.0686552
-0.00479506
-0.0676161
0.117828
0.0157347
-0.073354
0.126625
0.0526678
0.0651379
0.0843651
0.0304833
0.0382249
-0.0690479
0.0618773
-0.0676107
0.0693234
-0.0140648
0.0195097
0.0552424
0.000672928
0.0705038
0.00899579
-0.062796
0.0484364
-0.0514723
0.00387784
0.00657431
-0.0513018
0.0575432
-0.0462592
0.00907796
0.00501313
-0.0495579
0.0526261
-0.0464292
0.00616112
-0.00116746
0.0524756
-0.0231577
-0.0497543
-0.0212166
-0.0102327
-0.0508769
0.00557845
-0.0477683
-0.0378115
-0.0258447
-0.0437884
-0.00217627
-0.0311897
0.022958
-0.0099814
-0.0306308
-0.0256827
-0.00645849
0.0204055
-0.0452749
0.0216312
-0.0204536
0.00679617
-0.0509731
0.0176074
-0.0193639
0.0112409
-0.0190632
0.0123884
0.00440722
-0.0162463
-0.0126628
-0.0108562
-0.0298051
0.0241604
-0.0243814
0
-0.00627852
-0.0108215
-0.0157144
-0.047914
3.79062e-05
0
0.00635649
0
0.0246389
-0.0206955
0.00192107
-0.0318548
-0.0287407
-0.00598407
0
-0.0314479
0
0
0
-8.69919e-05
1.23438e-06
0
0
0
0
0
0
0
0
0
0
0
0
0
3.68136e-05
9.76465e-05
0
0
0
-8.59665e-05
0
0
0
0
0
0
0
0
0
-2.70576e-05
-0.000128215
0
0
0
0
0
0
0
0
0
0
0
0
-2.01501e-06
0
0
0
0
0
-2.73439e-05
2.6127e-05
0
-5.88493e-05
-5.68564e-05
-3.64196e-05
0
0
0
-5.70822e-05
0
-0.000128528
-6.16236e-05
2.44996e-05
0
-1.78597e-05
-0.000123983
-1.56411e-05
-0.000118917
-1.45678e-05
-8.06158e-06
5.57818e-05
-6.47097e-05
0
0
0
-0.000107754
0
0
0
0
0
0
0
0
0
0
0
0
0
0
0
0
0
0
-0.000110919
0
5.11673e-05
0
-5.99126e-05
0
-0.00438233
-0.0665367
0.0327417
0.0174236
-0.0576337
-0.0446724
-0.054576
-0.0243103
-0.03057
-0.0257801
-0.0238954
0.0335037
-0.00732099
-0.0169978
0.00393899
-0.0184936
-0.00702636
-0.0214042
-0.0243256
-0.00951768
-0.000524612
0.000142026
0.00556992
-0.0223633
-0.0148644
-0.0161839
-0.0087071
-0.0046592
-0.00580615
-0.0162915
0.0100208
0.0194255
-0.0157421
0
0
0
-3.71608e-05
3.69691e-05
8.28778e-05
0
0
0
0
0
0
5.58337e-05
0
-1.83044e-05
0
0
0
0
0
0
0
0
0
0
0
0
0
0
0
0
0
0
5.88351e-05
6.23318e-05
3.39628e-05
0
-5.57411e-05
0
0.000347917
0
-6.71947e-05
-0.0500907
0.000142534
-0.0318234
0.0314816
-0.0110861
0.0180639
0.0473164
0.0538719
0.0257877
0.0425092
0.0708637
0.0280995
0.0318259
0.0617219
-0.0245978
0.020601
0.0553832
-0.0427476
-0.0131254
0.0492456
0.0545518
-0.0415394
0.0560288
0.0360418
3.73566e-05
0
0
2.23385e-05
0
1.36504e-05
0
-6.85613e-07
0
2.17394e-08
0
2.10948e-06
-1.38943e-06
0
0
0
0
0
0
7.59314e-06
0
0
-9.08921e-07
0
0
0
0
0
0
0
0
0
0
0
0
0.00126503
0
0.00294245
0.0149165
-0.00654457
0.0153738
-0.0199712
-0.0246966
-0.0117807
-0.0161959
-0.00141794
-0.0151999
-0.0144111
-0.0211432
0
0
-0.000166099
0.000111221
0
0
0
0
0
0
0.00242515
0
0
-0.0138401
0
-0.0132155
-0.00608628
-0.0104793
-0.0276472
0
0
0
0
0
0
0
0
0
0
0
0
0
0
0
-1.52337e-05
0
-1.50316e-05
-0.0535966
-0.0754602
-0.0236998
-0.0828676
-0.133484
-0.0468119
-0.0864026
-0.140589
-0.0280318
-0.0991434
-0.0635126
-0.0657143
-0.052609
-0.0374365
-0.00848309
-0.054727
-0.0458306
-0.00676543
-0.0448872
-0.0439068
0.00944512
-0.0598983
-0.0453199
0.0159402
-0.037416
-0.042397
0.00824764
-0.00876856
-0.0424118
0.0324309
-0.00125777
-0.039387
-0.0311464
0.00446294
-0.0317323
-0.0229115
-0.0102804
-0.00284157
0.00824687
0.00441184
-0.0117772
-0.0257954
0.00408593
0.0162223
-0.120137
-0.0239156
-0.101437
-0.10926
-0.0738124
0.0211812
0.0224987
-0.04542
0.0313692
-0.104815
-0.0301585
-0.0229631
-0.0250051
-0.0217988
0.0327668
-0.0526269
0
0
-0.0494474
-0.0158299
-0.00784689
0.0266949
0.025624
-0.0210877
-0.00933752
-0.0232505
0.0230844
0.03004
-0.0172002
-0.0712457
0.000560507
-0.0284792
0
-0.0317161
0
0.0145381
-0.507882
-0.012643
0
0
0
0
0.00332492
0
-0.00264392
0.0108573
-0.0134327
-0.00937401
0.0122145
0.00122802
-0.0269131
0.0284055
0.012876
0.00707406
0.00987008
0.00346126
0.0280526
0.0254432
0.046563
-0.0150514
-0.00118301
0.0287679
-0.0245974
-0.0163263
-0.0509557
0.00717888
0.0113254
0.00931389
0.0445425
0.0363577
0.105799
-0.0427626
0.0129561
0.0577837
0.0354417
0.0262171
-0.00354638
0.00620773
0.0588805
-0.0130596
-0.0241922
-0.0164341
-0.0492572
-0.0207477
-0.0184066
-0.0213133
0.00301827
-0.00791249
-0.00594077
-0.00461619
0.00383397
0.0776322
-0.0396763
0.0442141
0.063087
0.0237048
0.0881663
0.0343402
-0.0644462
0.0940485
0.0369187
0.0783704
0.109656
0.0034881
-0.071533
0.0895526
0.0129418
-0.0640996
0.0625498
0.0221208
0.0691954
0.0784594
0.0191564
0.0731315
0.0615515
0.0137998
-0.061587
0.0542259
0.0115524
-0.0560747
0.046218
-0.00882898
-0.053394
0.0408353
-0.0192051
-0.0555781
0.0251744
-0.0106345
-0.0461522
0.00802053
-0.00893485
-0.0363462
-0.00504934
-0.0475025
0.0290695
-0.00218935
0.00838886
-0.0121152
-0.0149264
-0.0157212
-0.0505857
-0.0147905
-0.0147942
-0.00505821
-0.0109028
-0.0147753
0.00918095
0.0177569
0.00094136
-0.00642896
-0.00786712
-0.0221307
-0.0134019
-0.0103868
0.0117995
0.0539883
-0.037072
0.0285478
-0.0922902
0.0243416
-0.0158358
-0.0724314
0.0241679
-0.0208766
0.00369905
0
-0.127545
-0.145936
0
0
0
0
-0.0201629
-0.0298963
0
0
0
-0.0297455
0
0
-0.000197942
0.000230412
-1.09171e-05
0
-8.39189e-05
0
0
0
0
0
0
0
0
0.000241072
0.000564023
-0.000146523
0.000285894
-0.000442252
0
0
0
-3.15794e-05
0
0.000117359
0
-4.86367e-05
0
0
0
0
0
0
0
0
-1.68182e-07
-5.82762e-05
-0.000244407
0
4.02005e-05
0
-0.000160007
0
0
0
0
0
-0.000203923
0
0
-7.49381e-07
-2.06388e-06
0
0
0
0
-6.14169e-05
-2.56673e-05
0
0
0
-6.51652e-05
0
0
0
0
0
-5.7768e-05
0
0
-6.44054e-05
0
0
0
0
0
0
0
0
-0.000135765
0
7.69763e-05
-5.66809e-05
0
5.62476e-06
0
-5.09668e-05
0
0
0
0
0
0
0
0
1.31569e-06
0
0
0
0
-0.00882277
-0.0574046
0.0379237
0.0171902
-0.034963
-0.0493196
-0.0287768
-0.01382
-0.0192949
-0.0201722
0.00521086
-0.00298113
-0.0194142
-0.0124665
-0.0143001
-0.0184388
0.00343301
0.0161344
-0.0141328
-0.0131679
0.00987878
-0.00550484
-0.0116756
-0.00253844
-0.0199396
-0.00273132
0.0168058
0.0119039
-0.00749059
-0.00800504
0.00281825
0.0131589
-0.0138367
-5.02296e-05
0
-1.58629e-05
8.14537e-05
-1.57577e-05
-4.56745e-06
0
0
0
0
0
0
0
0
0
0
0
0
0
0
0
0
0
0
0
0
0
0
0
0
-8.61346e-05
0
0
0
0
0
0
0
0
0
0
0
-0.030727
0
-0.0114142
0.0147136
-0.023143
-0.0103434
0.0303606
0.017317
0.0274749
0.034588
0.0485605
-0.0408518
0.0241002
0.0602174
0.036279
-0.000441261
0.0619711
0.0555676
-0.0176282
-0.0227574
0.0546634
-0.040941
0.0562495
-0.055052
0
0
0
0
0
0
0
0
0
0
1.56644e-06
0
0
0
0
0
0
3.24615e-05
9.00019e-07
-0.00169318
0
0
0
-6.81653e-05
0
0
0
0.000265714
0
-0.000259704
-0.00164817
6.3171e-05
-0.000308762
0
0
0
0
0
0
0
0
0
0
-0.00127298
0
0.0511168
0.0095575
0.000285984
-0.0189939
-0.0280835
-0.00549657
0
-0.00382823
0.00952514
-5.49786e-05
0
0
-0.0123453
-0.0200411
-0.0751216
0.0171006
0
0
0
0
0
0
-1.22456e-05
-1.72201e-05
1.3009e-05
0
-9.58579e-06
0
0.0128956
0
-0.0431235
-0.0313669
0.0338722
0
0
-2.31136e-07
0
-1.55001e-06
0
0
0
0
0
0
0
0
0
0
0
0
0
0
0.0541092
0.0472692
0.0204562
0.0274781
-0.0285654
-0.0319799
0.0479823
0.0352654
-0.021492
-0.0276167
-0.0229068
0.0341189
0.00355448
-0.0390442
-0.012035
0.0391698
0.0118402
0.0060056
-0.0133588
0.00412044
-0.00800231
-0.00178211
-0.00366715
0.00433775
0.00348375
-0.000504984
-0.0115507
0.000608426
0.0070775
0.0045184
-0.0119657
0.00537865
0.0157182
-0.0331877
-0.00523741
0.00993623
0.0059086
-0.00764665
-0.00329324
0.00934367
0.00892268
-0.00264588
-0.000523532
0.00399945
0.00171695
-0.0542174
-0.0574232
-0.0212898
-0.070898
-0.126601
-0.0483223
-0.0693077
-0.0998353
0.0116784
-0.097073
-0.0576359
-0.0678187
-0.0355549
-0.0265987
-0.0082022
-0.0509845
-0.0225569
0.00047084
-0.0444432
-0.0417594
7.02575e-05
-0.0326978
-0.0333475
-0.0171188
-0.0182513
-0.0396446
-0.0316447
-0.0126292
-0.0465487
-0.0291547
-0.0134193
-0.0399543
-0.0254925
-0.00764415
-0.040771
-0.0039921
-0.00933261
0.0105123
-0.0066923
-0.0278442
0.000459804
-0.00378416
-0.0110057
-0.130442
-0.0556186
-0.0528796
-0.079151
-0.118877
0.0755118
-0.105633
-0.0909671
-0.0204818
0.036879
0.0164678
-0.0245444
0
-0.0894466
-0.110675
-0.0135178
-0.0187076
-0.0130869
-0.00543202
-0.0067667
-0.0117567
0.0028316
0.0106419
-0.00451297
-0.00698773
0.0284415
-0.001116
-0.0222999
0.0455576
0.00808624
-0.02202
0.0419128
0.0186948
-0.00382457
0.0338144
0.0291148
0.00270185
0.0465218
0.0355176
0.0380417
0.0116283
0
1.86681e-05
2.66661e-05
0
-0.0169339
0.0497809
-0.0693109
-0.0200089
-0.0151122
-0.0574261
0.0270305
0.0481794
2.26677e-05
-0.036236
-3.25346e-06
4.03685e-05
-3.23194e-05
-2.47964e-05
0
-5.38914e-05
0
0
0
0
0
0
0
-0.027819
0
0
-0.0597086
0.012903
0.010726
-0.00245495
-0.00690876
0.0106466
-0.0539081
0.035321
0.00314608
0.00802031
0.0392218
-0.0801505
-0.00530865
-0.0190209
0.0164946
-0.0269577
-0.0271152
0.00689149
-0.0117084
-0.00400177
0.0539618
-0.0280103
0.0232384
-0.0457306
0.00155389
0.0421338
-0.0711838
0.03333
0.117251
-0.0552407
0.0290385
0.0201339
0.0134507
0.0686577
0.0475352
0.0389776
0.0626535
0.0670798
0.0177652
0.0620562
0.0133106
0.0271901
0.0405814
0.0195801
-0.0210852
0.0300147
0.0958498
-0.0367058
0.0239202
0.0940074
0.0504707
0.0959701
0.0701363
0.0704763
0.0581898
-0.0146243
-0.103069
0.0745113
-0.0443445
-0.0611278
0.0615593
0.00889589
0.0923649
0.080247
0.0110613
0.0826418
0.0759106
0.0192164
-0.066496
0.0664986
0.0115374
-0.0641897
0.0456125
-0.00473929
-0.0628651
0.0372002
-0.0229374
0.0581061
0.0376315
-0.0190167
-0.0502337
0.0175896
-0.00546304
0.0382736
-0.00535696
-0.0333023
0.0284018
-0.0073958
0.00750766
-0.00837319
-0.0266989
-0.112442
0.0217981
-0.011722
0.0175167
-0.00291283
0.00525576
-0.0347032
0
-0.00950909
0.0575868
-0.015677
-0.00170133
0
0
-0.0881197
0
0
-0.000911129
0
-0.0180862
-0.0235903
-0.0189039
0
0
0
0
-1.30616e-05
0
0.000166759
0
-0.00727752
0
0
0.000155341
0
0.000173253
0
-0.000221789
0
4.01327e-05
0
0
0
0
0
0
0
-0.00034247
7.03655e-05
-4.09987e-06
0
-3.39622e-05
0
-0.000172244
1.85218e-05
-6.22019e-06
3.20434e-05
0
0
0
0
0
0
0
0
0
0
0
0
1.83049e-05
0
-0.000191846
0
0
0
0
0
0
0
0
0
0
0.00329134
0.0020919
0
-6.65062e-06
-5.78167e-06
0
0
0
-3.58126e-05
0
0
0
0
0
0
0
0
0
0
0
0
-3.97277e-06
-0.000102025
0
0
0
0
-7.25693e-06
-7.1087e-06
0
0
0
0
0
0
0
0
0
0
0
0
0
0
0
0
0
0
0
0
0
0
0
0
0
0
0
1.621e-05
0
-3.81479e-05
0
0
0
7.25155e-05
0
-5.74023e-06
0.00507527
0.00844067
-0.0302994
-0.0247109
0.0328901
-0.0186852
0.0361523
0.0258708
0.00235246
-0.0250575
-0.0278303
0.0285766
-0.0183147
0.037528
-0.0261818
0.00370887
-0.00958709
-0.00873616
-0.012878
0.0117316
-0.0148929
-0.00935896
-0.013729
-0.00130693
-0.00304823
-0.00991748
0.00128154
-0.000194858
0.00352863
-0.00420804
0.00940139
-0.00405968
-0.00190712
0.0103741
0.00755537
-0.00559419
0.00698766
6.60698e-06
0
0
0
0
0
0
0
0
0
0
0
0
0
0
0
0
2.44069e-05
0
-9.44369e-08
0
0
0
0
0
0
0
0
0
0
0
0
0
0
0
0
0
0
0
0
0
-0.0178711
0.0479143
0.0440456
-0.0191988
0.00642027
-0.012416
-0.00836899
-0.0237675
0.0326201
0.0334489
0.0109732
0.000923661
0.0144264
0.0267324
0.0371682
0.0308768
0.00986208
0.0482448
-0.0328822
0.00272985
0.0537942
0.0393064
-0.0360668
0.0451116
0
0
1.33151e-05
-6.57387e-07
0
0
0
0
0
0
0
0
0
0
3.14622e-05
0
0
0
0
0
0
0
0
0
0
0
0
0
8.06434e-06
1.31725e-05
0
0
0
0
0
0
0.000223735
0
0
0
0
0
0
0
0
0
0
0
0
0
0
0.000213664
0
-0.000293346
0.0310919
0.0541086
-0.0124345
0.00651087
-0.00874982
0.00125373
0.00340854
0.0105411
0.00121904
-0.00636104
0
-0.0108569
0
0
0
0
0.0223243
-0.0127285
0.0229675
0
0
0
0
0
0
0
0
0
0
0
0
0
0
0
0
0
0
0
0
0
0
0
0
0
0
0
0
0
0
0
0
0
0
0
0
-0.0563429
-0.000868484
0.0167794
-0.0481381
-0.0333606
0.0299654
-0.0421085
-0.0360207
-0.0331303
-0.068836
-0.0445916
-0.0440115
0.000257729
0.00903741
-0.0027293
-0.0131286
-0.00183336
0.00484532
-0.0132406
0.00476589
-0.0123493
-0.0151956
-0.00807213
-0.0225506
0.000230946
-0.00483322
0.00522151
0.0005005
0.00866765
0.000927868
-0.00139624
0.00694518
-0.0117729
-0.0625958
-0.0538385
-0.0224116
-0.0656116
-0.103749
0.0263002
-0.0737182
-0.0867502
0.00304991
-0.0960801
-0.0653525
0.0555422
-0.0285257
-0.0407816
-0.0135039
-0.0317249
-0.0553564
0.00670215
-0.00979144
-0.0540467
-0.00297554
0.0446447
-0.0255234
-0.00793535
-0.0116016
-0.00976344
-0.0426523
-0.0398537
-0.00705815
-0.0413877
-0.0455763
-0.0222869
-0.0485299
-0.0300733
-0.0335332
-0.0517663
0.00821588
-0.0246522
-0.0372608
-0.00176649
-0.00636966
0.0136068
0.00744681
-0.0200729
0.00563218
0.00969814
-0.115531
-0.0768031
-0.0626549
-0.0847521
-0.117615
0.0328705
-0.0917101
-0.13476
0.0718143
-0.113442
-0.0921229
0.0124301
0.039984
-0.0400932
-0.0466596
0.00339785
-0.0446126
0.00785105
-0.00782639
-0.0215794
0.0312742
-0.0173289
-0.00556112
-0.00329719
0.00100748
0.000117441
-0.00697485
-0.00572886
0.0160987
-0.000286001
-0.0105677
0.0291779
0.000425082
0.0126185
0.0301479
0.0103581
-0.0178787
0.0277637
0.0282026
0.00158247
0.0183313
0.0272561
0.0167943
0.00613486
0.027094
-0.00439994
0.00660694
0.00924969
0.0110891
-0.000526626
0.00519478
0.0331228
0.0175346
0.0280412
-5.53146e-05
2.69643e-05
0.00018313
-0.00016033
-0.0414515
7.5176e-05
0
-0.0164657
0
0
0
0
-0.000177141
0
0
0
0
0
-0.000100052
0
3.82701e-05
0
-1.75146e-05
-2.22738e-05
0
0
0
0
4.34529e-05
3.62045e-05
0
-0.0157364
0
0.0499627
0
-0.0152533
0.0097861
0.0324175
0.0155557
0.0905004
0.0305924
-0.0318868
-0.0267236
0.040463
-0.0437327
-0.0585331
0.0190979
-0.0462058
-0.0349093
0.00799698
0.0757628
0.032649
0.0691143
-0.0751788
0.0571325
0.106109
0.0677814
0.039148
0.00951567
0.0229594
0.0443924
0.0196941
-0.0323346
0.0735923
0.0368441
-0.0316813
0.0168081
0.0366529
0.00877278
0.0359142
0.0282928
-0.0221994
0.0796324
0.0270231
-0.0383481
0.0702433
0.100944
-0.0501057
0.0546699
0.116728
-0.0560093
0.0647598
0.0285137
-0.0916979
0.0250103
-0.0198608
-0.0865505
0.0742064
-0.0551367
0.10487
0.0314123
-0.0941379
0.0928611
0.0087972
-0.0670182
0.0715367
0.0148127
-0.0637135
0.0573951
-0.00414821
0.0670523
0.041739
-0.0148861
-0.0637724
0.0393916
-0.0207489
0.0566274
0.0254582
-0.0214998
-0.046048
0.00100782
-0.0213862
-0.0272772
-0.0201562
-0.027285
-0.000948058
-0.0480696
-0.0932424
0.0114815
-0.00420097
0.0859819
-0.0471978
0.00289083
-0.087096
-0.0121166
0
0
0
0
0
0
0
0
0
0
0
0
0
0
0
0
0
0
0
0
0
-0.000336664
0
0
0
0
0
0
-1.35022e-05
0
0
0
0
0
0
0
0
0
0
0
0
-1.20229e-05
7.13734e-05
5.76922e-05
0
2.64456e-05
0
0
0
0
0
0
0
0
0
0
0
0
0
0
0
0
0
0.00278166
-0.00244521
-8.90665e-05
0
0
0
0
0
-1.24105e-05
0
0
0.00459547
0
-0.0020495
0
-0.00284149
0
0
2.30843e-05
5.97717e-05
7.0775e-06
0
-3.38577e-05
0
0
0
0
0
0
0
0
0
5.80526e-05
-1.90063e-05
0.00012577
0
-9.88861e-05
0
-3.24699e-05
9.08402e-05
-6.20765e-05
0
1.17727e-05
0
0
0
0
1.30651e-05
0
-7.44212e-05
0
-2.80281e-05
-3.36963e-05
0
0
0
5.75861e-07
-8.78581e-06
6.43033e-05
4.74259e-05
-3.64377e-05
0
-1.39438e-05
0
0
0
0
0
1.31025e-05
0
0
0
0
0
-8.41241e-06
0
9.64343e-06
0
0
0
1.24075e-05
0
0
0
0
0
0
0
0
0.0101588
-0.0212935
0.0195732
0.00011149
0.0134063
0.0169373
0.00524996
0.00390353
0.0142608
0.00398642
0.000335686
-0.00548805
0.0349991
-0.0030214
0.0142256
-0.0278353
0.00894035
0.0235145
-0.0131257
-0.0157499
-0.0165505
-0.0193396
-0.014653
0.00304511
0.0114263
-0.00883377
0.00157338
-0.0112117
0.00582813
0.00802274
0.00161673
-0.00335256
0.00785951
0.00318523
0.00875462
-4.6928e-05
0.00688363
-0.0338263
0.00870763
0.0176502
0
0
0
0
0
0
0
2.53023e-05
0
0
0
2.06589e-05
0.00713332
-0.0057654
3.98368e-05
0
0
0
0
0
0
0
-1.91325e-05
0
0
0
0
-9.72716e-07
0
1.90584e-06
0
9.30954e-07
0
0
0
0
0
0
-0.0054424
-0.000648944
-0.0141368
0.0021282
-0.022922
-0.0080158
0.0321139
-0.0234268
0.012135
0.00666382
0.00603372
-0.0158013
-0.00719186
-0.00342128
-0.0096902
-0.00367995
0.0170642
0.00344343
0.00392933
0.0131381
0.0147236
-0.0128879
-0.020287
0.0213595
6.07726e-07
0
0
2.24046e-06
6.54102e-05
-1.11262e-05
8.51184e-05
0
-1.97637e-05
0
1.8005e-06
0
-1.08814e-05
0
1.27039e-05
0
0
0
0
0
0
0
0.000118036
4.8353e-05
0.000320042
0.000507997
-5.66435e-05
0
9.47471e-06
0
0
-3.056e-05
0.000117101
-2.54237e-06
0
0
0
0
0
0
0
0
0
0
5.0629e-05
1.01896e-05
0
0
0
0
0
0
0
0
0
0
0
0
0
0
0
0
0
0
0
0
-0.00927613
-0.0234283
0.0156447
0.0120572
-0.0579623
-0.0353869
0.0122781
-0.0240217
-0.0405025
0
0
0
0
0
0
0
-3.55929e-05
-2.00427e-05
2.07369e-05
0
0
0
0
-2.19175e-05
0
0
0
0
0
0
0
0
0
0
0
0
0
0.0122724
0
0
0
1.81757e-05
1.15994e-05
-7.00338e-05
0
7.64818e-05
0
0
0
0
0
0
0
0
0
1.1034e-05
0
1.7783e-05
-0.0673485
-0.0030929
-0.0200856
-0.0795961
-0.044255
-0.0233678
-0.0646875
-0.0223448
0.0142542
0.0344465
-0.00098744
-0.0173539
0.0158407
-0.00400772
0.0483151
-0.00573676
-0.0161348
-0.0226611
-0.0747308
-0.00010323
-0.0110084
-0.00189476
0.00255519
-0.0198931
-0.00713363
0.0200026
-0.0288605
-0.0113794
0.0149016
-0.0335873
-0.000354285
0.0203717
0.0106868
-0.00324936
0.00483471
-0.0127403
-0.0073655
-0.000882692
-0.0182407
0.000232755
0.0141945
-0.0621421
-0.0510138
-0.0357002
-0.0709175
-0.0841604
-0.00553719
-0.0783739
-0.0623212
0.0049643
-0.0883099
-0.0591086
0.0148778
-0.0116722
-0.0178512
0.0213534
-0.0339221
-0.032206
-0.0325974
-0.0245646
0.0127514
-0.0369114
-0.000513478
0.00745195
0.0106877
0.0106895
-0.0266841
0.0528679
-0.00157096
-0.0373134
0.0443078
-0.0284015
-0.0371382
-0.0342056
-0.0470659
-0.0544487
-0.0013134
-0.0375321
-0.0534656
-0.0243122
0.00154106
0.0197475
-0.0191282
-0.0233248
-0.00543642
-0.00619664
-0.0577667
-0.0682702
0.0730735
-0.0794825
-0.0861987
0.00220619
-0.00048539
-0.0767222
-0.00609816
-0.087938
-0.10904
-0.00192989
-0.0254896
-0.065401
0.00698811
0.00365438
-0.03095
0.0189845
0.0192128
-0.0405529
0.0828883
0.0605394
0.00147528
-0.00173236
-0.0130925
-0.0133494
0.0412385
0.013255
0.0220382
0.0201616
-0.00814703
0.0185532
0.00781143
0.00944421
0.0228439
0.0175763
-0.00132983
0.0220293
0.0142147
0.0065364
0.012321
0.0232552
0.00205025
0.010523
0.0171633
-0.0236025
0.00117971
0.00773556
-0.00737102
0.027653
0.0225118
0.00096651
0.00257262
0.0148599
0.0154903
-0.000100994
0
0
0
0
0
0
0
0
0
0
0
0
0
0
0
0
0
2.2285e-05
0
0
0
0
0
-1.27343e-05
0
-5.35413e-05
0
-2.97862e-05
0
0
0
0
0.0669884
0
-0.490707
-0.0309582
-0.0572919
-0.078663
0.209347
-0.111529
-0.11336
-0.0481212
0.0475045
0.00627613
0.00609297
0.0302213
-0.0537273
-0.0163553
0.0391317
-0.0362701
-0.053392
-0.073078
-0.0701727
0.00626812
0.03994
0.0302178
0.0467868
0.0471518
-0.0539412
0.042548
0.04261
0.0589675
-0.0035536
0.0140168
0.0362589
0.0409654
0.0625979
0.012118
0.0450175
0.0720452
-0.00765757
0.118934
0.0494474
-0.046015
0.0521517
0.119243
-0.0847946
0.0344325
0.107189
-0.0788847
0.0965811
0.0179137
0.0833868
0.130839
-0.0173181
-0.0920719
0.0897698
0.0364854
-0.0635343
0.0755398