/*--------------------------------*- C++ -*----------------------------------*\
  =========                 |
  \\      /  F ield         | OpenFOAM: The Open Source CFD Toolbox
   \\    /   O peration     | Website:  https://openfoam.org
    \\  /    A nd           | Version:  8
     \\/     M anipulation  |
\*---------------------------------------------------------------------------*/
FoamFile
{
    version     2.0;
    format      ascii;
    class       volScalarField;
    location    "5040";
    object      H;
}
// * * * * * * * * * * * * * * * * * * * * * * * * * * * * * * * * * * * * * //

dimensions      [0 1 0 0 0 0 0];

internalField   nonuniform List<scalar> 
526318
(
0.784575
0.738842
0.81221
0.72768
0.79816
0.747465
0.771173
0.687911
0.746106
0.624629
0.598978
0.723849
0.666503
0.715224
0.669587
0.69131
0.672093
0.867611
0.776121
0.819231
0.815624
0.768275
0.528157
0.77406
0.659336
0.52259
0.7955
0.795475
0.798744
0.811576
0.835551
0.880719
0.866959
0.744671
0.748143
0.716692
0.721884
0.810793
0.741393
0.688586
0.743075
0.724762
0.382643
0.438817
0.341119
0.392849
0.360542
0.487786
0.671502
0.559344
0.65124
0.650247
0.601955
0.570143
0.0638981
0.304318
0.307555
0.101563
0.825811
0.836834
0.857857
0.809411
0.755072
0.883267
0.875089
0.838768
0.826263
0.824134
0.727858
0.721456
0.834973
0.608124
0.666388
0.557197
0.510011
0.506358
0.604416
0.597725
0.516939
0.552547
0.63237
0.636875
0.594416
0.54405
0.569594
0.644362
0.640583
0.619982
0.570012
0.641055
0.544971
0.492732
0.487381
0.419747
0.420553
0.420318
0.423924
0.417477
0.415296
0.412355
7.97638e-05
2.15653e-06
0.00100029
2.71604e-07
0.000861304
0.000148343
0.326324
0.139935
0.447974
0.412744
0.457178
0.567982
0.793132
0.688837
0.801335
0.805122
0.870278
0.848434
0.889666
0.40979
0.41171
0.412574
0.417554
0.369913
0.411599
0.321023
0.363011
0.273214
0.323922
0.275623
0.268815
0.260912
0.241649
0.232221
0.259642
0.199975
0.253929
0.20512
0.221775
0.168665
0.173628
0.19598
0.227212
0.212493
0.167669
0.168296
0.186386
0.170458
0.168905
0.178017
0.18652
0.175928
0.180709
0.180165
0.177767
0.150618
0.181237
0.183781
0.142438
0.095902
0.185339
0.13463
0.188657
0.675697
0.773814
0.714856
0.704571
0.499775
0.573947
0.506881
0.501987
0.509828
0.507767
0.532174
0.502569
0.436188
0.413431
0.3754
0.321628
0.379865
0.418582
0.42081
0.418796
0.302796
0.359236
0.244227
0.251647
0.263459
0.255901
0.256931
0.259791
0.247811
0.250524
0.249134
0.236104
0.217709
0.241669
0.232605
0.204861
0.180684
0.212964
0.194732
0.189463
0.208562
0.197934
0.198382
0.1647
0.179595
0.207391
0.211046
0.659254
0.676962
0.707289
0.679556
0.66412
0.665195
0.660516
0.540688
0.576405
0.319004
0.314755
0.297082
0.428049
0.561986
0.428534
0.471679
0.46961
0.417249
0.402104
0.00038803
4.57685e-15
0.0474289
0.242499
0.00027704
9.76159e-09
0.000995694
0.000255125
0.000396609
0.000963311
0.8772
0.856716
0.904322
0.896091
0.869527
0.857531
0.762929
0.854504
0.697343
0.635583
0.642586
0.637657
0.643823
0.639758
0.629858
0.629095
0.547855
0.6076
0.427367
0.481624
0.409832
0.427986
0.00100536
4.55059e-11
0.000154997
0.00100202
0.000103589
0.000987509
3.24653e-14
0.0369033
0.425643
0.234085
0.466366
0.472269
0.584555
0.67938
0.808203
0.803737
0.839968
0.825187
0.890019
0.917547
0.38918
0.394098
0.350992
0.322443
0.221187
0.254602
0.183869
0.195871
0.182102
0.178156
0.164787
0.172549
0.103612
0.127191
0.154292
0.197129
0.250354
0.209888
0.182573
0.174786
0.109724
0.105544
0.15073
0.210193
0.131261
0.168202
0.165614
0.134943
0.129279
0.101054
0.0954467
0.0589872
0.0633863
0.059216
0.0498299
0.172953
0.211964
0.181295
0.207707
0.573005
0.535967
0.432338
0.519405
0.439662
0.491492
0.505416
0.497829
0.507343
0.506634
0.412498
0.334748
0.259707
0.244978
0.318059
0.264305
0.242219
0.358086
0.244763
0.29451
0.236386
0.236638
0.24884
0.240417
0.252738
0.246527
0.246704
0.24804
0.24831
0.249654
0.255574
0.250954
0.257781
0.254986
0.260542
0.240341
0.257629
0.236871
0.212358
0.212069
0.236662
0.269644
0.263395
0.24236
0.222633
0.242014
0.284866
0.282764
0.303027
0.259259
0.296024
0.308689
0.348832
0.296737
0.304677
0.336531
0.362575
0.484611
0.564584
0.480325
0.514761
0.586411
0.649229
0.563942
0.425622
0.541155
0.43689
0.461456
0.203178
0.146378
0.183024
0.159807
0.276572
0.389053
0.332224
0.391907
0.400553
0.421794
0.391173
1.24058e-08
0.000840454
0.000651894
4.9332e-05
0.0464341
0.000745279
0.000599399
0.00100998
0.000160582
0.00100962
0.000664765
0.00100889
0.000730728
0.000955715
0.000582482
0.000952703
0.901963
0.890763
0.926738
0.915421
0.897625
0.863632
0.79314
0.701498
0.635788
0.652512
0.631392
0.628352
0.6103
0.610547
0.588565
0.590133
0.539765
0.581409
0.506236
0.446894
0.39712
0.34822
0.000979552
0.00111106
0.00111106
0.000663073
0.000402081
0.000731205
0.000575832
0.000611972
0.0011112
0.00111108
0.000806507
0.00100984
0.000705376
0.00100942
0.00127433
0.00017911
0.00029487
0.000487392
0.000977135
0.00096135
7.31626e-08
0.000978536
0.000797774
1.85613e-05
0.122623
8.94509e-05
0.333449
0.495223
0.509089
0.59647
0.814086
0.713832
0.833871
0.827586
0.847493
0.873207
0.908931
0.925833
0.312172
0.308772
0.263723
0.288497
0.231901
0.193553
0.185181
0.181723
0.178449
0.182355
0.136738
0.126264
0.0739693
0.0925811
0.147699
0.124744
0.0882546
0.145895
0.136404
0.154847
0.0621667
0.0530466
0.0763587
0.0860049
0.0853619
0.0468845
0.0512129
0.0449004
0.0500245
0.0336654
0.030131
0.335034
0.305638
0.31324
0.302308
0.324239
0.43543
0.394792
0.369844
0.243202
0.296434
0.28058
0.283556
0.189244
0.128255
0.297703
0.415809
0.298255
0.301443
0.286433
0.369518
0.345316
0.424797
0.450699
0.380903
0.361674
0.393937
0.270078
0.248247
0.244398
0.243706
0.158413
0.209899
0.132411
0.090664
0.0722701
0.191021
0.19056
0.239344
0.238735
0.238714
0.241876
0.235958
0.243534
0.240196
0.250067
0.244068
0.263089
0.252107
0.263114
0.266152
0.288448
0.274291
0.29943
0.3045
0.251581
0.23252
0.300131
0.281406
0.26878
0.285979
0.270303
0.253135
0.310453
0.288589
0.385322
0.388542
0.341051
0.384496
0.396021
0.363262
0.456372
0.422101
0.495241
0.517039
0.541978
0.460055
0.458995
0.460314
0.419389
0.402203
0.364756
0.457616
0.312674
0.28534
0.335412
0.363443
0.0440687
0.0837062
0.173965
0.283357
0.328449
0.354371
0.276
0.225419
0.186573
0.130183
0.000965631
0.000310861
4.56578e-06
1.84795e-07
0.00098453
0.032405
0.000993891
0.000234006
0.00100979
0.000545241
0.00024476
0.000470015
0.000926911
0.000208943
0.000826337
0.000986846
0.000766556
0.000551352
0.000138864
0.000388285
0.00097475
0.00101
0.000134186
0.00100053
0.000977424
0.000380307
0.00118717
0.000966456
0.000993618
0.00118716
0.00118717
0.00118717
0.000889286
0.000999494
0.0009727
0.000201819
9.59135e-05
0.000989075
0.000892979
0.0009482
0.00100959
0.000881287
0.0010078
0.00100281
2.68833e-05
0.000969635
0.894923
0.90663
0.926382
0.917456
0.895431
0.818573
0.638558
0.725771
0.60959
0.610411
0.588374
0.592725
0.583766
0.581283
0.576182
0.57491
0.519583
0.489059
0.392199
0.435847
0.287426
0.330102
0.000851104
0.000624444
0.000948563
0.000967574
0.000969466
0.000982262
0.000986514
0.000879074
0.000998153
0.000676501
0.000677989
0.000965569
0.000971308
0.000759356
0.000380116
0.000991326
0.000690401
0.00100737
0.000803925
0.000839513
0.000369052
0.000975289
0.000889611
0.000439439
0.000917861
0.000723183
0.00103276
0.000576242
9.68163e-06
6.82991e-05
0.000913213
0.000726749
0.0127509
0.012744
0.306277
0.13742
0.516318
0.47633
0.541086
0.646681
0.752078
0.829952
0.843379
0.833052
0.875972
0.905596
0.894802
0.890697
0.00101
0.000734461
0.000886173
0.00026748
0.000902791
0.000922867
0.00081396
0.000932161
0.000890554
0.000725685
0.000975785
0.00092383
0.000794854
5.44861e-07
0.000794959
0.00101
0.000170373
0.289647
0.290445
0.287691
0.25701
0.175596
0.21251
0.137421
0.130079
0.0940384
0.0878542
0.0421115
0.0415136
0.0708355
0.0703892
0.0316025
0.0640495
0.0584771
0.104436
0.0927555
0.0883776
0.0115625
0.000876145
0.000823435
0.0259274
0.0340996
0.034857
0.0117597
0.0147377
3.87836e-05
0.000860831
0.00092102
0.00039755
0.53297
0.495564
0.535754
0.54861
0.491778
0.453632
0.6199
0.643138
0.708773
0.716395
0.257539
0.307727
0.347063
0.443039
0.260072
0.207527
0.237194
0.241124
0.0788683
0.142091
0.180257
0.068357
0.289163
0.289565
0.285909
0.296188
0.30349
0.2808
0.300182
0.310609
0.19571
0.192352
0.0826421
0.172579
0.168221
0.121928
0.0794156
0.0885222
0.0345087
0.0513447
0.0386112
0.124171
0.185773
0.123877
0.18358
0.239721
0.236344
0.237823
0.236404
0.240695
0.261553
0.252051
0.270226
0.271239
0.293001
0.280502
0.303236
0.304827
0.300627
0.300507
0.310444
0.305656
0.348964
0.322151
0.282001
0.285301
0.352277
0.32033
0.329508
0.369428
0.420057
0.413062
0.418777
0.410718
0.440464
0.498357
0.555372
0.575199
0.58725
0.562182
0.702902
0.642381
0.770537
0.808622
0.798396
0.841933
0.894836
0.760061
0.850175
0.867105
0.947892
0.997614
1.01797
1.04102
1.0706
1.01339
1.06773
1.02714
1.10491
1.10455
1.15377
1.12372
1.18445
1.2126
1.20149
1.15362
1.2192
1.2411
1.21119
1.2062
1.27078
1.24816
1.27889
1.22067
1.21916
1.28993
1.25429
1.20211
1.20664
1.23783
1.26711
0.251845
0.222633
0.400607
0.393072
0.356119
0.350979
0.35236
0.119759
0.254572
0.000606855
0.000582177
0.0881484
0.0719968
0.00100981
0.0267101
0.0174435
0.18762
0.0917395
0.0916121
0.00286648
0.000954769
0.0118318
0.0276497
0.000348581
0.00102948
8.73811e-07
5.8384e-05
2.08365e-05
1.89669e-05
0.00101
0.000966006
0.000995857
0.000659042
1.96339e-05
0.00140662
0.000842141
0.000928041
0.000844807
0.000734813
0.000253597
0.00069126
0.000943677
0.000831092
0.00121018
0.000646929
0.00012748
0.000146108
0.000949
0.000255762
1.12819e-05
1.61879e-05
0.000990101
0.000818938
0.00100231
0.000950914
0.000911134
0.000410555
0.000795783
0.000955592
0.00118449
0.000926433
0.00099074
0.00101008
0.00095407
0.000989264
0.00110346
0.000775599
0.000997861
0.000908797
0.00105186
0.000976113
0.00102288
0.000948686
0.0011015
0.00110118
0.000439276
0.000706372
0.00101497
0.000794645
0.000910487
0.000377029
0.000991017
0.000960908
0.00100983
0.00100977
0.000136678
0.000914889
0.000950381
0.000921886
0.000915695
0.000919934
0.000803852
0.001223
0.000786074
0.000968314
0.882664
0.873984
0.848954
0.841758
0.759895
0.830858
0.653335
0.591649
0.579937
0.58635
0.584616
0.579928
0.519554
0.523803
0.369675
0.329275
0.288378
0.460388
0.461951
0.411773
0.414803
0.413646
0.000647301
0.000462881
0.00108268
0.00108256
0.000962471
0.000414864
0.000711517
0.000410365
0.000983356
0.000971197
0.000161511
0.00100893
0.000972717
0.000941946
0.000297472
0.000985833
0.000726155
0.00091818
0.00021426
0.00071546
0.000560399
0.000951565
0.00121674
0.001217
3.81621e-05
7.4309e-06
0.000113826
0.01299
0.145416
0.0129848
0.306582
0.474335
0.504877
0.537649
0.613683
0.731912
0.796343
0.772033
0.817777
0.753772
0.804503
0.846603
0.798836
0.801298
0.00123689
0.000892442
0.00101
0.000849207
0.00099889
0.00120132
0.000756889
0.000798379
0.00120132
0.000998047
0.000965687
0.00096491
0.000165602
1.14836e-05
0.000872505
0.000498287
1.04762e-05
0.000656439
0.00098774
0.000236686
0.000248866
0.000710688
0.00096459
0.000795867
0.00198657
0.00100842
0.266315
0.263537
0.184262
0.204318
0.0757904
0.0960628
0.0409658
0.0378215
0.0381483
0.0401301
0.0126468
0.0148838
0.000820039
0.000721941
0.00038298
0.00300265
0.0804424
0.0427132
0.0813766
0.0817308
0.000508571
0.000320061
0.000344161
0.0008342
0.000516077
0.000985057
0.000718269
0.000602104
0.000980152
0.000764758
0.00124533
0.000744068
0.751446
0.75026
0.577428
0.49087
0.481397
0.468204
0.748976
0.657328
0.90845
0.983542
0.876289
0.805714
0.996846
0.980112
1.04698
1.09419
1.12404
1.12435
1.15166
1.12426
1.17917
1.20141
1.19908
1.19589
1.22151
1.20383
1.20188
1.25208
1.19033
1.18886
0.314504
0.238619
0.377085
0.457359
0.245516
0.20322
0.240471
0.239158
0.0670493
0.111655
0.00093327
0.124466
0.0116486
0.285769
0.222234
0.285569
0.274458
0.283307
0.180511
0.0838418
0.00474643
6.3563e-05
0.00396852
0.0414858
3.72368e-48
1.38971e-15
3.45236e-06
0.0009898
0.0483997
0.0451303
7.79883e-06
0.0622418
0.133012
0.0847879
0.185035
0.130131
0.171688
0.222736
0.262544
0.239993
0.275635
0.27761
0.289386
0.281529
0.306306
0.318875
0.327399
0.336323
0.337833
0.339797
0.37678
0.386521
0.374055
0.371608
0.378907
0.369485
0.386589
0.401558
0.4452
0.43797
0.407058
0.440085
0.431843
0.460376
0.501097
0.558295
0.586155
0.596151
0.607998
0.666595
0.758019
0.825856
0.846355
0.968879
0.842358
0.896804
1.04524
1.06759
1.06666
1.10319
1.15202
1.2008
1.21315
1.2152
1.24587
1.27053
1.30418
1.30304
1.2955
1.2941
1.30906
1.28916
1.21866
1.27816
1.25285
1.20746
1.2044
1.23988
1.2679
1.2777
1.20674
1.27198
1.22394
0.0505393
0.0433191
0.111525
0.187528
0.0826638
0.144395
0.277265
0.220758
0.247082
0.0814099
0.00100605
5.78222e-06
0.000767743
0.0517593
0.0425984
9.5732e-06
4.44714e-43
0.000555052
0.000992957
0.00280298
0.00189288
0.00855496
0.00149163
0.0167921
0.0314215
0.000871197
0.000837817
0.000904459
0.000716182
0.00125671
0.0012566
0.00086849
0.000172666
0.000723051
0.00140625
0.000981197
0.000851053
0.000478021
0.000315336
0.000561196
0.00101
0.000725956
0.00120971
0.000934557
0.000984534
0.000809582
0.000660221
0.000998234
0.000701989
0.00100779
0.000868975
0.00105277
0.000951593
0.000941578
0.000744326
0.0011026
8.51174e-05
0.00099613
0.000976554
0.000231238
0.000668421
0.000544652
0.000936558
0.000816347
0.000931012
0.00085405
0.000993967
0.000978339
0.000943996
0.000974885
0.00092222
0.000242487
0.00133941
0.000933651
0.00104227
0.000821469
0.00100962
0.000641972
0.000367709
0.000916152
0.000960434
0.000958303
0.000892128
0.000600383
0.000479733
0.791164
0.79444
0.778352
0.776479
0.710122
0.770551
0.583962
0.643919
0.544015
0.54076
0.483398
0.468748
0.409153
0.410207
0.325146
0.220737
0.200991
0.370098
0.412523
0.412348
0.413145
0.416294
0.00108323
0.000934606
0.00108347
0.000325286
0.000973634
0.000973647
0.00094649
0.000972052
0.00100548
0.000830393
0.000135327
0.000443538
0.00093376
0.000997208
0.00060297
0.00100999
0.00098232
3.53596e-05
0.000985985
0.000873381
0.000276721
0.000653782
0.000655599
0.00101
0.000321117
3.32274e-05
0.000143454
0.0123202
0.198628
0.0423779
0.344859
0.48156
0.451476
0.566809
0.731793
0.630489
0.708925
0.708998
0.703856
0.73113
0.785029
0.7858
0.790916
0.760177
0.000769413
0.000922585
0.000573493
0.000958878
0.000712787
0.000933944
0.000627141
0.000309821
0.000814482
0.000879841
0.000957505
0.000940546
0.00106171
0.000115783
0.000858312
0.000873917
0.00096514
0.000987798
0.000866186
0.00127556
0.000634284
0.00126402
0.00142067
0.000901385
0.00101
0.000860782
0.000668131
0.000489708
0.000136748
0.00015739
0.00098545
0.13807
0.139115
0.10229
0.0849709
0.0381002
0.0614359
0.0259535
0.0270217
0.180252
0.126294
0.0994135
2.47442e-05
0.000901149
0.000408908
0.00099756
0.00135913
0.00135877
0.000403171
0.00104867
0.0568944
0.00723361
0.0443638
0.0309424
0.000830286
0.000589546
0.000349619
0.00033829
0.000591797
0.00101313
1.30661e-05
0.00052455
0.000737284
0.000689738
0.000594218
0.000809643
1.32552
1.33534
1.35942
1.34117
1.37756
1.36694
1.38717
1.38305
1.44054
1.42391
1.38312
1.43536
1.40467
1.46429
1.29558
1.24528
1.26284
1.3125
1.29501
1.26649
1.26609
1.31934
1.32396
1.30122
1.28049
1.33471
1.31671
1.32413
1.34856
1.20473
1.20478
1.20366
1.19971
1.22316
1.24371
0.793731
0.740356
0.636925
0.540537
0.456184
0.531785
0.72959
0.71206
0.957291
0.974803
0.867052
0.939938
0.987422
1.03348
1.08437
1.12462
1.12168
1.11969
1.12018
1.14573
1.15973
1.18377
1.17328
1.1723
1.17934
1.18629
1.16767
1.16608
0.361122
0.292871
0.238138
0.219123
0.283455
0.455469
0.43248
0.169988
0.222717
0.0904941
0.0283145
1.31379
1.33086
1.35075
1.355
1.35987
1.36884
1.37184
1.40077
1.38389
1.40292
1.40293
1.44747
1.47182
1.4967
1.4936
1.50255
1.51883
1.53752
0.00281647
0.000961329
0.00138405
0.210075
0.102712
0.270219
0.174908
0.0878597
0.00149369
0.000670407
0.000999479
0.00149202
0.000150505
0.000182594
0.000487926
0.000634227
1.56935e-49
6.10001e-120
0.0548882
0.000737232
0.000498649
0.0814031
0.0836848
0.0804085
0.133683
0.0865393
0.213107
0.160891
0.253421
0.220413
0.257006
0.273891
0.302275
0.327619
0.350962
0.353185
0.351562
0.339833
0.398872
0.390092
0.382971
0.382269
0.434515
0.408828
0.479923
0.43885
0.423139
0.462203
0.504239
0.49945
0.520976
0.553836
0.556551
0.501035
0.610994
0.643622
0.616785
0.599133
0.691583
0.766379
0.846527
0.911823
0.860505
0.875733
1.00246
1.06127
1.10392
1.0842
1.15104
1.17959
1.21973
1.23944
1.23507
1.24942
1.30793
1.29041
1.29644
1.30482
1.30945
1.30704
1.2936
1.2859
1.30704
1.30794
1.29773
0.0333436
0.0263561
0.0497528
0.000639892
0.000504792
0.00945006
0.000926519
0.0885544
0.000401153
0.000182158
0.000170278
0.000992538
0.000368981
0.000582525
0.00138417
0.000209804
0.000787586
1.05794e-05
4.28478e-05
0.0018443
0.000990817
0.000423925
0.000988536
0.000175253
0.000735431
0.00014751
0.000784358
0.000992646
0.0011707
0.00117065
0.00125637
0.000822367
0.00107917
0.000996393
0.000776109
0.00096702
0.000896738
0.000998449
0.00026155
0.000888291
0.00100984
0.000894905
0.00117002
0.0004888
0.000398457
0.000668916
0.00100238
0.000270015
0.000740386
4.91193e-09
3.22795e-06
0.00238797
0.000350275
0.00100904
0.000694792
0.000545923
0.000997667
0.000408751
0.00100993
0.000972649
0.000977525
0.000963111
0.000999516
0.000698413
0.00106026
0.000898647
0.000763255
0.000976549
0.000830297
0.00106008
0.00089779
0.000955844
0.000631827
0.000258775
0.000785103
0.000964465
0.000941166
0.000838222
0.00101
0.000334973
0.000769708
0.000685233
0.000978177
0.000925692
0.000935309
0.000920672
0.00091709
0.000695524
0.000567275
0.00195727
0.000204065
0.000674617
0.000835469
0.000982037
0.00194581
1.48787
1.46093
1.43886
1.53473
1.56927
1.56593
0.773973
0.769341
0.757216
0.758136
0.680931
0.745075
0.579245
0.49894
0.427605
0.444241
0.410596
0.4082
0.409034
0.41158
0.288824
0.203396
0.30191
0.377103
0.378832
0.00093523
0.000812469
0.000875173
0.000890082
0.000963733
0.0009764
0.000965395
0.000493094
0.000931051
0.000554111
0.00100943
0.00104078
0.000994132
0.000910437
0.00957167
0.0381329
0.00100998
0.000498781
0.000128694
0.000927014
4.59314e-06
0.000273167
0.000921556
0.000785239
0.00052174
0.000783296
0.000978157
0.181115
0.319356
0.437018
0.432767
0.755714
0.669598
0.687644
0.471646
0.562587
0.649023
0.701741
0.701667
0.701868
0.721598
0.750273
0.740197
0.000742021
0.00112227
0.000623131
0.000982796
0.000776195
0.000768468
0.00100904
0.000845157
0.000733329
0.000835941
0.000817811
0.000932446
0.000763197
0.000971666
0.00100996
0.000962726
0.000907679
0.00101945
0.000976591
0.000926787
0.000921115
0.000824304
0.000770427
0.000966998
0.00102101
0.00098605
0.00034657
0.000923941
0.000974118
0.000973622
0.00101
0.000984843
0.000871643
0.000978065
0.000827832
0.0010757
0.000963877
0.13731
0.174305
0.164612
0.102108
0.110703
0.0734482
0.0967268
1.75134e-05
0.00090111
0.000278868
0.000921019
0.110126
0.0974941
0.000406768
0.000923993
0.000612942
0.000966954
0.000490688
0.000432878
0.000994009
0.000136085
0.00294006
0.000794165
0.00246835
0.0130469
5.79952e-05
0.000680105
0.000702988
0.000420221
0.000653842
0.000551523
0.000693939
9.93495e-05
0.000358069
0.000994303
6.15347e-05
0.000979051
1.32357
1.33935
1.36333
1.38566
1.39087
1.39323
1.42544
1.39839
1.25334
1.25879
1.24187
1.25851
1.29125
1.25738
1.30781
1.27415
1.19293
1.1768
1.17231
1.21121
1.2349
1.20825
0.796426
0.724172
0.619555
0.706946
0.556218
0.470359
0.721062
0.7188
0.962081
0.961818
0.978393
0.878005
0.948158
1.06431
1.01467
0.955602
0.995835
1.10146
1.11019
1.10258
1.1051
1.1171
1.13624
1.16745
1.15558
1.1675
1.16193
1.16425
1.16396
1.16538
1.16482
0.21086
0.207818
0.353532
0.428538
0.21066
0.291899
0.449565
0.465613
0.214923
0.136733
0.0592726
0.122046
1.3446
1.29727
1.32315
1.36548
1.3633
1.36634
1.37406
1.39657
1.41643
1.42792
1.42745
1.43353
1.45495
1.49481
1.48021
1.49772
1.51573
1.56172
1.54182
1.37117
1.38123
1.3961
1.56789
1.56848
1.56347
0.00138765
0.00138348
0.00137678
0.00055733
0.0190699
0.0344463
0.000898753
0.000986091
0.000811678
0.000659527
0.000757232
0.000881632
0.0006608
0.00125028
0.000616939
0.00125024
0.000969713
4.84725e-06
0.000897972
2.62258e-09
0.00177271
0.00945692
0.0806752
0.00125476
0.158025
0.186377
0.121457
0.158593
0.216037
0.187398
0.309057
0.253761
0.32567
0.327356
0.339931
0.324447
0.381435
0.425976
0.462989
0.465564
0.467158
0.454614
0.481056
0.465041
0.513977
0.513502
0.536608
0.540263
0.510583
0.51454
0.635771
0.679464
0.58351
0.642155
0.688997
0.655947
0.754792
0.801365
0.901019
0.936862
0.915852
1.00195
1.05888
1.15659
1.14289
1.20207
1.17844
1.27615
1.2759
1.26859
1.30408
1.33026
1.32518
1.3793
1.34536
1.37991
1.34256
1.3271
1.35633
1.31263
1.35992
1.29319
0.000332891
0.000366761
0.000813812
0.000606129
0.000780117
0.000964701
0.00057408
6.64296e-06
0.00101
0.000199154
0.000263652
0.000512431
0.000147125
0.000632165
0.000517147
0.000352071
0.000961432
4.57806e-05
0.000302915
2.88253e-05
0.000124015
4.98173e-05
5.50518e-07
0.000281082
0.000978557
0.000803478
0.000999883
7.33578e-05
0.00117027
0.0011703
0.0009815
0.000995782
0.000992745
3.82214e-05
0.00101
0.000912008
0.0010004
0.000112849
0.00044385
0.000919656
0.000142324
0.000297927
0.00193074
3.18936e-05
0.000984734
7.3546e-05
0.0009581
0.000364482
0.000991481
2.5498e-05
0.000989075
0.00221366
0.000987529
0.000134455
0.000944087
0.00123818
0.0011554
0.000451873
0.00100983
0.000979813
0.000465046
0.000983408
0.000969573
0.000835887
0.00106022
0.00106024
0.000935521
0.000975782
0.00105995
0.00106013
0.000955402
0.000697385
0.000711032
0.000919589
0.0013392
0.000109306
0.00133893
0.000909007
0.00098702
0.000966821
0.000953537
0.0010023
0.00104337
0.00104348
0.000849274
0.000805878
0.000827454
1.23268e-05
9.12481e-06
0
0.000991018
0.000799517
0.000430028
0.000885469
0.00115531
0.000898711
0.00100958
0.00100997
0.000988605
0.000998553
0.000946811
0.000914726
0.00101
1.42524
1.4643
1.46235
1.46114
1.49628
1.61033
1.58169
1.5848
1.60335
1.55582
0.679636
0.668295
0.60398
0.60413
0.561588
0.597706
0.510042
0.46011
0.446597
0.411719
0.386934
0.383121
0.299608
0.308655
0.171726
0.217266
0.222621
0.000529692
0.000965684
0.000913493
0.00101
0.000966922
0.000917688
0.00066416
0.00948628
0.153166
0.00921527
0.000919443
0.000220381
0.000954139
0.000961382
8.0637e-06
0.000368616
0.00101
0.000973131
0.000930795
0.00102242
0.000849804
0.000991814
0.000944045
0.000847483
0.00025022
0.5485
0.54521
0.594483
0.291613
0.434075
0.431738
0.469079
0.588765
0.662772
0.622251
0.530833
0.611577
0.63824
0.643259
0.564493
0.59234
0.000957717
0.000987992
0.00112235
0.00104245
0.00055311
0.000869876
0.00103174
0.00120262
0.000980312
0.000993777
0.000160682
0.00194671
0.000974728
0.000936631
0.000510229
0.00294816
0.0029484
0.00294653
0.000482775
0.000964895
0.000919736
0.00101936
0.000857709
0.000996046
0.000975532
0.00103764
0
0
0
0.000959356
0.000920205
0.000959732
0.00100136
0.000937496
0.000459811
0.000990561
0.00111808
0.000986905
0.00097325
0.000341416
0.000950085
0.000929535
0.000974858
0.000771116
0.000954249
0.15875
0.171032
0.183538
0.0422018
0.0626109
0.0212682
0.0235176
0.000845475
0.000820854
0.000890255
0.000479969
0.00109274
0.00209273
0.000549772
0.000166968
0.000406739
0.000503409
0.000242686
0.000584634
0.000389242
0.000831137
0.000270985
0.000575667
0.000912803
0.000877991
0.0276659
0.000822364
0.000155356
0.00113765
0.000644315
0.00119336
0.000312228
0.000747328
0.000729058
0.000346646
0.00101
0.000942721
0.00064011
0.00113675
1.32988
1.28574
1.35386
1.32504
1.33255
1.36588
1.37278
1.40479
1.41881
1.4492
1.431
1.37078
1.44112
1.4009
1.22588
1.22327
1.21911
1.22358
1.24395
1.25445
1.25402
1.25813
1.16412
1.16264
1.19365
1.17017
1.20498
1.20977
0.801867
0.726918
0.646472
0.721066
0.520182
0.607531
0.721541
0.728081
0.953501
0.949102
0.951784
0.882575
1.0427
1.08638
0.997919
0.951779
1.09223
1.09713
1.10782
1.09827
1.13085
1.15434
1.16255
1.16545
1.16801
1.15832
1.16286
1.16553
1.16701
1.15954
0.201691
0.204398
0.369769
0.446628
0.342172
0.268557
0.502374
0.447288
0.176345
0.204286
0.170977
0.0960593
1.33249
1.39226
1.36733
1.38242
1.40185
1.39532
1.43097
1.43742
1.41306
1.42475
1.4175
1.42749
1.43274
1.45619
1.47834
1.49859
1.49888
1.55244
1.5258
1.57151
1.58106
1.45279
1.46408
1.58819
1.59341
0.000415286
0.000112879
0.000696944
0.000552548
0.000525579
9.76082e-05
0.000260243
0.000217
0.00101
1.00585e-05
0.000927799
0.000258474
0.000617659
0.000657476
5.07035e-06
0.000780461
0.00177248
0.000552461
0.000872027
0.000687083
0.000552141
2.79563e-15
0.0663253
1.90742e-19
0.181032
0.171815
0.14268
0.0935257
0.203227
0.252268
0.304312
0.295864
0.323354
0.310351
0.428277
0.380479
0.490033
0.471023
0.497148
0.500547
0.477297
0.529418
0.57489
0.545778
0.535047
0.563865
0.611893
0.597903
0.577047
0.621595
0.70879
0.70726
0.704245
0.719562
0.853103
0.764937
0.933667
0.964117
0.957397
1.02769
1.1015
1.17793
1.18732
1.19899
1.24913
1.29306
1.33568
1.33008
1.36566
1.34487
1.39487
1.40959
1.4104
1.40951
1.405
1.40693
1.38322
1.42615
1.35678
0.000848729
7.8572e-05
0.00631965
0.00102568
0.000692594
7.77634e-05
0.000686777
0.000538285
0.00079675
0.000613151
0.00103307
0.00127327
0.00045309
0.00127401
0.00127268
0.00127309
0.001274
0.000997024
0.00127212
0.00594936
0.000995531
0.000638589
0.000184916
0.00209102
0.000399969
0.00209102
0.00209107
0.000434205
0.000330066
0.00100217
0.000993637
0.000687571
0.000867861
0.00072938
0.0010291
0.00104562
0.000779588
0.000959982
0.00100986
0.000887496
0.000962023
0.000975895
0.00175331
0.000994556
0.000146754
1.36216e-05
0.000607696
0.00096357
0.000988249
0.000479144
0.000826696
0.000992558
0.00100941
0.00031059
7.07653e-05
0.000987756
0.00100992
0.000817418
0.000560979
0.000848606
0.00101
0.000799183
0.000973069
0.000279366
0.000904827
0.00095865
0.00097428
0.00100223
0.000954241
0.000908728
0.000886752
0.00100949
0.00097168
0.000773375
0.000984106
0.000952799
0.000810459
0.00098992
0.000934564
0.000964099
0.000974876
0.000974485
0.00117783
0.000977349
0.000905098
0.00057362
0
0
0
0
0
0
0
0
0
0
0
0
0
0
0
0
0
0
0
0.00099334
0.000901342
0.000937661
0.000812305
0.00089906
0.000434354
0.000930614
0.00106974
0.000325168
0.000811332
0.000317982
0.000878445
1.64608
1.61989
1.63429
1.6336
1.64399
1.64638
1.4803
1.49065
1.55143
1.52565
1.58989
1.62181
1.60526
1.47816
1.42244
0.548406
0.543094
0.545862
0.535095
0.551083
0.479098
0.524226
0.308635
0.361676
0.233197
0.231756
0.182107
0.170326
0.172826
4.53839e-05
0.000892444
0.000510425
0.00124202
0.000843874
0.176161
0.00837129
0.000962393
0.000991745
0.000628063
0.000686377
0.000984192
0.000961616
0.000962997
0.00097202
0.000717645
0.000335301
0.000980753
0.00101157
0.000212436
0.00101269
0.000932938
0.0004632
0.000647713
0.550912
0.550511
0.547109
0.544798
0.549577
0.258775
0.372891
0.317437
0.436732
0.498352
0.521873
0.450987
0.536543
0.487632
0.485997
0.473661
0.000954778
0.0011421
0.000682729
0.000970576
0.000973219
0.000935143
0.000884736
0.00101631
0.000128172
0.00084133
0.00101491
0.000602254
6.92933e-05
0.000527482
0.000629704
0.000616055
0.000763669
0.000919235
0.00095258
0.00101584
0.000697885
0.000915564
0.000740767
0.000726241
0.000621516
0.00100951
0.000739043
0.000999795
0.000354107
2.15212e-05
0
0
0
0
0
0.000978181
0.000984399
0.000968882
0.00116873
0.00133914
0.000780222
0.000835369
0.00098825
0.000972174
0.00101
0.000977372
0.000845929
0.000983382
0.00102274
0.000787048
0.000895144
0
0
0
0
0
0
0.158773
0.0821649
0.0673378
0.000977705
0.000246353
0.000705021
0.000841865
0.000964764
0.000791447
0.000311719
0.00100956
0.000847291
0.000375808
0.000550644
0.00033854
0.000760208
0.000752664
0.000795758
0.000905726
0.000971356
0.000987408
6.8267e-05
0.0212694
0.000864571
0.000486704
0.000724811
0.000634249
0.000404769
0.000958393
0.00027789
0.000628414
1.31742e-05
0.000467482
0.00184617
0.00183546
0.000702512
0.000959699
0.000281529
0.000798649
0.00100972
0.000818552
1.31326
1.27466
1.31061
1.31603
1.30085
1.34239
1.31481
1.34121
1.35832
1.37608
1.45055
1.41256
1.3549
1.21317
1.21402
1.23744
1.22895
1.25545
1.25072
1.27955
1.25836
1.16053
1.1743
1.19546
1.17289
1.19057
1.20494
0.840901
0.763377
0.684603
0.723031
0.672017
0.576265
0.76057
0.718523
0.956244
0.954423
0.915981
0.959151
1.05035
1.09488
0.957429
1.0048
1.10027
1.09476
1.11776
1.10382
1.14297
1.16085
1.15062
1.16434
1.15502
1.16126
1.15988
1.16209
1.1572
1.1603
0.20052
0.254434
0.45013
0.423616
0.346425
0.42308
0.444924
0.528778
0.194052
0.191645
0.185909
0.103514
5.6082e-05
0.000690569
0.0635828
1.41115
1.4231
1.4349
1.43089
1.46117
1.46333
1.47249
1.46766
1.50772
1.48418
1.49669
1.4615
1.49223
1.50341
1.53162
1.54832
1.5605
1.55699
1.60905
1.6111
1.63175
1.61064
1.52618
1.52725
1.64156
1.64882
0.00016622
0.000334169
0.00101
8.48656e-06
0.000729054
0.00122428
0.00122418
0.0009717
0.000305007
0.000146629
0.000167114
0.00190577
0.00125173
0.000466836
0.000822227
0.000857257
0.00100232
0.000626775
0.000328229
0.000824137
8.63116e-05
0.000988883
0.0140972
0.0365775
0.0186096
0.11341
0.190978
0.072681
0.294127
0.224148
0.303745
0.305699
0.397162
0.335012
0.457201
0.494775
0.48476
0.479132
0.616265
0.580673
0.545201
0.602142
0.627155
0.620912
0.616225
0.601234
0.618617
0.623619
0.700499
0.745074
0.783915
0.741588
0.783566
0.812193
0.950354
0.880909
0.971114
0.961488
1.03872
1.11572
1.20148
1.19943
1.23632
1.27282
1.34773
1.33806
1.35845
1.36581
1.39256
1.40148
1.42234
1.41572
1.42833
1.42397
1.41306
1.42536
1.41443
1.40905
0.000984511
0.000868754
0.00101218
0.000674629
0.000956525
0.000657298
0.000566723
0.000857749
0.000642839
0.00127243
0.000341393
0.000777264
0.000295436
0.00127163
0.00127221
0.00127077
0.00127297
0.00127243
0.00127284
0.000318775
0.000371652
0.00100989
0.000695569
0.000938422
0.000788581
0.00100179
0.000985941
0.000997704
0.000180038
0.000954666
0.000624923
0.00101
0.000209386
0.000640593
0.00100863
0.00104554
0.000660352
0.000881619
0.000973325
0.00360189
9.88329e-05
0.000210438
0.00024578
0.00100992
0.000871155
6.51125e-09
0.000979708
0.00100983
0.00026882
0.000848872
0.00100647
0.000131712
0.00100976
0.000959372
0.000184389
0.000986414
0.000975827
0.000974278
0.00357488
0.000980885