/*--------------------------------*- C++ -*----------------------------------*\
  =========                 |
  \\      /  F ield         | OpenFOAM: The Open Source CFD Toolbox
   \\    /   O peration     | Website:  https://openfoam.org
    \\  /    A nd           | Version:  8
     \\/     M anipulation  |
\*---------------------------------------------------------------------------*/
FoamFile
{
    version     2.0;
    format      ascii;
    class       volScalarField;
    location    "5040";
    object      nut;
}
// * * * * * * * * * * * * * * * * * * * * * * * * * * * * * * * * * * * * * //

dimensions      [0 2 -1 0 0 0 0];

internalField   nonuniform List<scalar> 
526318
(
0.000206457
0.000246501
0.00021721
0.00030164
0.000291953
0.000227609
0.000391088
0.000346362
4.16611e-05
0.000369858
0.000270764
0.000316877
0.000338394
0.000244041
0.000291834
0.000205058
0.000318181
0.000217228
0.000231881
0.00026051
0.000236526
0.000252984
0.000246677
0.000327579
0.000148281
6.82513e-05
0.000178297
0.000427987
0.000134213
0.000145347
0.000215782
0.000225002
0.000218221
0.000251439
0.000284219
0.000166591
0.000157274
0.000218357
0.000160115
0.000177868
0.000148478
0.000329133
0.000283239
0.000463977
0.000186207
0.000401802
0.000260548
0.000309587
0.000340845
0.000260959
0.000181872
0.000220498
0.000170803
0.000200662
0.000134477
0.000567695
0.000224108
6.71723e-05
0.000202462
0.000258293
0.000196717
0.000149464
0.00019518
0.000142134
0.000220705
0.000138155
0.000183265
0.000111191
0.000140188
0.000170795
0.000147726
8.59735e-05
0.000110608
0.000111824
0.00010338
9.3027e-05
0.000133435
0.000107948
7.53696e-05
0.000153958
7.33135e-05
0.00013586
0.000120609
0.000102872
7.50784e-05
9.0883e-05
1.64913e-05
9.10833e-05
0.000117809
2.05218e-05
3.54444e-05
4.22177e-05
0.000148707
9.7882e-05
0.000177364
0.000136059
0.000131186
0.00010109
5.11723e-05
7.00051e-05
0
0
0
0
0
0
0.000372883
0.000169476
0.000453128
0.000184171
0.000457774
0.000254262
0.000274468
0.000277354
0.00021501
0.000272333
0.000213598
3.95588e-05
3.53407e-05
8.01261e-05
8.38829e-05
5.8359e-05
0.000115826
4.32582e-05
7.12798e-05
6.91016e-05
8.87379e-05
5.24515e-05
6.42401e-05
6.9622e-05
6.03164e-05
9.27163e-05
5.81812e-05
8.30391e-05
0.000117285
6.18649e-05
9.56858e-05
6.06799e-05
7.29364e-05
9.26451e-05
8.64787e-05
4.74552e-05
9.41257e-05
5.48745e-05
4.09056e-05
3.48556e-05
2.47498e-05
2.15667e-05
1.62847e-05
6.19719e-05
4.04861e-05
5.74379e-05
5.46422e-05
1.23399e-05
4.61676e-05
8.55772e-05
5.28977e-05
1.11138e-05
1.10717e-05
1.8086e-05
3.44385e-05
7.03395e-05
4.65992e-05
0.000105298
0.000184633
0.000124869
0.000187524
5.21946e-05
0.00010519
5.11385e-05
0.000132459
0.000103296
0.000140134
6.41028e-05
9.84637e-05
7.92319e-05
8.54574e-05
7.154e-05
5.39145e-05
0.000237867
0.000157122
0.000153983
7.65172e-05
9.61824e-05
0.000169594
8.98514e-05
9.09166e-05
0.00010872
0.000106646
7.03779e-05
9.04972e-05
3.90133e-05
7.30852e-05
9.18023e-05
4.2964e-05
6.41081e-05
5.19573e-05
7.75671e-05
5.47885e-05
2.33288e-05
0.000106813
4.80874e-05
3.66642e-05
4.37124e-05
0.000107914
6.77773e-05
2.29806e-05
5.32811e-05
5.48225e-05
4.32968e-05
0.000146444
0.00014076
0.000120154
0.000107872
9.97499e-05
9.66627e-05
0.000164277
0.000180437
0.000151329
0.000461099
0.000201616
0.000284061
0.000294569
9.62422e-05
0.000203852
3.56122e-05
0.000145546
0.000156814
7.70079e-05
0
0
6.18417e-05
8.76127e-05
0
0
0
0
0
0
0.000141463
0.000187082
0.000121849
0.000153188
0.000229296
0.000171011
0.000166095
0.000188234
0.000123719
0.00015224
0.000111299
8.74004e-05
8.75304e-05
1.6057e-05
6.32334e-05
2.59947e-05
5.95394e-05
4.97124e-05
1.56914e-05
4.29794e-05
8.25516e-05
1.55507e-05
0
0
0
0
0
0
0
3.62181e-05
0.000238789
9.26828e-05
0.000456686
0.000114026
0.000481894
0.000237971
0.000359985
0.000216272
0.000107989
0.000236063
0.000141443
1.8253e-05
3.64542e-05
2.60439e-05
3.35034e-05
3.09833e-05
7.10564e-05
2.76597e-05
2.36228e-05
6.4397e-05
5.97094e-05
4.00209e-05
8.63178e-05
6.34274e-05
5.14785e-05
6.14125e-05
6.82618e-05
1.55416e-05
6.16486e-05
0.000158916
7.81831e-05
3.39027e-05
6.28948e-05
7.23217e-05
4.32195e-05
1.94036e-05
6.10395e-05
3.49478e-05
4.48284e-05
2.79208e-05
2.09717e-05
3.57006e-05
2.04654e-05
4.56412e-05
8.03827e-06
4.44887e-05
2.79743e-05
7.92755e-05
2.8157e-05
0.000120692
0.000126246
0.000125424
0.000149386
8.49049e-05
7.17525e-05
4.27506e-05
5.93528e-05
0.000172739
8.99874e-05
5.62517e-05
6.84748e-05
7.7049e-05
7.30165e-05
0.000172529
8.41565e-05
5.95509e-05
5.73267e-05
6.81309e-05
0.000257118
0.000294505
6.50026e-05
0.000127098
0.00012433
5.92957e-05
0.00010462
6.03178e-05
9.05364e-05
4.78843e-05
2.42261e-05
2.2956e-05
6.64442e-05
6.38191e-05
6.11754e-05
0.000119768
9.22262e-05
0.000105174
5.3637e-05
7.38829e-05
3.16008e-05
5.83271e-05
7.86703e-05
7.92316e-05
4.09504e-05
7.78043e-05
5.44309e-05
2.03037e-05
9.03737e-05
4.8943e-05
0.000126832
0.000110576
0.000132626
6.46756e-05
3.57243e-06
4.77128e-05
0.000118716
5.86255e-05
4.61294e-05
5.8663e-05
9.2312e-05
3.30335e-05
3.19137e-05
5.01367e-05
6.83635e-05
7.01456e-05
2.4654e-05
0.000104831
9.08448e-05
6.51567e-05
0.000168572
0.000193316
0.000240357
0.00017224
0.000126115
0.000245444
0.000298225
0.000293256
0.000247055
0.000204393
0.000200403
0.000150782
0
0
0
0
4.3707e-05
0
0
0
0
0
0
0
0
0
0
0
0.00028274
0.00018442
0.00029106
0.000223163
0.000306515
0.000200253
0.000180396
0.000176175
0.000129023
9.60586e-05
9.15439e-05
5.96847e-05
8.08211e-06
8.02508e-05
5.7098e-05
5.50523e-05
4.52707e-05
2.24645e-05
3.08791e-05
7.86347e-05
4.71599e-06
4.49674e-05
0
1.35345e-09
2.64633e-09
0
0
0
0
0
1.75507e-10
1.52701e-09
0
0
0
0
2.3544e-09
0
0
0
0
0
0
0
0
0
0.000145883
0
0.00014556
0.000174007
8.61887e-05
0.000409212
0.000270904
0.000492197
0.000400433
0.000212981
0.000308282
0.000225941
0.000299768
0.000291612
2.75241e-05
4.01836e-05
5.81234e-05
5.52128e-05
5.21133e-05
5.2343e-05
1.29068e-05
4.14618e-05
3.54853e-05
5.23813e-05
2.76176e-05
4.44591e-05
3.57581e-05
6.08415e-05
3.89916e-05
7.77051e-05
5.16035e-05
9.08599e-05
3.59167e-05
3.61512e-05
7.83814e-06
2.75806e-05
1.81125e-05
1.11522e-05
1.91003e-05
1.04139e-05
8.33852e-06
6.78539e-06
9.44467e-06
7.8252e-06
1.31273e-05
5.169e-05
0.000155282
0.000112228
0.00012457
0.000210221
0.000137349
0.000165599
0.000139342
6.76084e-05
0.00010404
9.7032e-05
0.000115658
8.89048e-05
0.000100881
0.000142486
0.000194749
6.96015e-05
8.69921e-05
2.53224e-05
3.07907e-05
3.79231e-05
0.000131392
6.80665e-05
2.85318e-05
1.73276e-05
2.92109e-05
9.49151e-05
0.000176814
5.60171e-05
0.000246378
0.000169538
0.000104841
0.000229565
0.000218233
0.000135507
0.000126697
5.82962e-05
0.000115361
4.94498e-05
2.05094e-05
6.75554e-05
1.38153e-05
2.9803e-05
2.44523e-05
7.27617e-05
8.74673e-05
8.73751e-05
6.40246e-05
6.98887e-05
2.81014e-05
3.03537e-05
5.215e-05
4.14547e-05
6.85716e-05
1.92188e-05
1.91869e-05
4.24475e-05
8.53309e-05
7.15984e-05
0.000100476
5.5998e-05
5.69781e-05
6.2213e-05
5.61039e-05
6.71541e-05
0.000187211
7.25349e-05
7.60565e-05
2.67104e-05
0.000168093
0.000235444
0.000116586
0.00019298
0.000206067
0.000158963
4.64785e-05
0.000128722
2.54019e-05
2.7002e-05
4.95714e-05
3.85556e-06
0.000127893
0.000181578
0.000103557
1.79665e-05
0.000165503
4.11118e-05
0.000149938
0.00012838
0.000305037
0.000188559
0.000169807
0.000104016
0.00013345
4.53923e-05
0.000107292
0
0
0
0
0
4.16412e-05
0
0
0
0
0
0
0
0
0
0
0
0
0
0
0
0
0
0
0
0
1.32831e-10
0
0
2.13706e-10
2.91386e-11
1.35131e-10
0
0
0
0
0
0
0
0
0
0
0
0
0
0
0.000240138
0.000366917
0.000357785
0.000291136
0.000294218
0.000163409
0.000122757
0.000130229
9.50021e-05
7.64307e-05
8.56011e-05
5.38791e-05
4.83667e-05
6.79071e-05
6.53022e-05
1.96345e-05
3.16026e-05
6.42333e-05
2.00442e-05
2.60203e-05
4.5568e-05
5.01435e-05
0
0
0
0
0
0
0
0
0
0
0
0
0
0
0
0
0
0
0
0
0
0
0
0
0
0
6.04935e-09
0
0
0
0
0
4.17247e-06
4.40774e-06
0.000124863
1.90234e-05
0.000153538
0.000135336
0.000116336
0.000341881
0.000480895
0.000332087
0.000320833
0.000415492
0.000382032
0.000349018
0.000359276
0.000324755
0
0
0
0
0
0
0
0
0
0
0
0
0
0
0
0
0
5.56316e-05
7.65335e-06
1.6737e-05
9.52501e-05
1.37261e-05
2.61942e-05
2.6656e-05
4.00044e-05
1.85632e-05
2.78971e-05
1.14143e-05
1.20948e-05
4.26228e-05
3.82065e-05
8.49648e-06
2.73153e-05
7.6833e-05
9.89097e-05
6.52015e-05
0.000101189
6.73804e-06
0
0
4.83337e-06
3.462e-06
1.11436e-05
4.43826e-06
1.20576e-06
0
0
0
0
0.000166328
0.000247677
0.000224781
0.00027702
0.000198311
0.000201409
0.000348385
0.000231435
0.000276711
0.000307851
9.27992e-05
0.000131118
0.000238947
0.000138435
7.18002e-05
0.000101971
9.69176e-05
0.00010022
3.50394e-05
0.00011035
9.33262e-05
3.70928e-05
2.3228e-05
6.07206e-05
2.85552e-05
9.34706e-05
1.55542e-05
2.17907e-05
3.09121e-05
3.6548e-05
5.17789e-05
0.000107247
3.0371e-05
0.000162718
0.00046353
0.000113649
0.000165794
0.000409231
3.30621e-05
2.5889e-05
6.27091e-05
0.00010907
5.66811e-05
4.32992e-05
2.06905e-05
8.66054e-05
4.86274e-05
3.75772e-05
0.000106877
6.83243e-05
8.35388e-05
9.45107e-05
7.24177e-05
6.8823e-05
5.30673e-05
4.43409e-05
5.63526e-05
6.81423e-05
0.000134351
7.76349e-05
8.68828e-05
7.96837e-05
5.99061e-05
8.28846e-05
5.1908e-05
5.41952e-05
7.74634e-05
5.22016e-05
0.000115156
7.88029e-05
6.66726e-05
0.000121258
5.63885e-05
8.82615e-05
0.000118556
0.000102611
0.000202376
0.000147945
0.000211488
0.000190561
0.000260732
0.000205334
0.000276722
0.000244637
0.000267481
0.000239537
0.000238667
0.00024032
0.00026025
0.000279855
0.000287424
0.000250567
0.000198059
0.00020683
0.000268679
0.000135337
0.000102768
5.91921e-05
0.000231397
0.000272989
0.00013984
0.00013174
0.000264308
0.000186133
0.00032171
0.00017665
0.000297532
0.000202336
0.000268101
0.000199728
0.000259659
0.000166144
0.000164495
0.000152026
0.000185951
0.00017199
0.000141298
0.000146054
0.000183027
0.000120493
0.000204878
8.89652e-05
1.96949e-05
3.76174e-05
3.24235e-05
7.58686e-05
2.12019e-05
5.19998e-05
2.98897e-05
7.99541e-05
0
0
3.45948e-05
3.63701e-05
1.20437e-06
6.80883e-05
2.66689e-05
0.000146633
8.57074e-05
0.000129647
2.90127e-07
0
3.90963e-06
2.02541e-05
0
3.11386e-09
0
0
0
0
0
0
0
0
0
4.70557e-09
0
0
0
0
0
0
0
0
4.46869e-09
0
0
0
0
0
0
0
0
0
0
0
0
0
0
0
5.05332e-09
0
0
2.55923e-08
0
0
6.46935e-09
0
0
0
6.01472e-09
0
2.29238e-09
0
5.1315e-09
5.07767e-09
0
0
2.60923e-09
0
0
0
0
0
0
0
0
0
0
0
0
0
0
3.68033e-09
0
0
0.000336384
0.000200408
0.000257615
0.000275338
8.62805e-05
0.000215666
9.79453e-05
5.60572e-05
7.0021e-05
5.21397e-05
4.75963e-05
5.54996e-05
3.43774e-05
2.47111e-05
2.32779e-05
3.45172e-05
3.01882e-05
1.67631e-05
1.81311e-05
2.76447e-05
4.8201e-05
7.06008e-05
0
0
2.29796e-09
2.14997e-09
0
0
0
0
0
0
0
0
0
0
0
0
0
0
0
0
0
0
4.7244e-09
3.53314e-09
0
0
0
6.20557e-06
7.97613e-05
3.67462e-06
5.96279e-05
0.000148224
8.64054e-05
0.000160238
0.000101826
0.000292521
0.000303465
0.000401155
0.000309717
0.000373632
0.000306039
0.000302237
0.000195403
0.000268447
7.66777e-10
0
0
0
0
2.38905e-11
0
0
9.72145e-11
0
0
0
0
0
0
0
0
0
0
0
0
0
0
0
4.57886e-07
1.00068e-06
4.20996e-05
6.25334e-05
4.98288e-05
1.87121e-05
1.23705e-05
2.66281e-05
4.72971e-06
5.7396e-06
1.05228e-05
1.91822e-06
2.59191e-06
7.41268e-06
0
0
0
1.6729e-06
9.47639e-05
1.06582e-05
5.47196e-05
5.81004e-05
0
0
0
0
0
0
0
0
0
0
7.0231e-10
0
0.000257309
0.000298959
0.000271309
0.000286593
0.000192353
0.00019248
0.000272858
0.000306865
0.000193326
0.000184651
0.000179103
0.000228806
0.000167576
9.54512e-05
9.6335e-05
0.000192022
0.000212097
0.000101559
0.000179906
0.000181811
0.000234486
0.000214113
0.00024433
0.000181806
0.000117255
0.00016012
0.000164058
0.000123014
0.000196319
0.000235392
0.00015287
6.66968e-05
0.000169348
0.000179722
0.000105845
0.000165362
0.000145705
6.87243e-05
4.14928e-05
6.74221e-05
0
3.56431e-05
2.33217e-06
6.2348e-05
0.000100833
7.23874e-05
4.02944e-05
5.35776e-05
1.83158e-05
2.2888e-05
2.40153e-06
0
1.4275e-06
6.27513e-05
0
0
0
0
5.23484e-05
2.92945e-05
0
1.88325e-05
6.67989e-05
5.03294e-05
5.37554e-05
4.55602e-05
9.65614e-05
6.69908e-05
7.38617e-05
0.00012322
0.000103265
2.18823e-05
5.27468e-05
4.61042e-05
9.66064e-05
0.000112358
6.34045e-05
0.000118052
0.000122593
9.46082e-05
3.89106e-05
5.88326e-05
0.000101373
0.000170027
0.000108292
1.08942e-05
7.07537e-05
3.73445e-05
8.824e-05
4.15177e-05
0.00014202
0.00010903
0.000129803
0.000162784
0.000228467
0.000244629
0.000263688
0.00027159
0.000232759
0.000240224
0.000234571
0.000284073
0.000248956
0.000293613
0.000319729
0.000313437
0.000324873
0.000186716
0.000310215
0.000161292
0.000325715
0.00020678
0.000357659
0.000221277
0.000329665
0.000199973
0.000228006
0.000110606
0.000153221
0.000303935
0.000299591
6.70075e-05
0.000154243
0.000256147
8.11274e-05
4.93709e-05
0.000104708
3.50545e-05
6.00841e-05
8.12213e-05
3.34287e-05
9.89182e-05
7.22962e-05
3.09663e-05
1.34872e-05
6.93585e-05
9.44493e-05
2.19661e-05
4.75664e-05
3.8052e-05
0.000118862
0.000121922
2.91452e-05
0
0
0
2.25739e-05
1.46175e-05
0
0
0
0
7.59063e-07
4.68626e-07
4.60808e-06
4.44889e-07
4.55988e-06
1.04175e-05
0
0
0
0
3.09187e-09
2.25829e-09
0
0
0
6.2594e-09
0
0
0
0
0
0
0
5.35205e-09
0
0
0
0
0
0
0
0
7.08759e-11
0
0
0
1.52504e-09
0
0
0
0
0
0
0
0
0
0
0
0
0
0
0
0
4.50467e-09
0
1.53768e-09
0
0
0
0
0
0
0
0
0
0
0.000216582
0.000106938
0.000148711
0.000138768
5.57344e-05
0.000154537
3.8088e-05
8.04341e-05
5.34968e-05
4.82918e-05
3.12401e-05
2.51295e-05
3.53918e-05
4.98374e-05
1.72548e-05
8.56412e-05
2.62541e-05
2.50918e-05
4.95261e-05
3.33052e-05
6.40474e-05
7.49938e-05
1.41746e-09
0
9.28312e-10
0
0
0
0
0
0
0
0
0
0
0
0
0
0
0
0
0
0
0
0
0
0
0
0
4.20136e-06
9.41686e-05
1.02268e-05
3.88473e-05
0.00018579
4.4861e-05
0.000183753
0.000231524
3.57554e-05
0.000295488
0.000233935
0.000300545
0.000135977
5.19497e-05
0.000149312
0.000147904
0.000154957
0
0
0
0
0
0
0
0
0
0
0
0
1.40997e-09
0
0
0
0
0
0
1.03981e-08
0
9.15979e-08
1.63763e-07
0
0
0
0
0
0
0
0
4.28865e-05
2.51027e-05
2.4407e-05
3.70621e-05
1.12718e-05
3.42998e-05
1.12608e-05
3.80447e-06
2.62194e-05
3.45529e-05
2.26716e-05
0
0
0
0
1.91606e-09
1.85337e-09
0
4.54655e-07
2.26137e-05
4.64297e-06
2.87895e-05
1.4605e-06
0
0
0
0
0
1.35307e-09
0
0
0
0
0
0
0.000255408
6.42401e-05
9.75326e-05
0.000182239
0.000104971
7.53896e-05
5.37248e-05
0.000136339
0.000102477
0.000127506
0.000167221
0.000128508
0.000187005
0.000160435
0.000110729
0.000107689
5.90431e-05
7.16845e-05
0.000194996
0.000187991
0.000117223
0.000102194
0.000145982
0.000133785
9.97423e-05
0.000105837
0.000222302
9.81479e-05
0.000144044
0.000127303
0.000146892
0.000101558
7.25766e-05
7.43411e-05
0.000102931
0.000235617
0.000284418
0.000267679
0.000258096
0.000181666
0.000206484
0.000278458
0.000285425
0.000181992
0.000220911
0.000297337
0.000209169
7.60477e-05
0.000149336
0.000124247
0.000152497
0.000178281
0.000185686
0.000236968
0.000225612
0.000291527
0.000265154
0.000276808
0.000228919
0.000176282
0.000125641
0.000244108
0.000191154
0.000227591
0.000104992
8.75001e-05
8.35638e-05
0.000128231
0.000207254
0.000158844
6.50268e-05
0.000204685
7.15652e-05
9.0108e-06
5.93896e-05
7.24333e-05
0.000101977
8.89426e-05
9.64666e-05
7.52719e-05
0.000112515
0.000100246
0.000112763
0.000106637
6.95944e-05
9.99271e-05
0.000112101
0.000128307
0.000116099
0.000101997
8.8325e-05
9.95388e-05
7.80116e-07
0
1.24568e-08
0.000126533
1.19911e-05
6.72778e-05
5.0798e-05
5.99991e-05
7.61433e-10
0
0
7.03775e-08
0
0
0
0
0
0
3.11321e-05
0
0
4.66028e-05
3.77127e-05
5.21611e-05
4.95594e-05
0.000124591
5.58642e-05
3.88682e-05
7.71324e-05
9.29224e-05
8.32456e-06
8.53419e-05
6.54808e-05
4.00797e-05
0.000140147
2.15909e-05
0.000140392
0.000241169
0.000177404
0.000233418
0.000164558
6.30558e-05
0.000156854
0.000141698
6.4286e-05
0.000108855
0.000148698
0.000150083
0.000163298
0.000168219
0.000222887
0.000298352
0.000226182
0.000197936
0.000336794
0.000263959
0.000298478
0.000313937
0.000207579
0.000322193
0.000270525
0.000336815
0.000366738
0.00037161
0.000353287
0.000266763
0.000317372
0.00021923
0.000331394
0.000233053
0.000240321
0.000364915
0.000350584
0.000230598
0.00012491
0.000318447
0.000158543
0.000341984
0.000304607
0.000108017
0.000180658
0.000531351
2.18104e-05
0.000341823
0.000193998
1.08037e-05
3.5882e-06
1.00826e-05
0
0
3.93545e-07
0
4.83886e-05
0
0
0
0
0
0
8.25476e-09
0
0
0
0
7.38535e-07
0
0
0
0
0
0
0
0
1.45323e-09
2.05995e-09
3.2913e-09
0
2.18917e-10
0
0
0
0
0
0
0
0
0
6.41748e-09
0
0
0
0
0
0
0
0
2.5982e-07
0
0
0
0
0
0
0
0
0
0
0
0
1.00508e-09
0
0
0
0
1.27106e-09
0
0
0
0
0
0
0
0
0
0
0
0
0
0
0
0
0
0
0
3.37682e-09
0
0
0
0
1.42343e-08
0.000150249
0.000141638
0.000329606
0.000172444
0.000166845
0.000178267
8.29077e-05
0.000130842
0.000106649
9.97002e-05
6.16423e-05
6.67368e-05
4.70958e-05
6.18849e-05
4.99846e-05
3.59351e-05
8.95324e-05
6.95895e-06
4.47167e-05
3.48224e-05
2.91974e-05
6.0187e-05
5.09853e-05
8.54332e-05
3.98299e-05
0
0
0
0
0
0
0
0
0
0
0
1.74792e-09
0
0
4.5743e-06
9.22553e-06
0
0
0
0
0
0
0
0
0
0
0
2.28757e-05
0.000128847
0.000161093
5.15918e-05
9.85443e-05
9.36341e-05
8.90146e-05
7.92175e-05
0.000142666
5.61573e-05
0.000174131
0.000163527
0.000196863
0.000188256
2.54439e-05
2.60729e-05
0
5.82986e-10
0
0
0
0
0
0
0
0
0
0
0
0
0
0
0
6.35651e-10
0
0
0
0
0
0
4.79916e-09
0
0
0
0
0
0
0
0
0
0
1.37953e-08
0
3.85581e-05
2.37366e-05
3.57887e-05
3.75301e-05
4.31203e-05
9.16597e-06
5.09488e-05
0
0
0
0
4.54586e-05
4.71034e-05
0
0
0
0
0
0
0
0
4.0021e-07
0
5.0478e-07
3.34476e-06
0
0
0
0
0
0
0
0
0
0
0
0
0.000105302
0.000279157
0.000221642
0.000136905
6.33882e-05
2.25259e-06
0.000444043
8.43701e-05
6.00151e-05
0.000121835
0.000151258
0.000109867
0.000137245
0.000116777
0.000214498
6.69291e-05
0.000173664
0.000121799
4.44172e-05
0.000128744
0.000104391
2.37133e-05
0.000285768
0.000309588
0.000255214
0.000293931
0.000260752
0.000189495
0.000284328
0.000298927
0.00016923
0.000176432
0.000238751
0.000342884
0.000177573
0.000119479
0.000269481
0.000213384
0.000134303
0.000191452
0.000165639
0.000218578
0.000188157
0.000267445
0.000284423
0.000308588
0.000296066
0.000192431
0.000275989
0.000112894
0.000202857
0.000162274
0.000117368
0.000125875
6.84614e-05
0.000107996
0.00018258
2.6782e-05
8.68266e-05
0.000141458
0.000259774
0.000158142
8.60256e-05
4.60661e-05
6.6513e-05
0.000138405
0.000227755
0.000237471
6.51184e-05
0.000171555
7.3073e-05
2.17055e-05
1.49899e-05
2.77702e-05
1.11516e-05
4.14675e-05
3.53258e-05
8.58009e-05
9.28735e-05
0.00011071
0.000156616
0.000126721
0.000114074
6.03908e-05
8.10513e-05
0.000100061
5.80341e-05
0.000134432
6.20865e-05
0.000168281
1.60894e-08
7.38624e-09
1.85616e-09
0
1.03974e-05
2.89661e-05
0
0
0
0
0
0
0
3.08899e-09
0
1.41995e-09
0
0
0
0
3.49533e-09
4.91387e-06
2.82625e-05
1.80742e-06
9.24731e-05
3.55654e-05
0.000269491
0.000159915
0.00011932
0.000126591
0.000209097
8.45941e-05
6.59306e-05
0.000205441
0.000205463
0.000146971
0.000229215
0.000182551
9.91515e-05
0.000205323
0.000133787
0.000101197
6.94242e-05
7.45166e-05
0.000133894
0.000145225
0.000105763
8.5868e-05
0.000167946
0.000185311
0.000232037
0.00025904
0.000217017
0.000232396
0.000279348
0.000273162
0.000366255
0.000266586
0.000236485
0.000451369
0.000393679
0.000338862
0.000301099
0.000299661
0.000262246
0.000259168
0.000315557
0.000361155
0.000277226
0.000255036
0.00038501
0.00033026
0.000207611
0.000351086
0.000162824
6.94537e-05
0.000131336
0.000297573
0.000644116
0.000216426
0.000660537
0.000598435
0
0
0
0
0
0
0
0
0
0
0
0
0
0
0
0
0
0
0
0
0
0
0
0
0
0
0
0
3.41128e-09
1.72311e-09
0
0
0
0
0
0
0
0
0
0
0
0
1.9043e-07
0
0
0
0
0
0
0
0
1.79199e-06
0
0
0
3.48591e-09
1.37302e-09
0
0
0
0
0
0
0
2.1778e-09
2.25369e-09
0
0
2.03842e-09
2.86395e-09
0
0
0
0
3.47162e-09
0
5.32093e-09
0
0
0
0
0
6.22259e-10
2.92178e-10
0
0
0
0
0
0
0
0
0
0
1.62893e-09
0
0
0
0
0
0
0
0
0.000318422
0.000270895
0.000147554
0.000270007
0.0001154
0.000188455
0.000128527
5.65097e-05
0.000124513
0.000192386
6.91158e-05
8.25437e-05
8.75739e-05
8.8785e-05
3.43724e-05
4.04971e-05
4.20631e-05
3.44167e-05
9.06175e-06
6.54268e-05
7.39401e-05
4.98109e-05
0.000105021
4.48783e-05
2.06386e-05
4.21854e-05
2.20023e-05
0
0
0
0
0
0
0
2.82425e-06
4.00144e-05
1.64683e-06
0
0
0
0
0
0
0
0
0
6.6889e-11
0
0
0
0
0
2.47543e-05
7.67142e-05
6.85034e-05
6.00315e-05
0.000116889
9.96048e-05
9.71554e-05
0.000101474
3.48145e-05
0.000116415
0.000197877
2.03567e-05
0.000124576
0.000120462
9.31148e-05
6.67453e-05
0
0
5.43303e-10
2.6794e-09
0
0
2.65149e-09
9.44986e-10
0
0
0
9.95281e-09
0
0
0
8.05569e-09
6.83783e-09
7.3036e-09
0
0
0
1.02793e-09
0
0
0
1.05241e-08
0
0
0
0
0
0
0
0
0
0
1.30516e-08
0
0
0
0
0
0
0
0
7.27062e-05
4.43335e-05
6.27826e-06
1.15297e-05
2.07283e-05
2.0638e-05
2.44871e-05
0
0
0
0
1.07752e-09
1.36642e-09
0
0
0
0
0
0
0
0
0
0
0
0
1.31002e-05
0
0
2.42548e-09
0
2.58982e-09
0
0
0
0
0
0
0
2.95884e-09
0.000312831
0.000246441
0.000196641
0.000192964
0.000149148
0.000299474
0.000298996
0.000406877
0.000220519
0.000128738
0.000335457
0.000274418
5.89869e-05
0.000213628
9.08171e-05
9.35173e-05
0.000149134
0.000109096
8.27507e-05
0.000117062
0.000105802
0.000121296
0.00012046
0.000115234
0.000152856
4.56015e-05
6.28371e-05
0.000128209
0.000299781
0.000315406
0.000237506
0.000288969
0.00023789
0.000265695
0.00026557
0.000299461
0.000260504
0.000129968
0.000255469
0.000306482
0.000151212
5.95211e-05
7.88943e-05
0.000113269
0.000162543
0.00012935
0.000224908
0.000171632
0.000199466
0.000255206
0.000254884
0.000260643
0.000256947
0.00035106
4.22528e-05
0.000147223
0.000162276
0.000303445
0.000100128
6.84664e-05
0.000120568
0.000170078
8.15195e-05
5.96994e-05
0.000236199
0.000172366
5.45075e-05
5.6656e-05
4.52464e-05
6.11902e-05
0.000452634
0.000567686
0.000119298
0.000236334
0.000259255
0.000203708
0.000191059
8.10393e-05
0.00016508
5.13142e-05
5.65669e-05
5.06102e-05
7.39038e-05
9.47821e-05
4.58467e-05
6.91213e-05
9.39905e-05
0.000109854
0.000129925
0.000106829
0.000105102
9.76903e-05
0.000141086
0.000120475
0.00017928
0
0
0
0
0
0
0
0
0
0
0
0
0
0
0
0
3.23201e-09
0
0
0
0
0
0.000227856
0
0.000149868
0.000154449
0.00022785
0.000113859
0.000128447
0.000131856
0.00016112
5.8713e-05
0.000100956
0.000119367
0.000262029
0.000131094
8.45481e-05
0.000113395
0.000189953
0.000174524
0.000202828
9.65343e-05
0.000126098
0.000169927
0.000163434
0.000143241
0.00012159
0.000191342
0.000190242
0.000225754
0.000270388
0.000264337
0.000250018
0.000316755
0.000292469
0.000296839
0.000390136
0.00025105
0.000350215
0.000254126
0.000301877
0.000265467
0.000314771
0.000290529
0.000350179
0.000292834
0.000387405
0.000286785
0.000237388
0.000365959
0.000293518
0.000190902
0.000265486
0.000109166
0.000242689
0.000150359
0.000427148
0.000382339
0.000791461
0
0
1.4862e-06
7.27686e-11
0
0
0
0
0
0
7.11585e-09
1.20124e-09
0
2.44395e-09
4.95886e-09
6.29362e-10
3.02276e-09
0
2.31197e-09
3.22118e-06
0
0
0
1.55181e-09
0
2.46178e-09
4.79229e-09
0
0
0
0
0
0
0
5.09155e-09
1.74934e-11
0
0
0
0
0
0
1.60626e-07
0
0
0
0
0
0
0
0
0
0
0
0
0
0
0
0
0
0
0
0
0
0
0
0
0
0
0
0
0
0
0
0
0
0
0
0
0
0
0
4.31632e-09
0
0
0
0
0
0
0
0
0
0
0
0
0
0
0
0
0
0
0
0
0
0
0
0
0
0
0
0
0
8.932e-10
0
0
0
0
0.000131947
0.000136626
0.000149812
0.000228516
0.000111967
0.000127061
0.000252927
0.000141314
0.000162206
8.39996e-05
0.000107401
0.00016649
0.000234828
0.000261094
0.000296346
3.84891e-05
3.14607e-05
6.39428e-06
2.24232e-05
3.50983e-05
1.83604e-05
3.14593e-05
5.90117e-05
4.95421e-05
6.76887e-05
6.87463e-05
2.31993e-05
3.78644e-05
8.26793e-06
0
0
0
2.29483e-09
0
5.75895e-05
3.99395e-06
0
0
0
0
0
0
0
0
0
0
0
5.86713e-10
0
2.87438e-10
0
0
0
1.63307e-05
7.05087e-05
1.14268e-05
6.37736e-05
8.22816e-06
3.32793e-05
1.51086e-05
0.000185567
0.00010361
6.32997e-05
1.23996e-05
0.000134845
0.000135296
4.13391e-05
6.97569e-05
4.93577e-05
0
1.00086e-09
0
0
0
0
0
6.00413e-10
0
0
6.07204e-10
0
0
0
0
0
0
0
0
3.25502e-11
0
0
0
0
0
0
0
0
0
0
0
0
0
0
0
0
0
0
1.06483e-09
1.03693e-08
0
0
0
0
0
0
0
0
2.41031e-09
0
0
0
0
0
0
0
0
3.99568e-05
6.79264e-05
4.08674e-05
0
0
0
0
0
0
0
0
0
0
0
0
0
0
0
0
0
0
0
7.26442e-06
0
0
0
0
0
0
0
0
0
0
1.46913e-09
3.61899e-09
0
0
0
0
0
0
0.000466705
0.000304839
0.000242654
0.000725761
0.00027797
0.000548611
0.000250291
0.000937184
0.000482519
0.000194712
0.00048084
0.000436463
0.000358479
8.05354e-05
3.14786e-05
6.40424e-05
5.18683e-05
6.7339e-05
0.000118762
8.93193e-05
0.00010473
5.2161e-05
0.000135836
6.67685e-05
7.74813e-05
7.74183e-05
2.8355e-05
0.000303888
0.000276895
0.000230889
0.000251704
0.000261006
0.000167074
0.000308671
0.000248119
0.00017069
0.000135564
0.000241945
0.000231522
2.51918e-05
5.16125e-05
3.60619e-05
6.35147e-05
8.34029e-05
9.44238e-05
0.00020819
8.33049e-05
0.000161941
0.000352915
0.000251653
0.000194033
0.000183682
0.000309172
0.000153357
0.000102323
0.000137242
0.000348207
5.78071e-05
0.000106905
0.00018208
0.000138847
9.62005e-05
0.000160931
0.000164034
0.000194908
4.79391e-05
6.59932e-05
2.68111e-05
2.11319e-05
0
0
3.09535e-05
0.000304014
0.00041994
3.90199e-05
9.69795e-05
0.000271164
3.25651e-05
0.000106155
9.78577e-05
0.000187329
0.000193422
8.74218e-05
0.000123391
0.000105949
3.25684e-05
4.87715e-05
0.000113844
0.000140108
3.59611e-05
5.85196e-05
9.52538e-05
0.000123989
8.67856e-05
7.68274e-05
0.000117339
0.000185548
4.22485e-05
0
0
0
0
0
1.93824e-09
3.78273e-09
0
0
0
0
4.19472e-09
1.99529e-09
0
0
0
0
0
0
0
0
0
8.83228e-06
4.05031e-05
6.71492e-06
0.000159026
6.71368e-05
7.25755e-05
7.3412e-05
8.46066e-05
0.000185738
0.000125655
0.000218662
0.000192948
6.65801e-05
0.000131921
0.000195475
0.000171658
8.46001e-05
0.000186376
0.000171437
0.000132029
0.00012209
0.000202461
0.00024269
0.00016664
0.000189117
0.000181402
0.000203721
0.000326201
0.000349984
0.000278769
0.000325268
0.000247731
0.000340004
0.000311754
0.000345433
0.000328093
0.000302587
0.0002571
0.000291342
0.000273297
0.000343771
0.00033288
0.000330368
0.000392864
0.000280303
0.000390031
0.000338808
0.000242559
0.000248063
0.00013595
0.000155862
0.000143274
0.000336271
0.000297078
0.000127875
0.000257753
0
0
3.21762e-09
0
0
0
0
0
0
5.51083e-09
0
0
0
5.82378e-09
4.85961e-09
4.10951e-09
1.9335e-09
1.08738e-09
4.18546e-09
0
0
0
0
0
0
0
0
0
0
0
0
0
0
0
0
3.51625e-10
0
0
0
1.54248e-09
0
0
0
0
0
0
0
0
0
0
0
0
0
0
0
0
0
0
1.52827e-08
0
0
0
0
0
8.22204e-10
2.43877e-10
1.22258e-09
0
0
0
0
0
0
0
0
0
0
0
0
0
0
0
0
0
0
0
0
0
0
0
0
0
0
0
0
0
0
0
0
0
0
0
0
0
0
0
0
0
2.26501e-09
0
2.98687e-10
0
0
1.57449e-10
3.45302e-09
0
5.944e-05
0.000191006
0.000213124
0.000161696
7.43115e-05
8.85237e-05
0.000153248
0.000590688
8.66493e-05
0.000280879
0.00034429
0.000185004
0.000288754
0.000165597
0.000273829
0.000346975
2.56323e-05
0.000213673
0.00033065
8.98715e-05
3.58704e-05
7.2887e-05
8.21397e-05
2.0718e-05
4.58977e-05
2.46147e-05
5.70092e-05
5.95166e-05
6.45926e-05
3.73239e-05
2.03018e-05
3.84656e-05
5.86172e-05
0
0
6.64205e-05
8.01734e-05
0
0
0
0
0
0
0
0
7.15148e-09
0
0
0
0
4.53749e-09
0
0
3.1007e-09
0
0
0
2.79059e-05
4.63184e-05
5.535e-05
2.95922e-05
6.99956e-05
9.44988e-05
4.99646e-05
0.000135165
4.85788e-05
5.00769e-05
3.46986e-05
0.000132787
3.85562e-05
0
0
0
0
0
0
6.45723e-09
2.89962e-09
0
0
1.26707e-09
0
0
0
0
0
0
5.4204e-07
0
0
0
0
0
0
0
0
0
0
1.33471e-08
0
0
0
0
0
0
0
0
0
0
0
0
0
0
0
0
0
0
0
0
0
0
7.25661e-09
0
0
0
0
0
0
0
0
0
0
0
2.38578e-05
0
0
0
0
0
0
0
6.09441e-09
0
0
0
0
0
0
0
0
0
0
0
0
0
0
0
0
0
0
0
0
0
0
0
0
0
1.88389e-09
0
0
0
0
0
0
0
0
0.000396232
0.000487348
0.000770899
0.000733251
0.000420068
0.000393581
0.0004286
0.000158761
0.00021784
0.000200135
5.29337e-05
0.000165683
0.000130014
0.000169071
9.34602e-05
3.60965e-05
4.6297e-05
6.5015e-05
0.00010788
9.11439e-05
0.000168416
0.000338837
8.80539e-05
0.000115804
0.00016738
0.000245158
0.000161006
0.000225347
0.000339332
0.000295754
0.000227965
0.000309144
0.000203673
0.000337279
0.000285242
0.000370265
9.91212e-05
0.000148944
0.000241136
0.000308692
8.24026e-05
3.58234e-05
6.23172e-05
5.6766e-05
0.000116173
0.000174822
0.000134464
4.52248e-05
0.000412169
0.000275563
0.000527494
0.000563192
0.00040868
0.000301209
0.000291658
7.52693e-05
0.000239111
0.000285004
0.000113465
4.76618e-05
9.29628e-05
0.000185065
0.00014517
0.000125173
0.000176663
0.000338753
5.96127e-05
2.92078e-05
0.000110277
1.23352e-05
5.57575e-05
6.52924e-05
0.000202639
0.00022611
0.000191811
0.000187595
7.51506e-05
0.000164757
0.000159733
0.000162296
9.96772e-05
0.000100442
0.000172123
8.80077e-05
0.000142914
0.000129006
5.09155e-05
0.000156594
9.97209e-05
3.67844e-05
0.000143426
0.000192541
9.18723e-05
0.000123991
0.000217202
0.000145024
0.000199763
0
0
0
0
0
0
0
0
0
4.75456e-09
0
0
0
0
0
2.97888e-10
4.37257e-10
0
0
0
0
0
6.80552e-05
2.76864e-05
0
9.15183e-05
2.86786e-05
8.24396e-05
0.000151936
0.000150342
0.0001424
0.000150401
0.000172221
0.000238574
3.01975e-05
0.000132264
0.000205242
6.96682e-05
0.000250898
0.000188595
0.000361789
0.000202731
7.86823e-05
7.08261e-05
0.000271285
0.000202091
0.000248485
0.000107193
0.000226173
0.000252015
0.000266113
0.000371566
0.000227603
0.000241784
0.000284823
0.000318794
0.000324344
0.000284681
0.000284381
0.000277561
0.000335855
0.000300712
0.000362265
0.000338809
0.000378657
0.00033701
0.000355828
0.000272698
0.000151738
0.000289181
0.000125134
0.000234823
0.000201522
0.000183627
0.000293414
0.000192873
0.000160763
0.000242039
0
0
0
0
0
0
0
0
0
0
0
0
0
0
0
0
0
2.40285e-09
0
0
2.58364e-09
2.66305e-09
0
0
9.23716e-10
0
0
0
0
0
7.20084e-11
0
0
0
0
0
0
0
0
0
0
0
0
0
0
0
1.24527e-09
2.72007e-09
1.18567e-09
0
0
0
0
1.04738e-09
0
0
1.30652e-09
0
0
0
0
2.00508e-09
0
1.08413e-08
0
0
0
0
0
0
0
0
0
0
0
0
0
0
0
0
0
0
0
0
0
0
0
0
0
0
0
0
0
0
0
0
0
0
0
0
0
0
0
0
0
0
0
0
0
0
0
0
0
0
0
0
0
9.89112e-10
0
0
0
1.37832e-08
0
0
0.000167605
0.000124904
0.00019021
0.000168532
0.000229277
8.96324e-05
0.000142707
0.000125576
0.000122941
0.000190509
0.000245581
0.000116249
0.000281226
0.000251025
0.000290789
4.00293e-05
0.000238228
0.000402676
0.000255961
0.000208538
0.000268898
0.000182471
0.000179214
0.000122213
2.39679e-05
3.59026e-05
7.40659e-05
7.12051e-05
5.31544e-05
3.80847e-05
5.49978e-05
4.0997e-05
2.78863e-05
9.56064e-05
5.19988e-05
2.89552e-05
4.5476e-05
2.44759e-05
2.51464e-05
5.27711e-05
1.81836e-05
0
0
6.86345e-09
0
0
0
0
0
0
0
0
9.8396e-10
0
0
0
5.86173e-10
0
2.0093e-09
0
0
6.85869e-05
4.10388e-05
7.20053e-05
2.27579e-05
8.25111e-05
0.00010373
9.54611e-05
9.86947e-05
6.87718e-05
7.66157e-05
9.9811e-06
7.19985e-11
0
0