/*--------------------------------*- C++ -*----------------------------------*\
  =========                 |
  \\      /  F ield         | OpenFOAM: The Open Source CFD Toolbox
   \\    /   O peration     | Website:  https://openfoam.org
    \\  /    A nd           | Version:  8
     \\/     M anipulation  |
\*---------------------------------------------------------------------------*/
FoamFile
{
    version     2.0;
    format      ascii;
    class       surfaceScalarField;
    location    "5040";
    object      phi;
}
// * * * * * * * * * * * * * * * * * * * * * * * * * * * * * * * * * * * * * //

dimensions      [0 3 -1 0 0 0 0];

internalField   nonuniform List<scalar> 
788991
(
-0.0733235
-0.0066468
-0.054134
-0.0697447
0.00646218
-0.0798982
-0.01746
0.00981297
-0.0737045
0.0559273
-0.0240265
0.0775014
-0.0145368
-0.0821035
-0.0517002
-0.0784964
0.0700369
-0.0092857
-0.0897244
0.0674674
0.0369505
0.052662
-0.0713839
0.030076
-0.0567803
0.0492572
-0.045717
0.0497471
0.0443165
0.0444451
0.0188094
0.048242
0.0460064
0.0197658
0.0633557
0.0145159
-0.00146081
-0.0423244
-0.0940911
0.00981246
-0.0381489
0.0546195
0.00989233
-0.0674056
0.0845098
-0.0319039
-0.0589272
0.0345333
-0.0192907
-0.0861878
-0.0673343
0.0527663
-0.0745624
-0.0087178
0.063289
0.0347393
0.112602
-0.184143
0.0174919
0.0331063
0.0888631
-0.00702613
-0.114536
0.0495349
-0.0151335
0.08759
-0.00947555
-0.0438907
0.0309904
-0.018124
-0.0572509
0.0253068
0.353675
-0.124225
-0.0465626
-0.119802
0.081231
-0.0606867
-0.00462864
0.0406565
0.055937
-0.0609888
0.0558487
-0.0453479
-0.00078668
-0.0512037
0.0494613
-0.0372059
-0.0513431
0.0118754
0.0493409
0.0193889
-0.0380294
-0.0409771
-0.0291611
0.0424429
0.0193621
0.0165278
-0.0237329
0.0334185
0.0241303
0.0299005
0.0107653
-0.000271292
0.0366625
0.0145367
0.0430293
-0.0186215
0.0187789
-0.0313543
0.01486
0.0347896
0.00811117
0.0102468
0.0163452
-0.0335325
0.0208649
0.00837933
-0.000759601
0.0100282
-0.0209562
-0.0254687
-0.0255402
-0.0131607
0.0249862
0.00422308
-0.00210015
0.0302833
0.00235132
-0.0259923
0
0
0
0
0
0
-0.0796702
-0.0986094
0.0707362
0.00356698
0.194443
-0.0324872
-0.0325276
0.0764752
0.204974
-0.0163612
0.0717063
0.0962774
0.0304558
0.0346097
0.0488705
-0.0346958
0.0135014
-0.0083445
0.0350787
0.00773942
-0.0263294
-0.00525635
0.0342943
-0.0447628
0.035436
-0.03072
-0.0110174
0.0276601
-0.0481102
0.0408619
-0.0229529
6.43866e-05
0.0349771
-0.0444824
0.0294303
-0.0391395
0.0339626
0.0594664
0.0566111
0.0228821
0.0613484
0.0426905
0.0891592
0.0347155
0.0429609
-0.0562605
0.0148072
0.0654686
-0.0531556
0.0375175
-0.0922645
-0.0028842
0.0394292
0.0205323
0.0367215
0.0405538
0.00624627
0.0200149
-0.0203041
0.00783495
-0.0132904
-0.00678533
0.0545907
3.30372e-05
0.0238193
0.0550429
-0.0160517
0.0336671
0.00294
0.036566
-0.0353289
-0.00399717
0.0350815
0.0424151
0.0512869
-0.0511436
-0.00588271
0.0517607
0.0472763
-0.0064473
0.0442253
0.0350403
0.0408832
0.000811039
0.027767
0.0291293
0.0106174
0.000848072
0.0147553
0.0443246
0.0168667
0.0135821
0.0465444
-0.0137255
0.0196453
0.0306433
0.019761
-0.0416023
0.039752
-0.0279287
0.0184941
-0.0327488
0.0509678
0.0337714
-0.0156894
0.0477776
-0.0322424
0.0175528
-0.0697271
-0.00669565
0.0313948
0.0708115
0.0190886
0.0647436
-0.0763147
0.0239803
0.079852
-0.0497073
0.0161773
0.0616035
-0.0248102
0.0202923
0.0504237
0.0322971
0.0395632
0.0384674
-0.0216153
0.0346044
0.0617764
0.0197628
0.0345096
0.0675126
-0.00100108
0.0329298
0.0363672
0.00524716
0.00982543
0.0699222
0.0420674
0.015364
0.0104646
0.028131
0.0437407
0.04053
-0.00745897
-0.0280164
-0.0521082
0.0485263
-0.0129117
-0.00977752
-0.0328086
-0.0301802
0.0364557
-0.0324058
-0.0500385
-0.0592255
-0.0317013
-0.0229249
0.174321
-0.108566
0.114536
0.103578
0.00166893
-0.122796
0.0169144
0.0203724
0.00588481
-0.00937462
-0.00127202
0.0263712
-0.0421363
-0.0098237
-0.03228
-0.047688
0
0
-0.0471641
0.0638681
0.0627564
0
0
0
0
0
0
0
0
-0.0478529
-0.0522438
0.00710447
-0.017126
-0.044803
0.007623
-0.0584034
-0.0404817
0.0402313
-0.0487615
-0.027964
-0.0421534
-0.0413104
-0.0115098
0.0417159
-0.0196456
0.00867562
0.0305269
-0.0136524
0.0152117
0.0181245
0.00441634
0.00700108
0.00965306
0.033293
-0.00546997
0.024208
-0.00321765
0.000512363
-0.00546699
0.0164525
0.00123007
-0.0193349
0
0
0
0
0
0
0
0
0.0914006
0
0.0702769
-0.0354261
0.0804214
-0.0339502
0.21569
-0.0255573
-0.0156935
0.0926816
0.20065
-0.00394269
0.0731827
0.0949256
-0.0117396
0.0266768
0.0538653
0.00302359
-0.0193926
0.0137944
0.0181658
0.0119029
0.028203
-0.00326597
0.00204757
0.0187721
0.0121822
-0.00865856
0.0218262
-0.0295191
-0.0104728
0.0584829
-0.0348797
-0.0212179
0.0344525
0.044865
-0.0409918
0.0371374
-0.0828742
0.0259514
0.0348084
-0.0726682
0.0286384
-0.00924273
0.0151724
-0.123521
-0.0140247
-0.0151532
0.0557158
-0.0131638
0.00561221
0.0200038
-0.0217044
0.00545965
-0.0042228
-0.0288465
-0.0283377
0.021066
0.0408152
-0.0344317
-0.00209653
-0.0216943
-0.0250979
0.015681
-0.0325395
-0.0394682
-0.0241765
-0.0458681
-0.0105925
-0.0599502
-0.0400837
-0.0105388
-0.0379907
0.00113496
0.0391952
0.0552264
-0.0142157
-0.0267669
-0.0435498
0.0181267
0.0302153
-0.0380256
0.0241557
-0.0163221
-0.00517377
0.0272056
0.0244687
-0.0211576
0.0055564
0.0484151
-0.012838
0.0182492
0.0283866
0.0161485
0.0516013
0.0491548
-0.0366813
-0.0873889
0.0866786
-0.0175301
0.00715457
-0.089595
-0.0532507
0.089956
-0.0607797
0.0736183
-0.0208245
0.00987805
0.0987735
0.00371152
0.0740432
-0.0603272
0.020553
0.0717349
-0.0448924
0.0203133
0.0468272
0.0114307
0.0219321
0.03015
-0.0257733
0.0184539
0.0333098
-0.0229169
0.0524219
0.0626405
-0.0375471
0.0637007
0.0868361
0.0193518
0.0407009
0.0467361
0.0280821
0.0473949
0.0473516
0.0114507
0.0300631
0.00854954
-0.0372954
0.00958579
0.0443733
0.00239217
0.0229317
0.028843
-0.0235714
0.0789454
0.0229057
-0.00339153
0.0729244
-0.0558339
0.0891943
0.0174043
0.0275052
-0.0168866
0.00650314
0.0084706
-0.0313207
0.0213392
-0.0236795
0.0106995
-0.0226936
-0.0461849
-0.0165599
-0.0133612
-0.0109319
-0.00799588
-0.00944754
0.00780903
-0.0135276
0.0198038
0.0181292
-0.00354827
-0.0203225
-0.0305831
-0.0522275
0.0144994
0.05749
-0.106776
-0.0146869
0.0392759
0.0280655
0.136844
0.141166
-0.000935945
0.161079
-0.146228
-0.0370161
0.116777
-0.114579
-0.0443479
0.0804247
-0.0927193
-0.029877
0
0
-0.084281
0
0
0.10337
0
-0.0602296
0
0
0
0
0
0
0
0
0
0
0
0
0
0
-0.0344626
-0.0696311
0.0487471
-0.0010885
-0.0754976
0.0602626
-0.062287
-0.0233802
0.0563602
-0.0511261
-0.0212467
0.0467706
-0.0307312
-0.00702516
-0.0356918
-0.0157085
0.00935219
0.0269472
0.00385827
0.0155576
-0.0124842
0.0162804
0.0120757
-0.00192342
0.013384
0.00145496
0.00283184
0.0150593
-0.00217589
0.000181361
0.0179932
0.0135625
-0.00603964
5.34731e-05
0
5.37924e-05
0
0
2.31496e-05
4.72494e-05
-8.24168e-05
1.03251e-06
9.95566e-05
0
-6.78183e-05
0
0
0
0
6.35194e-05
0
0
-4.18581e-06
0
0
0
0
0
0
0
0
0
0
-0.114507
0
-0.0799999
-0.0233639
-0.0631665
0.0213893
0.153175
-0.033595
0.0303633
0.0774545
0.163762
-0.0347947
0.0538072
0.0991834
0.0281931
0.000656964
0.0732003
0.043247
-0.0584101
0.0439253
0.069752
0.00992804
0.0115551
-0.0144206
0.0069952
0.0123828
-0.0178842
0.015096
0.0395441
0.0337394
0.00638482
0.0408157
-0.0155539
-0.015275
0.0256704
-0.0423597
-0.0413073
0.0314918
0.0390163
0.128358
-0.0611414
0.0133983
0.0673547
-0.0266692
0.0475073
0.0180725
0.0442741
0.0761274
-0.026807
-0.00182322
-0.0734593
-0.000520056
-0.0345453
-0.0277118
-0.00436921
-0.0294991
-0.00831877
0.00686562
-0.00788295
0.0124411
0.0130362
-0.000747673
0.00285129
-0.019146
0.0297886
-0.0304003
0.0157575
-0.0517656
-0.0538399
0.015554
-0.0435846
0.00498661
-0.0105437
0.0569794
-0.0852438
-0.074928
0.0364088
-0.0718602
0.0114123
0.0368531
-0.0749642
-0.0508073
0.0361057
-0.060622
-0.0182175
0.106975
-0.0575017
-0.0306357
-0.0414336
-0.00509713
-0.0388124
-0.0363126
-0.0205292
0.00519841
-0.0119389
0.0330675
0.00553519
0.0174506
0.0144622
0.0362858
-0.00694128
0.00558348
0.0206186
-0.00481644
0.0508153
0.0343155
0.0511149
0.0784085
0.0852451
0.0472057
-0.210508
0.13179
-0.0607563
-0.0331468
-0.189421
0.205511
-0.337903
-0.098251
0.145727
-0.00151714
-0.0212563
-0.0208854
0.0236847
-0.0254608
0.00609728
0.00799787
0.00729993
0.0285414
0.0166429
-0.0123689
-0.0117542
0.0430849
0.0536625
-0.0270801
0.0428939
0.0545544
-0.0252741
0.0158804
0.0537601
0.0306119
0.0155792
0.0266624
-0.0239744
0.010492
0.024894
-0.034542
0.0260407
-0.0056956
-0.000349428
0.0305018
-0.0171655
0.0326074
0.0269559
0.0301574
0.00379232
0.0327544
0.0105175
-0.00177176
0.021723
0.0159919
-0.00177563
0.0147676
0.0808743
-0.0229359
0.0284439
0.0361727
0.00080322
0.0626122
0.0216341
-0.0455338
0.0734969
0.00918011
0.0681351
0.090955
0.0287305
-0.0178111
0.0592208
-0.0061855
-0.0219526
-0.0120202
-0.0384097
0.00970631
0.0173969
0.00119517
-0.00993226
0.016465
-0.0137367
0.000245339
-0.0850294
0.00685393
0.0315783
-0.0428973
0.050807
-0.0185903
0.0322314
0.0942377
-0.0255829
0.139789
0.0742701
-0.00986405
0.00329218
0.00361956
-0.0235459
0.00565296
0.0291603
0.00931223
-0.0183668
-0.0344122
0
0
0
0
0
0
-0.0316519
0
0.0383161
0
0
0
0
0
0
0
0
0
0
0
0
0
0
0
0
0
0
0
0
0
0
0
0
-1.06833e-05
0
-5.26304e-06
0
-4.89695e-06
-5.8726e-06
3.64567e-06
0
6.71134e-07
-4.14286e-06
-3.60721e-08
0
5.05443e-07
0
0
0
0
0
0
0
0
0
0
0
0
0
0
0
0
0
-0.0135975
-0.0781495
-0.0695106
0.0135374
-0.0824048
0.0779081
-0.0588308
-0.0174106
0.0527683
-0.0394691
-0.0170037
-0.033798
-0.0226411
-0.00263273
-0.029036
-0.00312503
0.0163254
0.0244331
0.0102635
0.0222105
-0.01161
0.0129962
0.0108678
0.00146846
0.00788454
0.00117363
-0.00392756
0.00478855
0.0146408
-0.00297117
0.00658359
0.011828
0.0186846
0
0
0
0
0
0
0
0
0
0
0
0
0
0
0
0
0
0
0
0
0
0
0
0
0
0
0
0
0
0
0
0
0
0
0
0
0
0
0
0.000157857
0.000209851
0
0
0
0
0
0
0.00489697
0.0131109
0.0361397
-0.0888522
0.0287737
-0.0252624
-0.0584503
-0.0431026
-0.0322275
0.0971131
-0.0231895
0.0413768
0.0669235
0.138481
0.0524532
0.0315685
0.10811
-0.0552763
-0.0231621
0.0870008
0.0719249
-0.06881
0.0534029
-0.0857933
0
0
0
-4.2588e-07
0
0
0
0
0
0
0
0
0
0
0
0
0
0
0
0
0
0
0.015487
0.00245032
0.00532854
0.0217934
0.00694207
0.0248765
-0.00704751
0.0435989
-0.00647519
0.00430306
0.0209196
-0.0201094
0.00400691
0.0354335
-0.0150204
-0.000867303
-0.0341953
0.0151026
-0.109413
0.0104543
0.0133588
-0.0390207
-0.0335266
0.00505593
0.0782346
-0.0671602
0.120037
0.065357
-0.00948136
0.0974097
-0.0366435
-0.0138737
-0.0116234
0.0299857
-0.0249038
0.00835297
0.0174275
0.0353783
-0.00370299
-0.00191143
-0.016825
-0.0205882
-0.0242426
0.00189903
0
0
0
0
-0.0712359
0.118643
0.0262841
-0.0554948
0.051111
-0.0770223
-0.118361
-0.0398828
0.0518517
-0.0672679
0.109219
-0.0672569
0.0435892
-0.117914
-0.036098
0.0228881
-0.0952076
-0.0604804
0.0549877
-0.0503645
-0.0288145
-0.000107473
-0.0746835
-0.0225608
-0.046209
-0.015534
0.0993473
-0.0481859
-0.0189701
0.00316052
0.0221655
-0.049079
0.0036766
-0.012975
-0.0321583
0.0364076
-0.0146884
0.014808
0.0263201
-0.0078438
-0.0111956
-0.00521211
5.25545e-05
0.0439279
0.00955456
0.0197836
0.0308792
0.0531619
0.0977159
0.0859018
0.0362156
-0.0795813
-0.380614
0.181297
-0.321925
-0.0758179
-0.0402138
-0.0530871
-0.00542045
-0.0230533
-0.048019
-0.00838383
-0.0865539
0.0462145
-0.00464728
-0.0421692
-0.0459499
0.0249483
-0.0259792
0.00349794
0.0468467
0.0658267
0.0191402
0.0347712
0.0617187
-0.00986096
0.0232762
0.0545924
0.0105648
0.0122192
0.0337926
0.00215484
0.00761242
0.02161
0.0215802
0.0313866
0.0803243
0.0439223
0.0339913
0.00911437
0.0257149
0.0523141
0.0251587
-0.032973
0.0333225
0.00587461
-0.015308
0.0411719
-0.00331977
0.0174048
0.0166031
0.0251847
0.0167055
-0.00931337
-0.0278099
-0.00808657
-0.0239883
-0.0387433
-0.00520789
0.0191861
-0.00965164
-0.0360622
0.0434925
-0.00896095
-0.049834
0.0773664
0.00249042
-0.0467632
0.103192
0.0443521
0.0524151
0.0946079
0.0353083
0.0385241
-0.0598087
0.0517196
-0.0614155
0.0722604
-0.0225617
0.0217511
0.0624251
0.0257688
0.0852714
0.0278836
-0.0483846
0.0368734
-0.0368244
-0.00875956
0.0195744
-0.035265
0.0449781
-0.0278857
0.00393943
0.00581979
-0.0390045
0.0568193
-0.0363545
0.0112944
0.00867918
0.0476404
-0.0460228
-0.0448314
0.00181919
0.0121975
-0.0479917
0.0237222
-0.0428903
-0.00765861
-0.00487307
-0.0380359
0.0134043
-0.0289418
0.0134998
-0.00188058
-0.023343
-0.0307141
0.00807292
0.0180354
-0.0226354
0.0212186
-0.0254514
0.00873769
0.00597349
0.0166144
0.0167599
-0.00462022
-0.0117885
0.0135071
0.00648087
-0.0088733
-0.0734828
-0.00124107
-0.0444448
-0.0562376
-0.0138833
0
-0.00637097
-0.0117482
0.00837538
-0.0183665
-0.0571031
0.209887
-0.0210477
0.0830481
0.131142
0.0846025
-0.0427266
0.0835136
-0.0744895
-0.0340231
-0.00521912
-0.0851219
-0.00389333
0.0673338
0
-9.28922e-05
1.3811e-06
0
0
0
0
0
0
0
0
0
0
0
0
0
3.95473e-05
0.000102848
0
0
0
-9.17348e-05
0
0
0
0
0
0
0
0
0
-2.74829e-05
-0.000139844
0
0
0
0
0
0
0
0
0
0
0
0
-6.8831e-07
0
0
0
0
0
-0.000506754
0
0
-0.000164664
4.5292e-06
-0.00046117
0
0
0
-0.000980019
0
-0.000277905
-0.000122972
0
0
0
-0.00019746
-5.70184e-05
-0.000141744
-4.4426e-05
3.25305e-05
-0.000143373
-9.81724e-06
-8.99406e-05
0
-9.19596e-05
-0.000152486
0
-6.29427e-06
0
0
0
0
0
0
0
0
0
0
0
0
0
0
0
0
-0.000118285
0
5.44927e-05
0
-6.39634e-05
0
-0.00353649
-0.0732115
0.0634082
0.0202853
-0.0781138
-0.068923
-0.0410818
-0.0175402
-0.0311964
-0.0228643
-0.0139188
0.0195082
-0.00431795
0.00356863
0.0215329
0.00383516
0.0207853
-0.013897
0.00557381
0.0151667
0.000249348
0.00673626
0.0159394
-0.0018633
0.00742569
-0.00143018
0.00507924
0.00931634
-0.00399033
0.00868044
-0.0129545
-0.0132567
0.0223775
0
0
0
2.94651e-05
7.50785e-06
0.000130388
0
0
0
0
0
0
7.96932e-05
0
0
0
0
0
0
0
0
0
0
0
0
0
0
0
0
0
-5.20025e-05
0
0
6.16167e-05
6.73309e-05
3.99174e-05
0
-5.84133e-05
0
-0.00253925
0
0.0229262
-0.021668
0.0421348
-0.056277
-0.0750661
0.00167198
0.0109498
-0.0666882
-0.0398519
0.0216219
0.0699213
-0.0174691
0.0363155
0.0581026
0.11043
-0.0439648
0.0170365
0.104142
-0.0589285
-0.0317226
0.0773294
0.0731753
-0.0590507
0.0633202
0.0426868
2.57551e-05
0
0
9.11683e-07
0
2.47976e-05
0
-7.66759e-07
0
-9.7576e-08
0
3.11923e-06
-1.89774e-06
0
0
0
0
0
0
7.67995e-05
0
0
0.000171255
0
0
0
0
0
0
0
0
0
0
0
0
0.0041706
0
0.0104154
-0.00209263
-0.0309075
-0.0151537
-0.0269858
0.0199208
-0.0206623
0.0151036
0.00717604
-0.0132859
-0.0196925
-0.00959071
0.00283823
-0.00189301
-0.0113274
-0.00407352
0.0257795
0.0365728
-0.0327354
-0.0150335
-0.00341159
0
-0.0918944
0
-0.00391582
-0.123624
0.00317334
0.0294484
-0.0850471
-0.0429733
0.0709571
0
0
0
0
0
0
-0.0051032
0.00720817
0
0
0
0
0
0
0
-2.12586e-05
0
-1.98966e-05
-0.0649982
-0.0871057
-0.040622
-0.0787848
-0.134057
-0.0512878
-0.070426
-0.130263
-0.0148437
-0.0994546
-0.0609615
-0.0440777
-0.0406921
-0.0391622
0.019614
-0.0474792
-0.0504236
-0.0242409
-0.0274007
-0.0294094
-0.00392184
-0.0432317
-0.0285281
0.0055972
-0.0401549
-0.0331432
0.0024081
-0.0272045
-0.0397712
0.010558
-0.0227064
-0.0374962
-0.0178032
-0.0198997
-0.0419728
-0.0145454
-0.0261174
0.000260329
0.0142026
-0.00870218
-0.0162936
-0.0414799
-0.0227231
0.0159632
-0.148958
-0.042199
-0.0423903
-0.0886482
-0.0499213
0.0455041
-0.0548279
-0.0252583
0.114538
-0.113217
-0.0518487
-0.00873681
0.00847881
0.0283585
0.0870641
-0.0324081
0
0.0113337
-0.0250804
0.00209168
-0.00376893
-0.0486777
-0.0160532
-0.0200397
-0.0173904
-0.0375514
-0.00698231
0.0260585
-0.0128321
-0.0322556
-0.0562958
-0.0167186
-0.025584
-0.0561453
-0.0184619
-0.00188443
-0.347779
-0.0945203
0
0.00500285
0
0
0.00114192
0
-0.0501797
-0.0151217
0.0364627
0.0624281
0.00214198
-0.0223532
0.091017
0.0113398
-0.000535122
0.00613253
0.0456528
0.0356548
0.0435658
0.0556553
0.0843089
-0.0041042
0.0243391
0.044539
-0.0169143
-0.0243638
-0.0010304
-0.0031242
0.0350415
0.0340941
0.0397555
0.0315781
0.0545083
-0.0344256
0.0236036
0.0655401
0.0365934
0.0271881
-0.007152
0.0223698
0.0822314
0.0231423
-0.0226171
-0.0146558
-0.0520176
-0.00748654
0.0174643
-0.00141897
-0.0040984
0.000480123
0.00289533
0.0029457
0.0197123
0.0665732
-0.0264023
0.0315827
0.0806394
0.0149054
0.0873138
0.0465287
-0.0555155
0.0798054
0.0254753
0.0709331
0.0866702
0.00968826
-0.0550676
0.0915691
0.0317646
-0.0536777
0.0561205
0.0315907
0.0839771
0.0938137
0.0373186
0.0596506
0.0587486
0.0277564
-0.0480464
0.0494682
0.015603
-0.0445156
0.0567309
0.00640214
-0.0486037
0.0619674
0.00492292
-0.0576204
0.0414244
0.00768318
-0.0469086
0.0221309
0.00239366
-0.0288819
0.00349523
-0.017939
0.0275742
0.00736947
0.0271891
-0.00145591
-0.00395862
-0.00991519
-0.0233255
-0.0114986
0.000548725
-0.0150365
-0.00952427
0.00286383
0.00571271
0.00672295
-0.00991907
-0.00653412
-0.0123884
-0.00634359
-0.0835965
-0.0777193
0.00388338
0.0422185
-0.0478182
-0.0607708
0.0297612
-0.0188923
-0.0654398
0.0197276
-0.0366307
-0.0173032
0.00292145
0
0.0096629
-0.0152471
0
0
0
-0.0177844
-0.0128631
0.00234425
-0.098343
0
0
-0.100285
0
0
-0.00474388
0.012574
0.0179458
-0.0366672
0.0142555
-0.0455295
-0.0241676
0.00704582
0.0246582
0
0
0
0
0
0
4.96665e-05
4.79139e-05
2.97428e-05
0
0
0
-3.90093e-05
0
0.000126492
0
-5.48672e-05
0
0
0
0
0
0
0
0
-5.66966e-06
-6.14376e-05
0
0
0
0
-0.000179929
0
0
0
0
0
0
0
0
-1.12653e-06
-2.7838e-06
0
0
0
0
-6.35215e-05
-2.65877e-05
0
0
0
-0.000151566
0
0
0
0
0
-0.000135034
0
0
-0.000154651
0
0
0
0
0
0
0
0
-0.000145509
0
8.22576e-05
-5.86411e-05
0
5.92225e-06
0
-5.26265e-05
0
0
0
0
0
0
0
0
1.65887e-06
0
0
0
0
-0.00694705
-0.0552336
0.0351588
0.00863004
-0.0597632
-0.036267
-0.0232254
-0.0191955
-0.0088864
0.00169797
-0.00934506
-0.00804565
0.0114203
0.0141663
-0.0128459
0.0107237
0.0163318
-0.00437888
0.00225474
0.00453126
-0.0209949
-0.00353777
-0.014573
-0.0101621
-0.0377685
0.00054567
-0.00735156
-0.0142979
-0.00123436
-0.000303623
-0.00973779
-0.0222991
0.0179219
-0.000118314
0
-1.70277e-06
0
-7.20439e-05
-3.20252e-05
0
0
0
0
0
0
0
0
0
0
0
0
0
0
0
0
0
0
0
0
0
0
0
0
-9.2538e-05
0
0
0
0
0
0
0
0
-0.0159516
0.0137543
0
-0.0548347
0.00507378
-0.0338355
-0.0700236
-0.0156384
0.00293614
-0.0604262
-0.044295
0.0101164
0.0656693
-0.0204065
-0.00976401
0.0584646
0.0880228
0.0262758
0.00875383
0.0901948
0.0365583
-0.0184085
-0.0415772
0.0284658
-0.0114146
0.0433726
-0.0329013
0
0
0
0
0
0
0
0
0
0
2.05703e-06
0
0
0
0
0
4.48068e-05
0
5.45389e-06
-0.00629894
5.02967e-05
0
0
-7.33207e-05
0
0
0
0.000268012
0
-0.000127073
-0.00398933
-0.00190169
-0.00387832
0
0
0
0
0
0
0
0
0
0
-0.00479674
0
-0.0135572
0.0105249
-0.0128509
-0.0586789
-0.0338202
0.00287639
0.0215289
0.0266564
-0.0121182
0.00829151
-0.00199695
-0.0107665
-0.0547229
0.00998488
-0.0188828
-0.00174669
-0.0180276
-4.2437e-07
0
0
0
0
-5.74487e-05
-3.59256e-05
4.63223e-05
-0.0274329
-5.00333e-05
0.0175857
0.0589739
0.0386309
-0.0215765
-0.0527359
0.0109607
0.0365416
0
-1.39963e-06
0
1.79016e-05
0
0
0
-5.05964e-05
1.86161e-05
0
0
0
0
0
0
0
0
0
0.00913176
0.0399187
-0.00211601
-0.00561287
-0.0350834
-0.00838998
-0.0021019
0.0116461
0.0132183
0.00214858
-0.00940325
0.0244355
-0.0246972
-0.00180411
0.0200167
0.0256647
0.00306021
-0.0151762
-0.0154782
0.00976567
-0.0135668
0.00550245
-0.0182456
0.0224177
-0.0182675
-0.0321224
0.00899573
-0.0300489
0.018094
-0.0132524
0.0284292
-0.028359
0.0261816
-0.00277146
-0.0304274
-0.0373361
0.00203242
-0.0228387
-0.0120231
0.00289257
-0.0142072
0.0109523
-0.00273949
-0.017234
-0.0130547
-0.0558675
-0.0723092
-0.0412208
-0.0621853
-0.11578
-0.0509255
-0.0788793
-0.11371
0.00812448
-0.0941494
-0.0544989
-0.0424227
-0.030565
-0.0342141
0.0124483
-0.0457385
-0.0465163
0.0166379
-0.0345038
-0.0357844
0.0131371
-0.0204954
-0.0267947
-0.0180892
-0.0212417
-0.0346139
-0.0194723
-0.0259676
-0.0457189
-0.0202985
-0.0312945
-0.0506028
-0.026007
-0.0368439
-0.0569177
-0.0103873
-0.0374792
-0.00953911
-0.0139686
-0.049197
-0.0255873
-0.0136393
-0.0765525
-0.135162
-0.0542168
-0.0405837
-0.0502468
-0.0980979
0.0335688
-0.0950483
-0.0710635
-0.0425825
-0.0486767
0.0443142
-0.10635
-0.0335614
-0.0753181
-0.0682561
-0.0083564
-0.00925878
-0.00542301
-0.00582886
-0.007916
-0.017641
0.00387607
0.00437931
-0.0130971
-0.0112097
0.0132248
-0.0146598
-0.0141763
0.00875236
-0.000975771
-0.0107219
0.0058463
0.0141441
0.015304
0.00147568
0.0110052
0.0204663
0.0080917
-0.00603769
0.0104373
0.0136603
0.00537358
0.000106084
-0.00037889
-0.00901649
-0.0142986
0.018577
0.0648319
-0.0220053
-0.0239152
0.0201484
0.00851525
-0.0223894
-6.52993e-06
-0.0375319
-2.10989e-05
-0.00559056
0.000768072
-0.00200902
0
0
0
0
0
0
0
0
0
0.0187787
0
0
-0.0336737
-0.0378585
0.0508686
-0.00451428
-0.0672002
-0.0720931
0.0563789
0.0618866
-0.0627106
0.0490827
-0.0302318
0.0464614
0.0304532
0.0367645
0.0463521
0.00226475
-0.0290924
0.0387942
-0.00823743
0.0240585
0.0210316
-0.0310435
-0.00721125
-0.0435904
0.0487645
0.11959
-0.0812935
0.0749105
0.117878
-0.0543087
0.0728894
0.0392695
-0.00298173
0.0930173
0.0669942
0.0262574
0.0207621
0.0326031
-0.00381777
0.0463025
0.0585383
-0.00986359
0.0776633
0.0479985
-0.0133881
0.0647261
0.12658
-0.0418662
0.0582966
0.102438
0.0276028
0.102268
0.0595483
0.0682721
0.079187
0.0138215
-0.0907258
0.0879212
-0.0119149
-0.0603023
0.0622123
0.0300279
0.0997761
0.0906961
0.0317507
0.0708968
0.0777522
0.0355682
-0.0578351
0.065107
0.0177873
-0.0499185
0.056087
0.00829219
-0.0531076
0.0579876
-0.00231198
0.0573395
0.0612931
-0.00535565
-0.0548159
0.0369366
0.00922672
0.0394583
0.0135632
-0.000524729
0.0341267
0.0228166
0.0260519
0.00306345
-0.010743
-0.0494458
0.0268461
-0.00129368
0.0303194
-0.0110038
-0.00390979
-0.00934422
-0.00396485
0.0199355
0.0304963
0.00681318
-0.0110078
-0.00387249
0
-0.0303042
0
0.00149936
-0.0025844
0.000188943
-0.0155963
-0.0128483
-0.0289028
0
0
0
0
-0.000227132
0
-0.000203248
-0.0101086
0.000924195
0
0
-5.34366e-05
0
-0.00213701
0
0.00791465
-0.00553496
-0.0159452
0
-0.0185512
0
0
0
0
0
0
6.43889e-05
0.000107965
-4.56569e-05
8.42449e-05
0
7.05886e-05
5.00336e-06
3.88692e-05
8.85936e-06
0
0
0
0
0
0
0
0
0
0
0
0
-0.000110587
0
-0.000228641
0
0
0
0
0
0
0
0
0
0
0.00318876
0.00187465
0
0
0
0
0
0
-3.69989e-05
0
0
0
0
0
0
0
0
0
0
0
0
-2.2388e-05
-4.21716e-05
0
0
0
0
-2.54274e-05
-2.8156e-05
0
0
0
0
0
0
0
0
0
0
0
0
0
0
0
0
0
0
0
0
0
0
0
0
0
0
0
-4.69744e-05
0
2.21693e-05
0
0
0
-0.00033747
0
0.000233637
0.016209
-0.012014
-0.0318988
0.00323872
0.00824285
-0.029236
0.0192128
-0.00773567
-0.0145248
-0.033329
-0.00503441
-0.00712413
-0.0359951
0.00780031
-0.005137
-0.0163563
0.00438171
0.0115883
0.00351818
0.00583256
0.0186703
0.0189229
0.0025658
0.0128521
0.00802983
0.0255684
0.00969626
-0.0120194
0.00188476
-0.00576693
0.00969294
-0.0320277
0.00966054
-0.0207121
-0.0202666
-0.00343846
-0.03199
4.71445e-06
0
0
0
0
0
0
0
0
0
0
0
0
0
0
0
0
6.41001e-05
0
2.50952e-05
0
0.0125501
0.0400776
0.0115855
0
0
0
0
0
0
0
0
0
0
0
0
0
0
0
0
0
-0.040977
0.00251259
0.0324776
-0.0526889
-0.0330542
-0.00010413
-0.0190696
-0.0317258
0.00953688
-0.0101874
-0.0275437
-0.0490554
-4.60522e-07
0.0677125
-0.014498
-0.0110975
0.0574923
0.0582007
-0.0100545
0.0163646
0.0556374
0.00617534
-0.0187627
0.00623861
0
0
1.73756e-05
-2.32271e-06
0
0
0
0
0
0
0
0
0
0
0
0
0
0
0
0
0
0
0
0
0
0
0
0
8.52636e-06
1.43134e-05
0
0
0
0
0.000129322
4.97547e-05
0.000748573
0
0
0
0
0
0
0
0
0
0
0
0
0
0
0.000203243
0
-0.000349164
0.037292
-0.0276651
0.00999624
-0.0276469
0.0272116
0.00478346
-0.0183049
0.0398785
0.0659558
-0.0342579
-0.0229335
-0.0070953
0
0
0
0
0.0229361
0.0457302
-0.0108446
0
0
0
-3.195e-05
0
0
0
0
0
-0.00873129
0
0
-0.0028989
0
-0.00604213
0.0252495
0.0128705
-0.0107458
0
0
0
0
0
0
0
0
0
0
0
0
0
0
0
0
0
0
-0.0268324
-0.00820377
-0.0227698
0.00152888
-0.0459496
-0.00668143
-0.00331449
-0.0103347
-0.0104147
-0.0552391
0.0133126
-0.0341515
0.0101681
-0.0123805
0.0169589
0.0141157
-0.0122942
-0.0284326
0.0164181
-0.00497588
0.025199
-0.00354969
-0.0105399
0.0239346
-0.000735394
-0.0256721
0.0203339
0.00362657
-0.0141829
-0.0178646
0.0187502
-0.00541046
0.0125572
-0.0653881
-0.0796762
-0.0280462
-0.0552137
-0.0992756
0.0361134
-0.0782145
-0.102148
0.00325402
-0.0960009
-0.0710651
0.026257
-0.0409627
-0.0498771
0.00500203
-0.0234136
-0.0671374
-0.0270748
-0.00543942
-0.0487842
-0.0064624
0.0189047
-0.0354469
-0.0294387
-0.00197079
-0.0154072
-0.0368278
-0.0261377
-0.0191278
-0.0413647
-0.028367
-0.0333221
-0.0512576
-0.0289761
-0.0464934
-0.0634482
0.0176896
-0.0409526
-0.061402
0.0130505
-0.0402456
-0.0160348
0.00769529
-0.0345195
-0.0180455
-0.0207258
-0.0715867
-0.0924823
-0.0165823
-0.0584371
-0.102409
0.0309875
-0.0356781
-0.0689149
0.0208444
-0.104147
-0.0662697
0.0181665
0.00802101
-0.052615
0.00916898
-0.0202416
-0.112201
-0.0217381
-0.0179377
-0.0217863
0.0281949
-0.0272804
-0.0132144
-0.00214308
-0.0112084
-0.00851394
0.00748359
-0.003766
0.000660407
-0.00230432
-0.00147192
0.00869184
0.00599468
0.000364416
-0.00551848
0.00165313
0.00631987
-0.0150144
0.0127352
-0.012944
-0.00758764
0.00224544
0.0233634
-0.0120292
0.00229412
-0.0154557
-0.00922979
0.0152172
-0.00285198
0.0159746
-0.00635364
0.0088519
0.0124414
0.0272455
-0.000117086
-0.000312538
0.000132135
0.000410338
-0.0205632
-0.0004971
0.00582642
-0.0956046
-0.00100359
0
-0.0429488
0
-0.0012572
0
0
0
0
0
-0.000104098
0
3.96992e-05
0
-1.85231e-05
-2.30833e-05
0
0
0
0
4.64819e-05
3.87322e-05
0
-0.0262197
0.0120422
0.10125
-0.0460991
-0.0459813
0.0321043
0.0201356
0.00284893
0.0954483
-0.0618729
-0.0324
-0.0367304
-0.0292667
-0.0989317
-0.0799982
0.0179514
-0.0719601
0.0108603
0.00156968
0.0871543
0.0622371
0.106275
-0.0737911
0.0737032
0.126159
0.0618817
0.0513419
0.0580277
0.0391711
0.0548216
0.0620198
-0.00139483
0.0602928
0.0261307
-0.00854883
0.0479451
0.0583815
-0.00809864
0.0332907
0.0446177
0.00747641
0.082878
0.0486915
-0.0197435
0.0574277
0.0980279
-0.0477414
0.0475937
0.0937994
-0.0433487
0.0825327
0.0394581
-0.0652775
0.0514836
0.00544319
-0.0805771
0.0689105
-0.0214921
0.101283
0.0449811
-0.0688295
0.090364
0.0276742
-0.0598985
0.0682884
0.0212928
-0.0517611
0.0610438
0.0070865
0.0552333
0.0537481
-0.00128101
-0.0588929
0.0540028
-0.0109381
0.0584952
0.0560135
-0.00254941
-0.0459144
0.0360601
0.00896483
-0.0420911
0.0261163
-7.60244e-05
-0.00832313
-0.0287549
-0.0592725
0.0412183
0.00908722
0.070589
-0.0491323
0.00399588
-0.0590869
-0.0204198
0
0
0
0
0
0
0
0
0
0
0
0
0
0
0
0
0
0
0
0
0
-0.000263354
0
0
0
0
0
0
-3.85043e-06
0
0
0
0
0
0
0
0
0
0
0
0
3.02007e-05
-8.78717e-06
6.81695e-05
0
5.95099e-05
0
0
0
0
0
0
0
0
0
0
0
0
0
0
0
0
0
0.00255087
-0.00207794
-0.000125287
0
0
0
0
0
0
0
0
-0.00591213
0
0.0297896
0
0.018808
0
0
2.39948e-05
8.156e-05
7.39332e-06
0
-3.45724e-05
0
0
0
0
0
0
0
0
0
7.29852e-05
1.50844e-05
0.000142636
0
-2.55835e-05
0
-0.000103061
0.000179866
-0.000147957
0
2.3046e-05
0
0
0
0
1.38284e-05
0
-7.67525e-05
0
-3.28735e-05
-3.69758e-05
0
0
0
-4.3306e-06
-1.30489e-05
0
0
-2.73881e-05
0
-9.90518e-06
0
0
0
0
0
9.11754e-06
0
0
0
0
0
-9.27137e-06
0
1.02679e-05
0
0
0
-3.48198e-05
0
0
0
0
0
0
0
0
0.021988
0.0169482
0.0322979
-0.00714633
0.0169501
0.00785497
-0.00891771
0.0149672
0.012009
0.0129281
-0.00433337
-0.0152186
0.0168371
0.00582535
-0.0167755
-0.0152957
-0.00245409
-0.0125723
-0.0218662
0.000133144
0.0105255
-0.00837437
-0.00389271
0.0105395
0.00704932
0.00454264
0.00389583
0.0061175
-0.0170089
0.00694617
-0.0176655
0.0159579
0.0194226
-0.00119468
-0.0203688
-0.0203365
-0.0133992
0.0275693
0.0430047
-0.000874212
0
0
0
0
0
0
0
3.95853e-05
0
0
0
-0.0137663
-0.0409529
-0.016277
0.0179535
0
0
0
0
0
0
0
-0.013524
0
0
0
0
-1.34765e-06
0
2.64098e-06
0
1.29032e-06
0
0
0
0
0
0
-0.0226509
-0.0199205
0.00767968
0.0137522
-0.027652
-0.00307982
0.0312497
-0.0316379
-0.0427106
-0.0128496
-0.00218775
-0.00586049
0.0130755
7.05596e-06
-0.0593536
0.0161926
0.046234
-0.021665
-0.0159421
0.0497631
0.0228346
0.00501641
-0.0112006
0.0235681
1.11365e-06
0
0
4.12076e-06
6.86581e-05
-1.44654e-05
8.94476e-05
8.1414e-05
-2.08475e-05
2.263e-05
8.93269e-06
0.000103878
-2.11489e-05
0
3.01227e-05
0
0
0.000125739
-0.000121227
0
0
0
0.000117859
0.000295187
0.000148167
0.000553429
0.000149394
4.56447e-05
1.18391e-05
0.000181808
0
-3.61963e-05
0
-4.5737e-06
0
0
-8.29055e-05
0.000397617
0
0
0
0
0
0
0
0
0
0
0
0
0
0.000322716
0
0.000219288
0
0
0
0
0
0
0
0
0
0
0.000541578
0
0.0116776
-0.0243953
-0.011685
-0.0116323
-0.051902
0.0429756
-0.0266367
-0.0642523
-0.0674414
-0.0251226
0
-0.055723
0
0
0
0
-3.59649e-05
-2.09436e-05
1.81078e-05
-0.0148539
-0.070596
0
0
-2.13761e-05
0
0
0
0
0
0
0
0
0
0
0.000592537
0
0
0.0547468
0.0318956
0
0
-4.36729e-05
-4.4925e-05
-7.45661e-05
0
8.13827e-05
0
0
0
0
0
0
0
0
0
-0.000196401
0
6.31041e-05
-0.0343271
-0.0433157
0.0280682
-0.00644262
-0.0465684
0.0177076
-0.0145422
-0.0180536
0.0445772
0.00136919
-0.0149484
0.0154153
-0.0214211
-0.00963595
0.00504901
-0.0259486
0.0111683
-0.00431427
-0.0102204
0.0305832
0.0167011
-0.0105434
-0.0224818
0.0183597
0.00136059
-0.0170353
0.011165
0.00564652
-0.0147439
0.0015302
0.00738179
-0.0153335
0.00440148
-0.0229304
0.00874148
0.0107199
-0.0131829
0.0201171
0.0172423
-0.00332916
-0.01847
-0.0787427
-0.0756632
-0.00538547
-0.0724528
-0.087764
0.0171595
-0.0974115
-0.0839182
-0.00400351
-0.0800164
-0.0742383
0.00100307
-0.0385577
-0.038598
0.0202603
-0.0579343
-0.0592555
-0.0167332
-0.0327576
-0.0098416
-0.0122405
-0.0221255
-0.0129774
0.00648972
-0.011654
-0.0224238
0.031653
-0.0276528
-0.0408867
0.0283715
-0.0440924
-0.0459956
-0.0187574
-0.0348154
-0.0545526
-0.0170899
-0.0285231
-0.0596046
0.000837257
-0.0159797
-0.0159716
-0.0137801
-0.058423
-0.0222859
0.0012095
-0.066026
-0.0986706
-0.0348253
-0.0502853
-0.0775067
-0.00613051
-0.036261
-0.0536387
-0.0112347
-0.0826509
-0.0846436
0.027794
-0.0016682
-0.0156134
-0.00263856
-0.0201449
-0.0343869
0.0323299
-0.00253743
-0.0447024
0.0541622
0.0620467
-0.0202491
-0.00573089
-0.0216973
-0.0255279
0.0311929
-0.0070403
-0.00640304
0.0238831
0.0253947
0.00495296
0.00909347
-0.0105301
0.00734149
0.00777339
0.0057375
-2.4434e-05
0.0115221
0.0122962
-0.0213618
-0.00428148
0.014544
-0.0104499
0.00305649
-0.0174284
-0.00921286
0.00506733
-0.018102
0.0189007
-0.01033
-0.0178397
-0.0164479
0.00185581
0.027009
5.32513e-05
0
0
0
0
0
0
0
0
0
0
0
0
0
0
0
0
0
2.3095e-05
0
0
0
0
0
-4.0994e-06
0
-5.20384e-05
0
-2.80018e-05
0
0