/*--------------------------------*- C++ -*----------------------------------*\
  =========                 |
  \\      /  F ield         | OpenFOAM: The Open Source CFD Toolbox
   \\    /   O peration     | Website:  https://openfoam.org
    \\  /    A nd           | Version:  8
     \\/     M anipulation  |
\*---------------------------------------------------------------------------*/
FoamFile
{
    version     2.0;
    format      ascii;
    class       volScalarField;
    location    "21240";
    object      Hclip;
}
// * * * * * * * * * * * * * * * * * * * * * * * * * * * * * * * * * * * * * //

dimensions      [0 1 0 0 0 0 0];

internalField   nonuniform List<scalar> 
526318
(
1.79813
1.76512
1.83792
1.7365
1.80334
1.77891
1.77948
1.7016
1.761
1.63553
1.62846
1.73568
1.69453
1.7327
1.68403
1.71884
1.68906
1.8821
1.80191
1.83153
1.84065
1.78785
1.55616
1.79442
1.68535
1.54016
1.81142
1.811
1.81711
1.82753
1.8613
1.89489
1.8836
1.7638
1.78453
1.71412
1.74939
1.85873
1.76638
1.68706
1.77045
1.73178
1.40085
1.46009
1.36506
1.41041
1.38632
1.50803
1.70383
1.59015
1.67541
1.66456
1.63305
1.58077
1.08546
1.33028
1.32743
1.12529
1.85511
1.84575
1.86842
1.82835
1.7815
1.89255
1.90064
1.84867
1.86158
1.84181
1.74786
1.72298
1.85263
1.62675
1.68002
1.57554
1.54175
1.52994
1.63109
1.62805
1.52777
1.56837
1.64339
1.66073
1.61356
1.56086
1.59613
1.65858
1.66329
1.6431
1.58434
1.66661
1.55708
1.51319
1.51039
1.43721
1.43364
1.44213
1.44019
1.43717
1.43005
1.43698
0.875853
0.807971
0.897268
0.935458
0.997876
0.780316
1.34546
1.15599
1.46514
1.43374
1.47129
1.58238
1.82105
1.71445
1.81495
1.82869
1.90491
1.86862
1.90553
1.43053
1.4333
1.4328
1.43723
1.39115
1.42871
1.34326
1.38095
1.2949
1.34317
1.2888
1.2943
1.2845
1.2561
1.25155
1.27504
1.21931
1.275
1.2225
1.24185
1.18733
1.19433
1.21483
1.24525
1.23236
1.18702
1.18673
1.20304
1.19883
1.18431
1.19367
1.20852
1.20112
1.18875
1.19063
1.19615
1.17624
1.21073
1.2111
1.15273
1.12743
1.18997
1.14522
1.18712
1.70822
1.77879
1.73962
1.73341
1.5193
1.59984
1.52041
1.52203
1.52757
1.53273
1.54807
1.52502
1.46106
1.43283
1.39864
1.33912
1.39534
1.44153
1.43706
1.44235
1.32849
1.37499
1.26305
1.27088
1.28091
1.27429
1.27263
1.28252
1.26779
1.27426
1.27061
1.25561
1.23691
1.2622
1.25585
1.22714
1.19918
1.23133
1.20542
1.21833
1.22978
1.2191
1.22524
1.18804
1.19969
1.23125
1.23018
1.68244
1.66743
1.7299
1.69775
1.68372
1.68075
1.66941
1.57643
1.60735
1.34677
1.32549
1.32629
1.4444
1.57953
1.45489
1.5012
1.5027
1.44246
1.41657
0.928047
0.725356
1.06595
1.26889
0.520841
0.365664
0.658348
0.764684
0.729253
0.722971
1.91426
1.86246
1.921
1.92531
1.88702
1.89337
1.78629
1.87919
1.71155
1.6601
1.66138
1.6541
1.67178
1.6586
1.63839
1.64752
1.56324
1.63435
1.44203
1.50333
1.43024
1.44556
0.250678
0.174513
0.636001
0.405847
0.912665
0.849398
0.907968
1.06238
1.44277
1.25306
1.49438
1.49538
1.60268
1.69491
1.81614
1.82585
1.86315
1.84807
1.90374
1.93896
1.40886
1.41396
1.36943
1.34472
1.24203
1.2752
1.20387
1.21141
1.20349
1.19642
1.18654
1.19264
1.1186
1.13693
1.17455
1.21555
1.26748
1.23462
1.19764
1.19439
1.12777
1.1205
1.17372
1.22248
1.1501
1.1875
1.18404
1.16265
1.1479
1.11607
1.12169
1.07881
1.07627
1.08439
1.07011
1.19393
1.23211
1.19385
1.23347
1.59717
1.55822
1.44862
1.53668
1.46488
1.51895
1.52888
1.52006
1.52404
1.52424
1.43672
1.35148
1.27984
1.2621
1.34052
1.27927
1.26938
1.3755
1.26517
1.32093
1.24914
1.25882
1.26583
1.25384
1.26686
1.26378
1.26836
1.26529
1.26573
1.27088
1.27501
1.27328
1.28035
1.28072
1.28138
1.25881
1.27624
1.25549
1.23552
1.2308
1.25509
1.28726
1.28172
1.2567
1.23854
1.26743
1.30438
1.30658
1.31572
1.27839
1.31073
1.3266
1.36736
1.31598
1.32583
1.3479
1.38231
1.49972
1.59874
1.50293
1.53823
1.63294
1.6727
1.59367
1.45611
1.55595
1.44681
1.48157
1.21548
1.16155
1.19108
1.17834
1.29973
1.41929
1.34635
1.41598
1.41503
1.43986
1.42379
0.691835
0.835402
0.988895
0.828921
1.07371
0.957653
0.089794
0.247691
0.184933
0.112281
0.0159243
0.25567
0.48044
0.718388
0.604299
0.63118
1.933
1.90257
1.93044
1.93949
1.90898
1.87111
1.81814
1.73401
1.64246
1.6715
1.64802
1.65277
1.62019
1.63226
1.61289
1.60791
1.5563
1.60237
1.5283
1.46325
1.41194
1.37344
0.001
0.00107133
0.00107133
0.001
0.001
0.001
0.001
0.00107133
0.00107135
0.00107133
0.0868905
0.001
0.001
0.001
0.047168
0.001
0.146579
0.251143
0.251185
0.421795
0.880381
0.660959
0.971103
0.953986
1.14736
0.988745
1.35425
1.51359
1.52883
1.61942
1.84306
1.73928
1.851
1.84605
1.86152
1.90113
1.931
1.94636
1.33014
1.33012
1.28511
1.30821
1.24729
1.2146
1.20382
1.20305
1.19586
1.20387
1.154
1.14973
1.09927
1.10896
1.16691
1.13428
1.11241
1.15781
1.15173
1.17314
1.07859
1.06862
1.09061
1.10468
1.10404
1.05987
1.06852
1.06141
1.06786
1.05058
1.04888
1.35187
1.32219
1.32371
1.32571
1.34427
1.45155
1.40992
1.39111
1.26994
1.31674
1.29865
1.30572
1.20704
1.13973
1.31707
1.43737
1.32125
1.3264
1.29639
1.39096
1.36297
1.43509
1.47519
1.39851
1.3822
1.41785
1.29244
1.26231
1.26275
1.26294
1.1805
1.23173
1.15159
1.10664
1.09441
1.21399
1.20273
1.26081
1.25802
1.24838
1.25681
1.25805
1.26043
1.26154
1.2676
1.26817
1.2787
1.27772
1.28361
1.28046
1.30499
1.29346
1.3156
1.32275
1.27004
1.25258
1.32037
1.2991
1.28669
1.30767
1.28877
1.27704
1.32969
1.30502
1.40822
1.41578
1.3673
1.41002
1.41945
1.38545
1.4769
1.44916
1.51693
1.5378
1.56192
1.47243
1.48453
1.48764
1.44437
1.38733
1.38345
1.46587
1.32609
1.3093
1.3585
1.38189
1.05901
1.10941
1.19218
1.31017
1.34627
1.37954
1.28327
1.24694
1.20853
1.15458
0.515647
0.600618
0.878552
0.67675
0.990253
1.06037
0.0286534
0.001
0.0166372
0.0146033
0.152857
0.001
0.540135
0.306488
0.463695
0.464968
0.001
0.001
0.001
0.001
0.001
0.00101
0.001
0.001
0.001
0.001
0.00112508
0.001
0.00109878
0.001
0.00112494
0.00112494
0.001
0.001
0.001
0.001
0.001
0.001
0.001
0.001
0.00100959
0.001
0.00100965
0.001
0.001
0.001
1.91654
1.92352
1.94032
1.93252
1.9086
1.82831
1.66562
1.74566
1.6291
1.64223
1.61273
1.60257
1.59833
1.60573
1.59151
1.59532
1.54169
1.51452
1.4123
1.45434
1.31083
1.34921
0.001
0.001
0.001
0.001
0.001
0.001
0.001
0.001
0.00101
0.001
0.001
0.001
0.001
0.001
0.001
0.001
0.001
0.00100737
0.001
0.001
0.001
0.001
0.001
0.001
0.0285075
0.181504
0.342687
0.316362
0.383742
0.565035
1.01968
0.813533
1.02797
1.03657
1.33145
1.15794
1.5355
1.49544
1.56216
1.66924
1.77973
1.8606
1.87222
1.8516
1.88841
1.93151
1.90999
1.92864
0.00112542
0.001
0.001
0.001
0.001
0.001
0.001
0.001
0.001
0.001
0.001
0.001
0.001
0.001
0.001
0.00101
0.001
1.30863
1.31101
1.30843
1.27591
1.19778
1.22978
1.15708
1.14694
1.11164
1.10549
1.06076
1.0608
1.08863
1.08745
1.04871
1.08192
1.07674
1.12736
1.11204
1.10826
1.02977
0.999946
1.00005
1.04409
1.05115
1.05193
1.02818
1.03133
0.992004
0.982558
0.946229
0.950137
1.54753
1.51671
1.55478
1.56726
1.51441
1.47198
1.64135
1.65929
1.7233
1.73741
1.28032
1.32248
1.37391
1.45644
1.28284
1.22395
1.2617
1.25952
1.09835
1.15694
1.1936
1.08795
1.30925
1.31075
1.3041
1.30345
1.33118
1.3064
1.31894
1.33507
1.21425
1.20701
1.10772
1.19222
1.18513
1.145
1.09648
1.11487
1.05459
1.07087
1.06114
1.14846
1.20986
1.12953
1.20217
1.25755
1.25626
1.2529
1.26283
1.25898
1.27718
1.2782
1.29429
1.28398
1.30582
1.30335
1.32611
1.32082
1.32551
1.32088
1.33227
1.32641
1.36417
1.33909
1.30412
1.30781
1.37158
1.33875
1.34541
1.38784
1.42735
1.4278
1.42736
1.42775
1.45984
1.51132
1.57376
1.59336
1.60252
1.58156
1.72501
1.65947
1.78721
1.82731
1.8221
1.85834
1.91705
1.78126
1.8649
1.89072
1.96267
2.01219
2.04004
2.05846
2.08731
2.03439
2.08931
2.04658
2.12487
2.12485
2.1747
2.14263
2.20479
2.23425
2.22405
2.17207
2.23951
2.26129
2.22914
2.22396
2.2918
2.26735
2.2983
2.23868
2.2381
2.30431
2.27038
2.22318
2.22331
2.25566
2.28839
1.28356
1.24539
1.41037
1.42158
1.38341
1.37958
1.39515
1.14345
1.2779
0.978306
1.00664
1.10921
1.09523
0.96769
1.04981
1.03769
1.2091
1.11298
1.11592
1.01946
1.02033
1.03103
1.04767
0.584049
0.446862
0.853598
0.636628
0.846027
0.796935
0.001
0.001
0.001
0.001
0.001
0.001
0.177557
0.413987
0.316032
0.354245
0.001
0.001
0.001
0.001
0.00139514
0.001
0.001
0.001
0.001
0.001
0.001
0.001
0.001
0.001
0.00100829
0.001
0.001
0.001
0.0010095
0.001
0.001
0.00101946
0.001
0.00101493
0.001
0.001
0.00101
0.001
0.00110321
0.001
0.00110243
0.00109218
0.001
0.00108832
0.00108751
0.00109289
0.001
0.001
0.001
0.001
0.001
0.001
0.001
0.001
0.0010078
0.001
0.001
0.001
0.001
0.001
0.001
0.001
0.001
0.00101
0.001
0.001
1.90099
1.91219
1.86002
1.86819
1.77377
1.8562
1.66685
1.60937
1.60046
1.59253
1.60557
1.60182
1.53625
1.54917
1.39389
1.34925
1.31009
1.48449
1.48335
1.43207
1.43152
1.43238
0.001
0.001
0.00112403
0.00112401
0.001
0.001
0.001
0.001
0.00112402
0.001
0.001
0.00100893
0.001
0.001
0.001
0.001
0.001
0.001
0.001
0.019675
0.409294
0.23225
0.438983
0.438115
0.682451
0.478031
0.874648
1.03561
1.16273
1.03032
1.32826
1.49677
1.53028
1.56134
1.63052
1.74432
1.82373
1.78759
1.84093
1.77725
1.81293
1.86467
1.80962
1.82466
0.00101
0.001
0.00100993
0.001
0.001
0.00119075
0.001
0.001
0.00119074
0.001
0.001
0.001
0.001
0.001
0.00101
0.001
0.001
0.001
0.00101
0.001
0.001
0.001
0.001
0.001
0.00220982
0.00101197
1.28385
1.28339
1.20549
1.22012
1.10175
1.1196
1.05739
1.05978
1.0556
1.05754
1.02886
1.03189
1.00553
1.00444
0.981125
1.02254
1.10244
1.06045
1.09917
1.10349
0.92035
0.941074
0.983169
0.961088
0.969533
0.974859
0.919908
0.916466
0.901949
0.912287
0.919503
0.919617
1.76896
1.77224
1.59596
1.51393
1.49755
1.48851
1.76441
1.68125
1.92919
2.00331
1.89862
1.82495
2.01681
1.99965
2.06453
2.1127
2.14241
2.14145
2.16964
2.14201
2.19685
2.22274
2.21908
2.21862
2.23809
2.22361
2.22335
2.26989
2.21253
2.20847
1.32962
1.26036
1.40332
1.47239
1.26338
1.20686
1.26006
1.26052
1.08874
1.14659
0.981279
1.14044
1.03161
1.30716
1.24212
1.30549
1.29912
1.30723
1.20083
1.10242
1.02321
1.00924
1.02407
1.06089
0.989227
0.975263
0.901686
0.991621
1.06586
1.06656
0.981453
1.08896
1.15603
1.09423
1.20669
1.14612
1.1948
1.24731
1.28342
1.26142
1.29816
1.29352
1.30613
1.2996
1.33058
1.34057
1.3395
1.35289
1.35834
1.35911
1.3941
1.40346
1.39499
1.38764
1.39442
1.38646
1.40426
1.41998
1.46583
1.46061
1.42688
1.45864
1.45372
1.48591
1.52171
1.58157
1.6135
1.6147
1.62571
1.69483
1.77696
1.85139
1.86325
1.99037
1.86487
1.91373
2.06272
2.08856
2.087
2.1255
2.1743
2.22357
2.23609
2.23752
2.26821
2.2936
2.32225
2.31955
2.31969
2.32171
2.32077
2.30207
2.23786
2.30209
2.27055
2.22455
2.22394
2.25673
2.28789
2.29807
2.22598
2.28671
2.24479
1.06942
1.06613
1.1346
1.20832
1.10404
1.16903
1.29388
1.23128
1.26334
1.10111
0.999963
0.971592
0.963737
1.07406
1.06142
0.726458
0.832923
1.01776
0.912257
1.01954
1.01662
1.0264
1.01749
1.03421
1.05239
0.246705
0.409143
0.492998
0.677646
0.694963
0.695722
0.001
0.001
0.001
0.00101
0.001
0.001
0.0369623
0.001
0.159154
0.001
0.001
0.00139471
0.001
0.00101
0.001
0.001
0.001
0.001
0.001
0.001
0.00105172
0.001
0.001
0.001
0.001
0.001
0.001
0.001
0.001
0.001
0.001
0.001
0.001
0.001
0.001
0.00100349
0.001
0.001
0.001
0.001
0.001
0.001
0.001
0.00101
0.001
0.00100962
0.001
0.001
0.001
0.001
0.001
0.001
0.001
0.001
1.81699
1.81808
1.77832
1.80355
1.72499
1.79864
1.6013
1.67049
1.5611
1.56329
1.50543
1.48737
1.43044
1.4323
1.34837
1.24249
1.22111
1.38752
1.43322
1.43615
1.43672
1.42925
0.00112408
0.001
0.00112408
0.001
0.001
0.001
0.001
0.001
0.00100548
0.001
0.001
0.001
0.001
0.001
0.001
0.00100999
0.001
0.001
0.001
0.112601
0.300097
0.437958
0.500595
0.453493
0.665039
0.843386
0.996323
1.03273
1.2269
1.05981
1.36567
1.4992
1.47586
1.585
1.75565
1.65564
1.72246
1.72319
1.72641
1.75516
1.79703
1.8156
1.80614
1.76849
0.001
0.001
0.001
0.001
0.001
0.001
0.001
0.001
0.001
0.001
0.001
0.001
0.001
0.001
0.001
0.001
0.001
0.001
0.001
0.00100999
0.001
0.001
0.00207311
0.001
0.00101
0.001
0.001
0.001
0.001
0.001
0.001
1.15965
1.15864
1.12246
1.10487
1.06177
1.07863
1.04443
1.04574
1.20283
1.143
1.12383
0.971716
0.982256
0.913155
0.913104
0.983521
0.982257
0.973603
1.01632
1.07655
1.02702
1.06514
1.0474
0.940888
0.919964
0.934825
0.955508
0.879355
0.880453
0.881707
0.892341
0.910443
0.89755
0.861759
0.870909
2.34434
2.35154
2.37983
2.3595
2.39892
2.38648
2.40772
2.40423
2.46097
2.4479
2.41
2.46451
2.43301
2.48297
2.31357
2.2662
2.28416
2.33364
2.31578
2.28615
2.28559
2.33941
2.34574
2.32021
2.3025
2.3516
2.3369
2.34082
2.36732
2.22417
2.2233
2.22304
2.22393
2.24337
2.26193
1.8144
1.76279
1.65401
1.56327
1.47642
1.54751
1.74808
1.73529
1.97609
1.9989
1.88532
1.96464
2.00588
2.05413
2.10151
2.14232
2.13982
2.14047
2.13733
2.16699
2.18035
2.20567
2.19333
2.1953
2.20087
2.20944
2.18755
2.18608
1.38067
1.31182
1.25529
1.24504
1.30198
1.47323
1.45459
1.18306
1.24116
1.11412
1.04695
2.33036
2.35085
2.36682
2.37373
2.37828
2.38816
2.39315
2.41899
2.40451
2.42246
2.42358
2.47082
2.49512
2.51836
2.51869
2.52027
2.53635
2.55859
1.0238
0.966437
0.969541
1.22805
1.11887
1.29193
1.19085
1.11118
1.01015
1.00994
1.01068
1.00838
0.864702
0.938491
0.794386
0.811597
0.894806
0.81427
1.07293
1.01056
0.902052
1.10284
1.09517
1.10424
1.15549
1.10961
1.23836
1.18384
1.27113
1.23849
1.2713
1.29769
1.32121
1.3439
1.36627
1.36455
1.3765
1.36405
1.42586
1.41095
1.40635
1.40385
1.45504
1.43201
1.50182
1.46319
1.44365
1.48641
1.52907
1.52196
1.54368
1.57936
1.58041
1.52529
1.63431
1.66621
1.63743
1.62417
1.70954
1.79135
1.86456
1.93046
1.8788
1.89404
2.0217
2.08147
2.12349
2.1057
2.17037
2.20259
2.24392
2.26019
2.2559
2.27277
2.32963
2.3133
2.32159
2.33318
2.32361
2.3197
2.32022
2.32087
2.32059
2.31999
2.31986
1.05975
1.04334
1.06738
0.990377
1.01461
1.03032
0.968572
1.1099
1.01198
0.946695
0.962324
0.941293
0.846078
0.949124
0.967171
0.754057
0.739361
0.69842
0.803852
1.01864
0.911353
0.915378
0.914035
0.705104
0.592326
0.4007
0.41059
0.334562
0.151613
0.152244
0.693076
0.515707
0.676061
0.681157
0.001
0.001
0.001
0.001
0.001
0.001
0.00100984
0.001
0.159214
0.001
0.001
0.001
0.00101
0.001
0.001
0.001
0.001
0.0024101
0.001
0.001
0.001
0.001
0.001
0.001
0.00100993
0.001
0.001
0.001
0.001
0.001
0.00101136
0.001
0.001
0.001
0.001
0.001
0.001
0.001
0.001
0.001
0.001
0.001
0.001
0.001
0.00101
0.001
0.001
0.001
0.001
0.001
0.001
0.001
0.001
0.001
0.001
0.00219187
0.001
0.001
0.001
0.001
0.00219184
2.51035
2.48248
2.46206
2.55086
2.59452
2.58467
1.78691
1.78294
1.77945
1.78707
1.70995
1.76493
1.59417
1.51457
1.44873
1.46201
1.43601
1.43865
1.42651
1.42837
1.30988
1.22574
1.31541
1.39754
1.3988
0.001
0.001
0.001
0.001
0.001
0.001
0.001
0.001
0.001
0.001
0.00100943
0.001
0.001
0.992944
1.03122
1.05762
0.001
0.001
0.001
0.00486412
0.295552
0.161141
0.458306
0.491358
0.64872
0.517671
0.830022
1.20489
1.34046
1.45424
1.45869
1.75971
1.68776
1.71124
1.48948
1.58821
1.67869
1.73077
1.72481
1.71718
1.74438
1.77859
1.78167
0.001
0.00118091
0.001
0.001
0.001
0.001
0.00100904
0.001
0.001
0.001
0.001
0.001
0.001
0.001
0.001
0.001
0.001
0.00100504
0.001
0.001
0.001
0.001
0.001
0.001
0.001
0.001
0.001
0.001
0.001
0.001
0.00101
0.00100979
0.001
0.001
0.001
0.001
0.001
1.15842
1.19316
1.18091
1.1263
1.12272
1.09919
1.11499
0.98674
1.01067
0.921735
0.922885
1.12867
1.11824
0.875372
0.8735
0.876304
0.879064
0.934344
0.913734
0.952328
0.897317
1.02182
0.972379
1.02244
1.03263
0.862192
0.817676
0.841225
0.87262
0.847279
0.847104
0.788384
0.827742
0.811272
0.787655
0.770125
0.76574
2.34346
2.35576
2.37759
2.40643
2.41618
2.41355
2.43729
2.42288
2.27676
2.27745
2.26129
2.27931
2.31178
2.27655
2.32226
2.29599
2.20919
2.1997
2.19944
2.22715
2.25646
2.23354
1.81881
1.74539
1.63931
1.72462
1.57389
1.4883
1.74088
1.73747
1.98233
1.98331
2.00009
1.89665
1.97072
2.08652
2.03314
1.97629
2.01703
2.11914
2.13094
2.12274
2.12791
2.13613
2.15871
2.18483
2.17555
2.18397
2.18507
2.18383
2.18609
2.18521
2.18374
1.22813
1.23205
1.3699
1.45023
1.23028
1.31092
1.46776
1.48205
1.22134
1.16323
1.07438
1.14149
2.36058
2.31987
2.33872
2.384
2.3825
2.38401
2.39385
2.4156
2.43845
2.44911
2.44876
2.45462
2.47775
2.51956
2.50005
2.51696
2.53785
2.5844
2.55964
2.38979
2.40096
2.41673
2.5842
2.58781
2.57877
0.967323
0.968091
0.968873
0.943584
1.03869
1.05569
0.855796
0.897892
0.932073
0.814419
0.853709
0.86078
0.789756
0.788698
0.789501
0.793629
0.82331
0.853863
0.951822
0.885902
0.883217
1.03036
1.10611
1.01419
1.17442
1.20316
1.13067
1.17595
1.23839
1.20233
1.32919
1.27078
1.3408
1.35648
1.36621
1.35165
1.40137
1.4461
1.47822
1.48167
1.48691
1.47212
1.49972
1.48072
1.52964
1.53353
1.5569
1.55575
1.53198
1.5356
1.6549
1.70081
1.5995
1.66338
1.71277
1.67339
1.77547
1.81926
1.91906
1.95594
1.93329
2.02294
2.07803
2.17672
2.16271
2.22284
2.19595
2.2922
2.29882
2.29184
2.32206
2.35089
2.34763
2.40453
2.36742
2.39614
2.3572
2.35639
2.39388
2.32389
2.36126
2.32387
0.416997
0.734965
0.433843
0.706834
0.982652
0.965261
0.966893
0.945869
0.966012
0.818779
0.716234
0.712111
0.609518
0.813012
0.689524
0.710948
0.838458
0.0931284
0.0955669
0.477187
0.602245
0.597529
0.39052
0.277009
0.278286
0.0656984
0.0714927
0.0895279
0.150901
0.155321
0.0569768
0.236026
0.143676
0.392912
0.195103
0.114683
0.0010004
0.001
0.001
0.001
0.001
0.001
0.00224515
0.001
0.001
0.0340098
0.001
0.001
0.00101
0.001
0.001
0.00220385
0.001
0.001
0.001
0.00100982
0.00138169
0.001
0.00100983
0.001
0.001
0.001
0.00101
0.001
0.00101104
0.00101169
0.001
0.001
0.00101292
0.00101119
0.001
0.001
0.001
0.001
0.00170474
0.001
0.00170466
0.001
0.001
0.001
0.001
0.00100984
0.00101
0.00100994
0.001
0.001
0.001
0.001
0.001
0.001
0.001
0.001
0.001
0.001
0.00138164
0.001
0.00100958
0.00100997
0.001
0.001
0.001
0.001
0.00101
2.45009
2.50061
2.49632
2.47727
2.50646
2.61393
2.61149
2.614
2.63761
2.58181
1.70294
1.69422
1.61527
1.63185
1.58288
1.61352
1.52927
1.48791
1.4568
1.42329
1.41025
1.41462
1.31538
1.32534
1.19559
1.23701
1.23757
0.001
0.001
0.001
0.00101
0.001
0.001
0.001
1.02726
1.16775
1.03417
0.001
0.001
0.001
0.001
0.897639
0.728647
0.0685312
0.0110118
0.0899442
0.207312
0.498878
0.347354
0.528415
0.53242
0.562914
1.57677
1.55129
1.60893
1.31781
1.45293
1.45786
1.48759
1.6125
1.68929
1.63061
1.55292
1.62956
1.66815
1.65792
1.59101
1.59406
0.001
0.001
0.00118094
0.00101
0.001
0.001
0.00101
0.00115981
0.001
0.001
0.001
0.001
0.001
0.001
0.001
0.001
0.001
0.001
0.001
0.00101
0.001
0.001
0.001
0.001
0.001
0.00100577
0.001
0.001
0.001
0.001
0.001
0.00101
0.00100563
0.001
0.001
0.001
0.001
0.001
0.001
0.001
0.001
0.001
0.001
0.001
0.001
1.17466
1.187
1.19462
1.063
1.08487
1.04817
1.04397
0.972232
0.96509
0.876117
0.887691
0.873455
0.876004
0.97779
0.972954
0.821406
0.82161
0.78661
0.765645
0.862883
0.857239
0.880638
0.936686
1.01512
0.980964
1.0478
1.00007
0.803534
0.773431
0.834212
0.857365
0.72936
0.730386
0.704333
0.724479
0.768635
0.746373
0.766643
0.775932
2.34332
2.30169
2.36824
2.34379
2.34404
2.39537
2.40741
2.44469
2.45787
2.46125
2.44219
2.3821
2.45363
2.40496
2.24442
2.24156
2.23397
2.24611
2.26003
2.26949
2.27001
2.27151
2.18384
2.18697
2.20701
2.19547
2.22552
2.23072
1.82123
1.74725
1.66433
1.73922
1.53566
1.62821
1.74138
1.7464
1.97408
1.97196
1.97347
1.90375
2.06392
2.10934
2.0201
1.97473
2.11577
2.11687
2.12968
2.11601
2.15229
2.17478
2.18241
2.18262
2.18156
2.17975
2.18577
2.18383
2.1812
2.17932
1.22499
1.21988
1.38638
1.46347
1.36605
1.2838
1.52071
1.46277
1.19598
1.21995
1.19046
1.1079
2.36013
2.39652
2.3792
2.40353
2.42344
2.41207
2.44676
2.45908
2.43541
2.44923
2.43919
2.44894
2.45548
2.47837
2.50058
2.52009
2.51792
2.56945
2.5473
2.59956
2.60345
2.47244
2.48497
2.59984
2.61475
0.704652
0.864044
0.735148
0.84056
0.767557
0.742528
0.702507
0.664444
0.689963
0.72991
0.624814
0.672289
0.675916
0.567609
0.629191
0.769474
0.884231
0.803199
0.891618
0.888963
0.882143
0.954458
1.10133
1.00186
1.19221
1.19145
1.15756
1.10516
1.22734
1.27208
1.32988
1.31691
1.34028
1.32818
1.44985
1.39427
1.49673
1.49211
1.51576
1.52335
1.49403
1.55111
1.59644
1.57041
1.55331
1.57945
1.62926
1.61727
1.5966
1.64222
1.72683
1.72654
1.72037
1.74116
1.87095
1.78638
1.95495
1.98171
1.9794
2.04663
2.12222
2.1974
2.20669
2.21773
2.26606
2.31397
2.35118
2.35041
2.38825
2.36424
2.41623
2.42923
2.43055
2.42896
2.43009
2.42858
2.39681
2.43009
2.39715
0.0812772
0.0732676
0.0979971
0.0631832
0.37266
0.677182
0.369742
0.837173
0.711147
0.717164
0.557217
0.585061
0.576876
0.580966
0.580736
0.583393
0.579916
0.578144
0.581733
0.0976809
0.082022
0.001
0.0249428
0.0577423
0.016144
0.064476
0.0606912
0.0329999
0.0378542
0.001
0.001
0.001
0.001
0.001
0.001
0.00207192
0.001
0.001
0.00100986
0.001
0.001
0.001
0.0019005
0.001
0.001
0.001
0.001
0.001
0.001
0.001
0.001
0.001
0.00100941
0.001
0.001
0.001
0.00100992
0.001
0.001
0.001
0.00101
0.001
0.001
0.001
0.001
0.001
0.001
0.0010008
0.001
0.001
0.001
0.00100949
0.001
0.001
0.001
0.001
0.001
0.001
0.001
0.001
0.001
0.001
0.00101
0.001
0.001
0.001
0.001
0.001
0.001
0.001
0.001
0.001
0.001
0.001
0.001
0.001
0.001
0.001
0.001
0.001
0.001
0.001
0.001
0.001
0.001
0.001
0.001
0.001
0.001
0.001
0.001
0.001
0.00106271
0.001
0.001
0.001
0.001
2.64749
2.64252
2.6502
2.63178
2.68436
2.66946
2.49947
2.50975
2.58871
2.54095
2.60935
2.66952
2.60993
2.50796
2.42776
1.55777
1.56194
1.5809
1.55035
1.56723
1.50275
1.54779
1.32505
1.37786
1.24741
1.25073
1.19647
1.19489
1.19677
0.001
0.001
0.001
0.001
0.999914
1.19078
1.03512
0.001
0.001
0.985682
0.875078
0.001
0.0393373
0.001
0.001
0.574585
0.714926
0.100705
0.0973453
0.24205
0.102232
0.537156
0.394047
0.539998
1.56693
1.56645
1.56414
1.57422
1.57242
1.28723
1.39089
1.34454
1.46341
1.52188
1.54336
1.48189
1.56184
1.51
1.50877
1.5002
0.001
0.001
0.00100368
0.001
0.001
0.001
0.00101345
0.001
0.001
0.001
0.001
0.0144304
0.001
0.001
0.001
0.0973558
0.10078
0.0362597
0.001
0.001
0.0423949
0.001
0.001
0.001
0.001
0.00100955
0.001
0.001
0.001
0.001
0.001
0.001
0.001
0.001
0.001
0.001
0.00106794
0.001
0.00106774
0.001
0.001
0.001
0.001
0.001
0.001
0.001
0.001
0.001
0.001
0.001
0.0944389
0.001
0.001
0.001
0.001
0.001
0.001
1.17119
1.1009
1.0924
1.02135
1.01102
0.930974
0.916161
0.907642
0.908868
0.89722
0.9093
0.835376
0.848156
0.769189
0.754549
0.907052
0.913985
0.695782
0.690128
0.694901
0.702313
0.974898
1.04161
0.96038
0.85502
0.838339
0.912375
0.844623
0.930212
0.771992
0.740908
0.798251
0.75694
0.703568
0.704937
0.696621
0.717655
0.716869
0.689856
0.682991
0.663774
2.34226
2.29663
2.32948
2.32057
2.32753
2.35052
2.28999
2.36661
2.39057
2.43389
2.48882
2.43926
2.37294
2.23184
2.23309
2.2585
2.2474
2.27358
2.27187
2.29083
2.27961
2.18672
2.19115
2.21457
2.20104
2.21603
2.222
1.86188
1.78475
1.70539
1.74202
1.68965
1.59463
1.77862
1.74265
1.97898
1.97635
1.93772
1.98132
2.07095
2.11765
1.98116
2.02592
2.1205
2.11806
2.14087
2.12096
2.16112
2.17969
2.17841
2.17707
2.17753
2.17595
2.18052
2.17995
2.17693
2.17558
1.21645
1.27816
1.46482
1.4404
1.36287
1.44717
1.46472
1.54238
1.21116
1.20587
1.20003
1.11865
0.954132
0.999258
1.08116
2.42951
2.43267
2.45935
2.45239
2.47634
2.48759
2.48782
2.48826
2.52425
2.50451
2.51645
2.48209
2.51431
2.52511
2.55019
2.56668
2.58069
2.5787
2.62964
2.63134
2.65364
2.62819
2.54481
2.54919
2.67083
2.6646
0.48454
0.549615
0.431179
0.663377
0.58269
0.666276
0.665209
0.655238
0.584873
0.51178
0.451243
0.455864
0.483241
0.538362
0.706655
0.612597
0.590318
0.789257
0.940893
0.900085
0.753709
0.993001
1.0342
1.05395
1.03577
1.13974
1.20904
1.08767
1.31207
1.24991
1.3206
1.32363
1.41554
1.35369
1.47329
1.50998
1.50546
1.50755
1.63547
1.59809
1.5663
1.62181
1.64722
1.64075
1.63426
1.62302
1.63923
1.64085
1.72022
1.76572
1.80377
1.75858
1.80425
1.82824
1.96956
1.90099
1.99314
1.98108
2.06073
2.13519
2.22325
2.21656
2.25464
2.29019
2.36701
2.35693
2.37906
2.38543
2.41378
2.42195
2.44135
2.43295
2.4449
2.43928
2.42857
2.44295
2.42765
2.43102
0.0189158
0.00145324
0.0497634
0.0248115
0.0248907
0.0521761
0.0265185
0.212238
0.0281659
0.586803
0.584868
0.11089
0.324043
0.577738
0.583436
0.583202
0.578651
0.578199
0.581538
0.517206
0.409515
0.001
0.001
0.001
0.001
0.001
0.0240024
0.001
0.001
0.001
0.001
0.00101
0.001
0.001
0.00100863
0.00187927
0.001
0.001
0.001
0.00373214
0.001
0.001
0.001
0.00100974
0.001
0.001
0.001
0.00100983
0.001
0.001
0.00100647
0.001
0.00100976
0.001
0.001
0.001
0.001
0.001
0.00350622
0.001
0.001
0.001
0.001
0.001
0.00132528
0.00132521
0.00132523
0.001
0.001
0.001
0.001
0.001
0.001
0.001
0.001
0.001
0.001
0.001
0.001
0.001
0.001
0.001
0.001
0.001
0.001
0.001
0.001
0.001
0.001
0.001
0.001
0.001
0.001
0.001
0.001
0.001
0.001
0.001
0.001
0.001
0.001
0.001
0.001
0.001
0.001
0.001
0.00101
0.001
0.00167015
0.001
0.00104569
0.001
0.00102405
0.001
0.001
0.001
2.67889
2.70141
2.70463
2.66337
2.67394
2.66032
2.65497
2.56912
2.55452
2.5823
2.608
2.59787
2.61938
2.66227
2.52605
2.55199
2.46294
2.48466
2.47802
1.55163
1.5644
1.46505
1.42822
1.52706
1.45119
1.46005
1.33184
1.36271
1.22179
1.19598
1.19503
1.19687
1.17506
0.001
0.001
1.11831
1.21895
0.996797
0.001
0.001
0.955377
0.956354
0.001
0.001
0.695232
0.828964
0.0635133
0.139017
0.0752368
0.0382242
0.554349
0.55644
0.14465
0.184493
0.233344
0.327122
0.482578
1.52304
1.56852
1.53724
1.51958
1.28108
1.29085
1.31182
1.37354
1.49576
1.49788
1.44999
1.49653
1.49417
0.0196009
0.0188234
0.0195243
0.0361103
0.054599
0.0733445
0.0835899
0.0820775
0.0874353
0.108847
0.121568
0.14953
0.155566
0.172193
0.208455
0.242924
0.20436
0.285795
0.245177
0.203539
0.233424
0.236752
0.240924
0.001
0.001
0.00106813
0.001
0.001
0.00101
0.001
0.001
0.001
0.001
0.001
0.001
0.001
0.001
0.001
0.001
0.001
0.001
0.0801155
0.108583
0.180759
0.20282
0.271344
0.152083
0.001
0.001
0.36528
0.249163
0.285149
0.316419
0.001
0.001
0.001
0.001
0.001
0.001
0.001
0.001
0.001
0.001
1.08854
1.00948
1.00475
0.94467
0.948199
0.922524
0.936912
0.908403
0.946908
0.87744
0.877256
0.786327
0.80277
0.709236
0.709528
0.680961
0.678617
0.830561
0.803982
0.685521
0.678462
0.68082
0.670541
0.898888
0.944797
0.785497
0.758398
0.827524
0.94149
1.0032
0.960591
0.693652
0.649804
0.716865
0.739309
0.635572
0.616876
0.614015
0.577444
0.615441
0.589575
0.613803
0.629542
2.25299
2.30209
2.32092
2.32771
2.38048
2.35293
2.38636
2.3356
2.3625
2.42897
2.38675
2.45908
2.41973
2.49363
2.21414
2.2353
2.23195
2.2522
2.2354
2.25723
2.31704
2.25399
2.1808
2.18791
2.19714
2.20497
2.20491
2.20405
1.91595
1.83577
1.72413
1.74225
1.64535
1.73735
1.74872
1.80499
1.9837
1.98385
1.98354
1.96014
2.07629
2.12164
2.04123
1.99546
2.12304
2.12307
2.12933
2.14864
2.17898
2.16629
2.17728
2.17707
2.17656
2.17578
2.17603
2.17706
2.17547
2.17626
1.29902
1.20472
1.47264
1.47433
1.38622
1.47982
1.47703
1.5778
1.19947
1.20091
1.1807
1.16215
1.1027
1.20048
2.44399
2.46117
2.48226
2.51683
2.5126
2.53255
2.54729
2.55462
2.56292
2.54947
2.55922
2.57958
2.59881
2.613
2.61307
2.62159
2.64438
2.66191
2.67412
2.67158
2.68583
2.56131
2.55074
2.70555
2.71955
0.295076
0.342164
0.335135
0.403745
0.532895
0.609963
0.511038
0.528857
0.438899
0.450965
0.456733
0.477875
0.577177
0.528758
0.596934
0.597686
0.603422
0.662137
0.728372
0.903388
0.828876
0.990121
1.07576
1.0682
0.981075
1.13794
1.14316
1.2305
1.29076
1.26169
1.33835
1.28045
1.47567
1.39668
1.50623
1.51014
1.52162
1.5863
1.71247
1.72025
1.65913
1.6885
1.72029
1.66624
1.77559
1.6999
1.6786
1.71507
1.84627
1.86059
1.92108
1.97843
1.85807
1.95266
2.09253
2.04543
2.11262
2.08091
2.27427
2.24059
2.30615
2.32309
2.3941
2.40481
2.46597
2.43312
2.48007
2.4631
2.48193
2.51617
2.48669
2.51887
2.52678
2.48267
2.471
2.51677
2.51505
2.48312
0.001
0.001
0.001
0.001
0.001
0.001
0.001
0.001
0.001
0.001
0.001
0.051131
0.318667
0.001
0.001
0.406352
0.149185
0.578858
0.410527
0.502939
0.583537
0.425449
0.309616
0.001
0.001
0.001
0.001
0.001
0.001
0.001
0.00141376
0.00100995
0.001
0.001
0.001
0.001
0.001
0.00100156
0.001
0.001
0.001
0.001
0.001
0.001
0.001
0.001
0.0010095
0.00101
0.00100891
0.001
0.001
0.001
0.001
0.00128685
0.001
0.001
0.00128679
0.001
0.001
0.001
0.00100996
0.0016701
0.001
0.00124695
0.001
0.001
0.001
0.001
0.00101
0.001
0.001
0.001
0.001
0.001
0.001
0.001
0.001
0.001
0.001
0.001
0.001
0.001
0.001
0.001
0.001
0.001
0.001
0.001
0.001
0.001
0.001
0.001
0.001
0.001
0.001
0.001
0.001
0.001
0.001
0.001
0.001
0.001
0.001
0.001
0.001
0.001
0.001
0.001
0.001
0.001
0.001
0.001
0.001
0.001
0.001
0.001
0.001
0.00104569
0.001
0.001
0.001
0.00124697
0.001
0.001
2.72895
2.71553
2.73134
2.70045
2.67788
2.71309
2.69852
2.68092
2.70315
2.52971
2.58778
2.61957
2.61083
2.63151
2.70158
2.73182
2.62287
2.49964
2.5212
2.50147
2.50645
2.49095
2.53385
2.42376
1.32382
1.42762
1.32314
1.3679
1.36486
1.28075
1.27663
1.27539
1.2794
1.27626
1.24752
1.17075
1.14385
1.06278
1.057
1.17747
1.28029
0.0246135
0.0467188
0.948042
0.954962
0.057495
0.0723027
0.890042
0.756238
0.0722738
0.0910165
0.625812
0.563263
0.22941
0.194441
0.150556
0.561032
0.486963
0.248076
0.273777
0.387515
1.43414
1.35772
1.33507
1.42148
1.28853
1.30743
1.44708
1.37767
1.42019
1.49513
1.49488
0.0259646
0.0200481
0.0318225
0.0210483
0.0803157
0.0544758
0.081366
0.0841943
0.0841621
0.107756
0.164691
0.139673
0.168238
0.16842
0.232063
0.190956
0.284289
0.283119
0.286395
0.26665
0.282441
0.284898
0.284355
0.283436
0.001
0.001
0.001
0.00361995
0.001
0.00100998
0.00368281
0.001
0.001
0.001
0.001
0.001
0.001
0.001
0.001
0.001
0.001
0.001
0.001
0.00101
0.001
0.397672
0.418964
0.370613
0.424607
0.448367
0.506359
0.405267
0.113923
0.565044
0.587088
0.339045
0.281358
0.001
0.001
0.001
0.001
0.001
0.001
0.001
0.001
0.001
0.001
0.001
0.001
0.001
0.001
0.001
0.001
0.948611
0.945298
0.977129
0.945479
0.947083
0.942324
0.94273
0.764172
0.767401
0.848304
0.861116
0.732334
0.727332
0.686511
0.688229
0.685071
0.682686
0.656769
0.653127
0.691395
0.690474
0.59628
0.58518
0.543018
0.556223
0.869784
0.798555
0.738598
0.950724
0.855952
0.980494
1.08098
1.00521
0.691023
0.650345
0.751796
0.728545
0.517889
0.518662
0.528676
0.561376
0.583019
0.612472
0.6443
0.627786
2.26504
2.28443
2.24995
2.31271
2.30227
2.31814
2.30595
2.33993
2.3484
2.38638
2.39173
2.38793
2.42655
2.39338
2.49406
2.20438
2.20844
2.21228
2.2179
2.21891
2.21795
2.2225
2.23783
2.23506
2.1826
2.1899
2.2005
2.20342
2.20375
1.88404
1.9577
1.76712
1.76036
1.6809
1.77895
1.83855
1.77317
1.99596
2.00704
2.01007
1.99655
2.1226
2.08773
2.05692
2.08907
2.13535
2.12794
2.15793
2.17163
2.18956
2.18475
2.18415
2.19142