/*--------------------------------*- C++ -*----------------------------------*\
  =========                 |
  \\      /  F ield         | OpenFOAM: The Open Source CFD Toolbox
   \\    /   O peration     | Website:  https://openfoam.org
    \\  /    A nd           | Version:  8
     \\/     M anipulation  |
\*---------------------------------------------------------------------------*/
FoamFile
{
    version     2.0;
    format      ascii;
    class       surfaceScalarField;
    location    "21240";
    object      phi;
}
// * * * * * * * * * * * * * * * * * * * * * * * * * * * * * * * * * * * * * //

dimensions      [0 3 -1 0 0 0 0];

internalField   nonuniform List<scalar> 
788991
(
-0.0675977
-0.00277927
0.0012262
0.00965559
-0.042925
-0.0786039
0.0591779
-0.0104737
-0.0591707
0.00720641
-0.0527673
0.0418694
-0.0362309
-0.0665369
-0.0559161
-0.00794868
0.0780061
-0.0113796
-0.0828744
0.0281891
0.0125585
0.0276868
-0.0349295
0.0153991
-0.070755
0.0329587
-0.0264702
0.0429721
0.0179734
0.0474339
-0.0241819
0.0719085
0.0600384
-0.00792709
0.0303636
0.00142956
0.0141069
-0.0530576
-0.0194144
0.0563935
0.0183519
0.0111858
-0.016745
-0.0221016
0.0417655
-0.0592704
-0.0779696
-0.00921611
-0.0129576
-0.120753
0.0404353
0.0551032
-0.104965
0.0524891
0.0226471
-0.0100466
0.0523317
-0.0103499
0.0334419
0.0431085
0.038463
-0.0497443
-0.0223817
-0.025251
-0.0660033
0.0804191
-0.014677
-0.029026
0.0356395
-0.00984413
-0.0510488
0.0501011
0.0124075
0.0403053
0.00131885
-0.032601
0.016234
0.0307666
0.00408837
0.0579638
0.0112722
-0.0490812
0.00731189
-0.0125361
0.00141851
-0.0198349
0.0510042
-0.0471466
-0.0369288
-0.000222348
0.0549174
0.0128611
-0.0240911
-0.000792158
-0.00589343
0.0354998
0.0195635
0.0556077
-0.0154738
0.00606428
0.071187
0.00604006
-0.0292171
-0.0436393
0.020977
0.0390302
0.00367862
0.0615855
-0.058582
-0.00874571
0.0362517
0.00915869
-0.0229881
-0.0176407
0.000664094
0.0340086
-0.00811227
-0.0490405
-0.0595096
-0.00736551
-0.0158204
-0.00843909
0.0499206
0.0454313
-0.0473094
-0.0453322
-0.0344977
-0.0581674
-0.0480467
0.0152476
0.0462606
-0.0186966
-0.074887
-0.0238426
0.028128
-0.0158825
0.0462911
0.0156417
0.0129443
0.025781
0.0638293
0.0279686
0.0206779
0.065677
-0.00795865
-0.0109368
0.0579925
0.0138998
0.0654675
0.0446661
0.0439148
-0.0426183
0.00900631
0.0155496
0.00777595
-0.00824317
0.0123395
0.0214304
-0.0450681
0.033369
-0.0489448
0.00159814
0.0148155
-0.0189774
0.0414885
-0.0297327
0.0395951
0.013914
-0.0151664
0.00735352
-0.0275273
-0.00667621
0.0122892
-0.0100489
-0.00552762
-0.0154202
0.00314278
0.0110526
0.0121948
0.00337294
-0.0054425
-0.0183347
0.00784861
0.0183796
-0.00960348
0.00385017
-0.0216052
0.00985271
0.019535
0.0125207
0.00985305
0.0200236
0.0162781
0.0154865
-0.0117248
0.00678973
-0.0103798
-0.00590014
0.0158992
0.00779026
0.0273379
0.0133217
0.0403109
0.0103066
0.0562338
-0.026982
-0.0274051
0.023163
0.00403772
-0.00718032
0.0321313
0.0214041
-0.00127873
0.0314019
0.0330737
-0.0137854
-0.0128902
-0.0397099
0.0522554
-0.00021841
0.034302
0.0559943
-0.00494202
-0.0487323
0.0455855
-0.00595812
-0.0247335
0.0567418
0.00260626
0.0560097
0.0293604
0.0149059
-0.0646099
0.0469139
-0.00281518
0.0448553
0.00803798
0.00118461
-0.0479365
-0.0564217
0.0262257
-0.0449065
0.00621178
-0.00202893
0.0368295
0.005247
-0.0385737
-0.00789765
0.0016374
-0.0164881
0.00463266
0.00484711
-0.00494986
-0.00968738
0.000191493
0.0113213
-0.00997833
0.000847607
0.0156732
0.0128265
0.00419623
0.0173726
-0.00907826
0.00526627
0.018476
0.0125639
0.0146251
0.0101304
-0.0139656
-0.0194156
0.0124207
0.0397203
0.0430064
0.0250264
-0.00535863
-0.00290784
0.0404899
0.021088
0.0475574
0.00930765
0.00480387
0.00807862
-0.0267888
0.0620151
-0.0430368
-0.0526428
-0.0158492
0.0158392
-0.0271806
-0.0792376
-0.00785357
-0.0525652
-0.0527994
-0.0806937
-0.00385091
-0.0233159
0.0422927
-0.0313881
-0.0337882
-0.0375409
0.0238224
-0.0234077
-0.00760684
-0.0513494
-0.0906924
-0.0576419
-0.0120672
-0.054777
0.0192538
-0.00478946
-0.0527143
0.0192787
0.0106657
-0.0221992
-0.0246683
-0.0368396
0.0782298
0.0286355
0.0786765
-0.0118002
-0.01303
-0.0517518
0.0162416
-0.02248
0.00175505
0.0119365
0.0013107
0.00155019
-0.0131172
0.0117848
-3.89851e-05
0.00356202
-0.0184211
0.0137133
-0.00172699
-0.0399713
-0.0215378
0.0141871
-0.028402
-0.013013
0.00261833
-0.0358326
-0.0387777
0.00114235
-0.0265336
-0.0364363
0.0220279
-0.0227489
-0.0536782
0.0114794
-0.0185533
-0.0278995
-0.000807666
-0.031648
-0.0471317
0.0401488
0.080092
-0.00586743
0.0459161
0.0520933
0.00997116
0.0595398
0.064807
0.015354
0.0486296
0.0297716
-0.0176489
0.0418848
0.0238847
0.0250867
0.00599016
0.0166537
0.0440562
0.0879612
0.0419471
-0.0315136
0.0620778
0.00874573
-0.0351099
0.0686759
0.0360794
0.00443127
0.0218038
-0.0332676
0.00102895
-0.021548
-0.0255686
-0.0157767
-0.0144359
-0.0304152
-0.0126963
-0.0171302
-0.0175566
-0.00345418
-0.0144774
-0.0125851
-0.013544
-0.0137357
-0.00255562
0.0199935
-0.0157375
0.00562372
-0.0198539
-0.00298721
0.00483258
0.0245308
0.013288
-0.0181004
0.0177576
-0.0232662
0.00383753
0.00230041
0.00702055
0.0231642
0.00248453
-0.0246808
0.0208298
-0.00933436
-0.0198554
0.00618117
-0.0105136
0.013204
0.0169683
-0.0337927
-0.00354129
-0.0142641
0.00840885
0.0203006
-0.0118446
-0.0252363
-0.0035627
-0.0344072
-0.0173388
-0.021182
0.00680978
0.00197151
-0.0218568
-0.00221763
0.0257434
-0.0206629
-0.0180562
-0.0148099
-0.0528224
0.0396227
0.042185
-0.0415358
0.0335952
-3.55753e-05
-0.0546855
0.0341305
0.00912857
0.0635063
0.0460283
0.0132355
0.0479181
0.0547031
0.00493289
-0.0403552
0.0394993
0.00327144
0.0488145
0.0326118
-0.00804421
0.0453893
0.00183939
0.00134859
0.0384457
-0.0331231
0.0154882
-0.029703
-0.00188773
-0.0178152
-0.0208284
-0.0153662
-0.0244579
0.00320585
-0.00571464
-0.0268074
-0.00556077
-0.00465093
-0.00768883
0.00922511
-0.00582004
0.00714499
-0.00842363
-0.00214397
0.0114609
-0.00823699
0.0052015
0.0123472
-0.00583459
0.00951541
0.0168974
0.00366107
-0.00937916
0.0223016
0.0189281
0.0276405
0.00133021
0.0216869
0.00761744
0.00908989
-0.0154103
0.0296875
0.00912041
-0.0130882
0.0204168
0.008524
0.0193264
0.0168221
0.0215418
0.0112998
0.0254508
-0.0308087
0.0273822
-0.00513239
0.0257923
0.0285159
0.00668539
0.0367677
0.00265942
0.039155
0.0352088
-0.00650538
-0.0075782
-0.0453888
0.00860401
-0.0105136
0.0685283
-0.0122112
-0.0653468
-0.0278081
-0.0303353
0.0116654
0.091505
0.0943203
-0.0704846
-0.073064
0.033023
-0.0455121
0.0122247
-0.0167208
0.0342398
0.0322518
-0.00180299
-0.0433356
-0.0548222
-0.0402695
-0.0506857
0.0516431
0.0099512
-0.0408411
0.032935
-0.0405858
-0.0704416
0.0574993
0.0082644
-0.0226709
-0.0282294
0.0220512
-0.0116296
0.0439897
0.0032153
-0.0193063
0.0421237
0.00925537
0.00651069
-0.0248782
0.0283476
-0.0452909
-0.106209
-0.0202463
0.0236729
-0.039533
-0.0708229
-0.00176474
0.008435
-0.0302864
0.0377587
0.0308404
-0.014688
0.0154262
0.00855336
-0.0187435
0.00154528
0.0150003
-0.0179981
0.0165604
-0.0426483
-0.0349005
0.0102326
-0.0344272
-0.00549558
-0.0177689
-0.0396883
-0.0324325
-0.00167809
-0.044581
-0.037888
-0.0167643
-0.0245923
-0.0426414
-0.0128566
-0.0380942
-0.0356278
0.00477813
-0.0301393
-0.0323796
0.00458529
-0.0200985
-0.0310211
-0.00489862
3.45999e-06
0
9.47323e-06
0
0
-2.39292e-06
6.32557e-06
-1.22109e-05
8.27559e-06
2.30071e-06
2.90114e-07
-0.0501748
-0.0530984
0
0
0
0.126918
0.0295893
-0.0418437
0.0499812
-0.00030636
0.0516373
0.0329047
-0.00716958
0.0670262
0.0458658
0.00727945
0.0523567
0.0560661
-0.00591069
0.0463247
0.0378631
0.0190962
0.0637028
0.0342573
-0.0253161
0.0674436
0.0254865
-0.021115
0.0178897
-0.000210682
0.0289062
0.0452269
0.0297341
0.00239702
-0.0349121
-0.00742244
-0.0172372
-0.00470954
0.0495601
0.0235886
-0.0250132
-0.0215753
-0.00127434
-0.0144567
-0.0202222
-0.00464006
-0.0148118
-0.0162622
0.00744335
-0.0136189
-0.00651903
-0.0138018
-0.0131317
0.00349823
-0.0193586
-0.0193631
0.00559462
0.0181827
-0.017225
0.0077439
0.0168663
-0.0210093
-0.0212515
-0.00511434
0.00590212
-0.0227912
-0.0260769
-0.0257307
0.000751312
0.0204212
-0.0167861
-0.0151217
-0.00425608
0.0185586
-0.0088248
0.00718773
0.0163472
-0.0205864
-0.00360024
0.0201456
-0.0231369
0.00425838
0.0283038
-0.0208809
-0.000360739
-0.0231854
-0.0439459
0.00514316
0.043358
0.0100858
0.0490885
0.0496943
-0.00182994
-0.0449099
0.000883501
0.0485558
-0.032783
-0.00185606
0.0288759
-0.0425272
-0.000666833
0.0401239
-0.00310906
-0.0279438
-0.0222964
-0.00878609
-0.0616697
-0.0372997
0.0375519
0.00710242
-0.0624698
0.0730466
0.0679331
-0.0684138
0.0665208
0.00955833
-0.0444655
0.0652037
0.00164873
0.0437502
0.0672902
0.00838043
0.0631383
0.054208
0.0196994
-0.0513065
0.03577
0.00892035
-0.0406285
0.0375748
-0.00331158
0.0378011
0.00483626
0.00367734
-0.0195036
0.02303
0.00695211
-0.0212829
-0.0146137
-0.0163962
0.000387561
-0.0254045
-0.0244652
0.00578502
-0.0155866
-0.0368565
-0.0119204
-0.0058982
-0.0111682
-0.00257275
-0.00467246
-0.00277158
-0.000600829
0.000484172
0.00676652
-0.000881107
0.00458225
0.0107944
0.00152176
0.0101344
0.0128772
-0.0105444
0.00356013
0.0194353
-0.00933151
0.0189289
0.0126914
0.00612879
0.02127
0.00287659
0.0145219
0.0278635
0.0141183
0.0114747
0.0277327
0.0135501
-0.0110504
0.0213087
0.0286958
-0.0126667
0.0334824
0.0311013
0.0059603
0.0324928
0.0269681
0.011503
0.0352415
0.0354062
0.00924136
0.0396681
0.0460561
-0.00970055
0.0409523
0.0444008
0.047468
-0.00325108
-0.0591374
-0.0397128
0.0485338
-0.00661701
-0.133686
-0.084855
0.0118268
-0.076616
-0.054604
-0.012318
-0.0310047
-0.0324578
-0.0534741
-0.0657378
-0.0276456
-0.0376865
0.0092227
-0.0360741
-0.0473756
0.0040473
-0.0326119
-0.0249191
-0.0188453
-0.0419787
-0.0246584
-0.0168318
-0.0445646
0.0228034
-0.0112135
-0.054508
0.0264027
0.025826
-0.0152444
-0.0705588
0.0211002
-0.0197549
0.032267
0.0175265
-0.00833269
-0.030989
-0.0149148
0
-0.0160374
-0.00667632
0.00211628
0.00684526
-0.204026
-0.00783311
-0.0506016
-0.0137737
-0.137377
0.0653737
0.040886
-0.0779217
0.0803077
0
0
0
0
0
0
0
0
0
-5.63311e-06
0
-2.99311e-06
0
-1.25567e-05
-2.38226e-08
-8.57446e-06
6.87933e-06
7.30778e-06
-2.71412e-05
0
0
8.75492e-06
0
0
0
0
0
0
0
0
0
0
0
0
0
0
0
0
0
-0.0185331
-0.0660794
-0.0083311
-0.0359468
-0.0344535
0.00696793
-0.0388881
-0.0311649
0.0202919
-0.0406214
-0.0142745
-0.0244787
-0.052744
-0.0396023
-0.0189608
-0.0301637
-0.0315412
0.00259089
-0.0255686
-0.0177661
-0.0123653
-0.0394702
-0.0388227
0.0185285
-0.0313784
-0.0255978
0.0301106
-0.0341068
-0.0213083
-0.000256299
-0.0240488
-0.0138702
-0.0149896
0
6.97517e-06
0
0
0
0
0
0
0
3.57092e-06
0
0
0
0
0
0
0
0
0
0
0
0
0
0
0
0
0
0
0
0
0
0
0
0
0
-0.0129171
0.0740625
0.111477
0.024044
0.00648438
0.009126
0.031272
0.0305763
-0.00698231
0.0501294
0.0427637
0.00584541
0.0574422
0.0530264
-0.0146904
0.0434298
0.042004
0.0179779
0.0402434
0.0131103
0.0089053
0.047883
0.0264543
-0.03132
0.0335332
0.0451211
-0.0286531
-7.5495e-05
0.0376401
0.00967551
0.00439814
0.0391087
-0.0201626
0.000828764
0.0231883
-0.0263129
2.09625e-05
0
0
-4.08883e-05
-2.13205e-06
0
0
2.47506e-05
0
0
0
0
0
0
0
0
0
0
0
0
0
0
-0.0192713
-0.0188638
0.00491101
-0.0184974
-0.0143334
0.00723478
-0.014857
-0.00986578
-0.010202
-0.0139795
3.16573e-05
-0.0137298
-0.0119324
0.00616105
-0.0187582
-0.0150659
0.00354669
0.0168584
-0.0252319
-0.00345122
-0.0174999
-0.026985
-0.0012981
0.0196936
-0.0272351
-0.00716966
0.0229505
-0.0278952
-0.00159637
-0.0219634
-0.0181087
-0.000648415
-0.0229247
-0.0197329
0.00408317
0.0188592
-0.0096554
0.0015563
-0.0138615
-0.0151454
-0.000998255
0.0125456
-0.0164312
-0.00178974
-0.0110047
-0.0231146
0.00187066
0.0225525
-0.00474932
0.0461679
0.0435828
-0.00271958
0.0413241
-0.00394568
-0.0444968
-0.0416328
0.0445154
-0.00492476
0.0476176
-0.00664426
0.0433438
-0.0458426
0.00138885
0.0468924
-0.0456954
-0.00232787
0.0451595
-0.0327193
-0.00117872
-0.0304217
-0.041431
-0.000886043
-0.0375622
-0.00279672
-0.0288748
0.0280495
-0.0177306
-0.00163899
0.0343461
-0.0450812
-0.0149609
-0.0560002
-0.0199524
0.0578395
-0.0288451
0.0579117
-0.0009878
0.0486141
0.0605522
0.0141928
-0.0493834
0.0637872
0.0115161
-0.0429813
0.0518165
0.0123554
-0.0364034
0.0340856
0.0119339
0.0266075
0.0214929
0.0128126
0.0165296
0.00534408
0.0106354
-0.00218683
0.0075614
-0.00214907
-0.00191773
-0.0322087
-0.00673346
0.000985152
-0.0228587
-0.0414361
0.0181047
-0.0162227
-0.0179058
0.00361899
-0.00456233
-0.0240516
-0.00558568
-0.000571317
-0.00730054
0.00692806
0.00400488
-0.00327555
-0.00130436
0.00684464
0.00465083
-0.000336894
0.00236408
0.0116572
0.0086936
0.00760795
0.0145776
0.0190098
0.0180126
0.0145127
0.0110856
0.0246173
0.00656175
-0.0103385
0.0269972
0.0161594
0.0133215
0.0246701
0.0167599
0.0069189
0.0198964
0.0330696
0.0135835
0.0341077
0.0303864
0.00586228
0.0336975
0.0231784
0.0146093
0.0359509
0.0397464
0.00987322
0.0396294
0.0480753
0.00617904
0.0429778
0.0484407
0.00451792
0.0469643
0.0474726
0.00159058
0.0458189
0.0442335
0.0441486
-0.00193791
-0.000677497
-0.00288666
0.0482306
-0.0473283
0.0442019
0.0454559
0.0472396
0.0434295
0.0452264
0.00348297
0.049803
0.00197087
-0.0518721
0.0491294
0.00645006
0.0540083
0.00291559
0.0586718
0.0551496
0.00734573
0.0533101
0.00336348
0.0623166
0.0579011
-0.00877794
-0.0547271
0.00754022
0.0695844
0.0582831
0.0124574
0.061292
0.0121729
0.0789842
0.0648337
0.0164696
0.0647033
0.0141206
-0.08353
0.076167
0.0208707
0.0175595
0.0603647
-0.0816664
0.0843355
-0.0241126
-0.0445383
-0.0762806
0.0680281
0.00155678
0.0321558
-0.0159911
0.0229363
0.0773592
0.00488157
-0.041907
0.0384399
-0.0137167
0.0216389
0.0383682
-0.0349107
0.0343201
-0.0572052
-0.0152698
0.0346818
-0.00060353
-0.0210006
-0.0138664
-0.0127074
-0.0147154
-0.0044441
-0.0133102
-0.018189
0.00774
-0.0288803
-0.0311984
0.0090904
-0.0260012
-0.0467785
-0.0151186
0.0263878
-0.014149
0.00331305
0.0299688
-0.00738919
0.0260201
0.00248626
-8.40829e-05
-0.00415885
-0.0111343
0
0
0
0
0
-0.0512798
0
0
0.000625788
0.0190885
-0.0392377
0.0153049
-0.0127735
0.0082254
0
0
0
0
0
0
0
4.42154e-05
-9.8792e-05
0
0
0
0
0
0
0
0
0
0
0
0
-4.75969e-05
0
0
0
0
0
1.79102e-07
1.28234e-06
0
-3.45727e-06
0
-2.74035e-06
0
0
0
-2.5319e-06
0
0
0
-5.01138e-05
-2.20422e-06
0.000252161
0.000878109
0.00122288
-0.000665866
-0.000119091
0
0.00113711
-0.000779547
0
0.000160511
0
-9.02594e-05
0
0
0
0
0
0
0
0
0
0
0
0
0
0
0
0
0
0
0
0
0
0
0
0
-0.0152211
-0.0283402
0.00523177
0.00410816
0.00805877
-0.0160217
-0.0467917
0.0282645
-0.0239586
-0.0155157
-0.0197442
0.0216725
-0.0352793
-0.00336787
-0.00442513
-0.0437149
-0.0281265
-0.0164485
-0.0428215
-0.029038
-0.0228438
-0.0289686
-0.0256283
0.00947058
-0.00864209
-0.0358862
-0.017293
-0.0115207
-0.0401959
-0.0182191
-0.0172753
-0.0244387
-0.0205126
0
0
0
-2.64508e-05
2.48948e-05
5.29194e-05
0
0
0
0
0
0
3.91148e-05
0
-1.44543e-05
0
0
0
0
0
0
0
0
0
0
0
0
0.0517217
0
0.00844575
0.0236631
0.0995866
-0.00502013
0.00937986
0.0124531
0.00936326
0.0219688
0.0260074
0.00616964
0.0550392
0.0399209
-0.0148079
0.0581464
0.0487045
0.0175133
0.0420904
0.0431125
-0.032049
0.0364304
0.0536664
-0.0337068
0.0761158
0.0401074
-0.00154303
0.0549306
0.037954
0.0303993
0.0557464
0.030148
-0.0238579
0.021636
0.0221267
0.0191834
-0.0294791
0.00274847
0.0114018
0
0
0
0
0
0
0
-4.16731e-07
0
2.23814e-07
0
-3.2956e-07
-9.7784e-08
0
0
0
0
0
0
0
0
0
0
0
0
0
0
0
0
0
0
0
0
0
0
0.00492504
0.0326789
-0.00535001
-0.0238411
-0.0119237
-0.012259
-0.0188839
-0.0104811
-0.0102709
-0.0150775
-0.00436638
-0.0126591
-0.0121237
0.00283324
0.0160924
-0.00989427
0.00615638
-0.0193891
-0.00997209
0.00252364
-0.0138126
-0.023851
-0.00423955
-0.0183603
-0.0276486
-0.00376658
0.0233467
-0.0287437
-0.0013965
-0.0295087
-0.0324084
-0.00596989
0.0273089
-0.0205743
0.00378094
0.0267931
-0.0222652
-0.00336534
-0.0213419
-0.0117709
-0.000378219
-0.00706548
-0.0137542
-0.00267532
-0.00431922
-0.0232081
-0.00121719
0.00912479
-0.0263161
0.00203899
-0.0213708
-0.00676024
-0.0508935
-0.0459109
-0.00920765
-0.0490144
-0.041352
-0.00832174
-0.0486296
-0.0390303
-0.0512926
-0.0107047
-0.0442151
-0.00255348
-0.0506241
0.0500856
-0.00581866
-0.05334
-0.0492377
-0.0572355
-0.000909872
-0.0540469
-0.0612338
-0.00189857
0.0624348
-0.064401
0.00172829
-0.0701624
-0.0703002
0.00622312
-0.0812202
-0.0713383
0.0091265
0.0842542
-0.0658005
0.0107079
0.0795334
0.0203916
0.0831914
-0.026482
-0.0504077
0.0740065
0.0134688
-0.0563542
-0.0732888
-0.0487504
-0.00707887
-0.046945
-0.0499562
-0.00851416
0.0427779
-0.037416
-0.00371984
-0.0311416
-0.0480482
-0.0405738
-0.00972624
-0.00753824
-0.0391506
0.0301984
-0.0138985
-0.00985365
-0.0498483
0.0182282
0.0182292
-0.0259214
0.0797043
0.0421012
-0.0636261
0.064097
0.0215519
0.0549338
0.0663765
0.0191217
-0.0515938
0.0639459
0.0169313
0.0402801
0.0474948
0.0159191
-0.0261545
0.0321192
0.0224574
0.00448736
0.00248376
0.0393288
0.00909852
0.00773161
0.0223969
-0.0181757
-0.0176185
-0.0196697
0.0134376
-0.0253555
-0.0081551
-0.0244124
-0.0335069
-0.0157623
-0.00346531
0.00307908
-0.0381801
0.000960462
-0.00389097
-0.00511253
0.0159075
-0.00417865
-0.021759
-0.00923268
0.00224382
-0.0136316
0.00321373
0.00120344
-0.000413229
0.0061724
0.0033726
0.0101848
-0.0102791
0.00265149
0.0177991
0.0177027
0.0192685
0.0115455
0.0115727
0.0179115
0.00524577
-0.0143208
0.0285664
0.0181762
-0.0134593
0.0198754
0.0149167
0.0118401
0.0184831
0.0307688
0.0148343
0.0344934
0.0307706
0.0107955
0.0344913
0.0248327
-0.0169385
0.0389146
0.0433734
0.0112304
0.0434513
0.0465193
-0.0065754
0.0441813
0.0490263
0.00528144
0.042621
0.0463332
0.00022374
-0.00123224
0.0421886
0.041976
0.0403055
0.0430085
-0.00479666
0.0435117
0.0473635
0.00724399
0.0474773
0.0511727
0.00974244
0.0476306
0.055484
0.0102949
0.0448324
0.0545233
0.0116757
0.0462993
0.0542854
0.0154782
0.0540645
0.0615791
0.0207443
0.0588554
0.0755866
-0.0263839
0.0555375
0.0854051
0.0299144
0.0466209
0.075643
0.0857361
0.0333511
0.0450674
0.0284049
0.075031
0.079746
-0.0353843
-0.0401003
0.0298827
0.0724858
0.036637
0.0802806
-0.073104
-0.051569
-0.0391971
0.00630975
-0.0309853
-0.0792933
-0.00226581
-0.0445377
-0.0375669
0.00247098
-0.0419891
-0.0242415
0.010711
-0.00569534
-0.0252882
-0.0289933
0.0416463
-0.0269587
-0.0362501
-0.0431845
-0.0180922
0.0320655
-0.00379402
0.00108955
0.0110931
-0.0122213
0.0024972
-0.00744417
-0.0234145
-0.00552086
0.00407122
-0.0297535
-0.0243982
-0.0131239
-0.0168987
-0.0199346
0.00237171
0.0408332
-0.00720664
-0.00569181
0.0159022
0.0586128
0.00629323
-0.00115812
0.0365471
-0.0172712
0
0
0
0
0
0
-0.0674966
0
0
-0.130105
0
-0.0402993
0.0574677
-0.0608611
-0.033477
0
-2.29184e-05
-4.91099e-05
0
0
0
0
-0.000215632
0
0
0
0
0
0
0
0
5.38019e-09
-4.67202e-07
0
0
0
0
0
0
0
0
0
0
-0.000125231
0
0
0
0
-5.24813e-05
0
0
4.09671e-05
0
0
0
0
0
0
0
0
0
0
0
0
0
0
0
0
0
0
0
0
0
0
0
0
4.72866e-07
0
0
0
0
0.0259271
0.0071813
0.0146118
0.0412783
-0.00758805
-0.0566611
-0.0496308
-0.035365
8.81192e-05
-0.0412699
0.00959081
-0.0471986
-0.0522305
-0.0330875
-0.0151869
-0.0299086
0.00211682
0.0318874
-0.045153
-0.0128745
0.00823516
-0.0322143
-0.0269441
0.0188615
-0.00851855
-0.0297925
-0.024536
0.0110905
-0.0473828
-0.0280488
-0.0509359
-0.0172562
0.00101939
-3.22902e-05
0
-8.54588e-06
6.29191e-05
-1.22766e-05
-1.04033e-06
0
0
0
0
0
0
0
0
0
0
0
0
0
0
0
0
0
0
0
0
0
-0.0197992
0
0.0821641
0.034827
-0.00957461
-0.042848
0.025885
0.0205287
-0.00117073
0.0413063
0.00591724
-0.00879563
0.0618782
-0.0171921
0.0351626
0.0549832
0.0450972
0.0144687
0.059185
0.0290741
0.00494394
0.054579
0.00278962
-0.00776351
0.0240747
0.0434921
-0.00773073
0.0375359
0.0235094
0.0169115
0.0141498
0.0387916
0.0109547
-0.0116242
-0.0553509
0.0320668
-0.0346744
0.0154937
-0.0291611
0
0
0
0
0
0
0
0
0
0
2.68767e-07
0
0
0
0
0
0
0
0
-0.00755131
0
0
0
0
0
0
0
0
0
0
0.00365446
0
0.00282571
0
0
0
0
0
0
0
0
0
0
-0.00658328
0
-0.0239008
-0.00766299
-0.0132845
-0.0180626
-0.00679714
0.012353
-0.015947
-0.00274003
-0.0144994
-0.0173872
0.000727875
0.0158046
-0.0307777
-0.00545979
-0.0268693
0.0203568
-0.0175248
0.00357663
-0.0177742
-0.0178619
-0.000239968
0.0177533
-0.0232801
-0.00522646
-0.0232106
-0.0264579
-0.00492688
0.0280384
-0.0303224
-0.00270821
-0.0291419
-0.0370223
-0.00869789
-0.0298862
-0.0268947
0.000223857
-0.0245208
-0.0280741
-0.00431317
0.0247852
-0.0176805
-0.00682679
-0.0153905
-0.0179012
-0.00933929
0.0176167
-0.0211048
-0.00551617
-0.0135252
-0.024597
0.000299322
0.0185918
0.00724894
-0.00356977
0.0615795
-0.0524103
0.0466607
-0.0535152
0.0126518
0.0542077
0.0599021
0.0460523
-0.0725753
0.0656487
-0.0598704
-0.0137504
0.0446503
0.0648559
-0.0298043
0.0324234
0.0772512
-0.0386884
0.0662408
-0.0355098
0.0707359
-0.0444772
0.0370609
0.0766137
-0.0428845
0.0823499
-0.0482749
0.0373613
-0.0789944
0.087987
-0.0537797
-0.0403418
0.0467493
0.0853251
-0.0473191
0.0225453
0.0722782
-0.0423458
0.0237331
-0.0698539
-0.0323478
0.027023
0.0635254
-0.00966685
-0.0540702
-0.046914
-0.0123012
-0.0524682
-0.0418349
-0.0133202
-0.0518063
0.0391212
-0.0533141
-0.0118745
-0.0443824
-0.00453078
-0.0544374
0.0525381
-0.00655203
-0.0560365
0.0462283
-0.0642772
-0.00112548
0.0595844
-0.0684549
-0.00396799
0.0673626
-0.0754989
-0.000488371
0.0772512
-0.0766781
0.00277118
0.0809083
-0.0701853
0.00410058
0.0763148
-0.0623343
0.00578974
0.0710491
0.0156612
-0.0525036
0.0726942
0.00799088
-0.060143
0.072357
-0.0109349
-0.0556116
-0.046021
-0.0452207
-0.0038912
-0.0552538
0.0413992
-0.0545207
-0.0135619
-0.0421787
-0.0154758
-0.0424416
0.0253268
-0.0111581
-0.0414531
-0.0322637
0.0373298
0.0430632
0.0842271
0.0438067
0.0259912
0.0817824
-0.0474893
0.0342701
0.0748581
0.0522528
0.0289734
0.0884097
0.0571543
0.00670551
0.0836443
0.057739
-0.00496881
0.0631454
0.057536
0.0086659
0.0597195
0.0647678
0.0707026
0.00466078
0.0740717
0.0660099
0.00889454
-0.00752684
0.0442644
0.0624496
-0.00342514
-0.0558375
0.0313552
0.0743865
-0.0385432
0.0640258
0.0101082
-0.0472676
0.0636548
0.0181817
0.0363379
0.0567051
0.0139223
0.0283682
0.0380974
0.017056
0.0123182
0.024435
0.0365572
0.0152608
-0.0153168
0.0549445
-0.02916
0.00338085
0.0209646
-0.0373684
-0.0352846
-0.0248121
0.029596
-0.0351698
-0.00311397
0.0215791
-0.00343391
-0.0244189
-0.000601721
-0.000257161
0.0282743
-0.0212733
-0.00426127
-0.0268886
0.0133017
-0.00978791
-0.0184092
-0.0130931
-0.0051405
-0.0208171
-0.00234554
-0.00242842
-0.00353608
-0.00472698
0.00469221
0.00296649
-0.00803188
0.00639803
0.0106009
-0.00816643
0.015714
0.0080576
0.0116463
0.0108621
0.00357653
0.00704249
0.0264404
0.0174438
-0.0117386
0.0186603
0.0102856
0.0155574
0.0201895
0.0306066
0.0159404
0.0384948
0.0331583
0.0150153
0.0376497
0.0240544
-0.0181147
0.03826
0.0406359
-0.0122598
0.0427783
0.0430283
0.00814394
0.0411567
0.0466167
0.00495074
-0.00273082
0.0421467
0.037818
0.0367611
0.0372097
-0.00799335
0.0395792
0.045162
0.00986989
0.0411946
0.048214
0.0113367
0.043183
0.0507529
0.0122698
0.0414051
0.051481
-0.0128358
0.0378363
0.0505102
0.0139787
0.0409805
0.0507866
-0.0186264
0.0503148
0.0604431
-0.0252806
0.055774
0.0777478
0.0308919
0.0527756
0.0887318
-0.0356823
0.0438918
0.0894114
-0.038981
-0.0417961
0.0827333
-0.0476024
-0.0479769
0.0480942
0.000532751
-0.0838161
-0.0526464
-0.000154799
-0.0129941
-0.0944602
0.00920241
0.0260014
-0.0330676
0.0395595
0.0173527
-0.0332182
-0.0437485
0.0153317
-0.0434922
0.0371571
0.0348442
-0.0238422
-0.0483381
-0.0167132
-0.00118267
0.0186686
-0.0136274
0.016267
0.0282924
-0.0175925
0.0221203
-0.0127399
-0.0426464
0.000629045
-0.0337224
-0.0354459
-0.0178179
-0.0283283
0.00042249
-0.0211882
0.00764537
0.0569596
0.0553157
0.0547976
0.00415382
0.0232158
0.0925454
-0.0417794
-0.036497
0.0502163
-0.0364257
0
0
0
0
0
0
0
0
0
0
0
0
0.0333002
0
-0.0641959
0
0
0
0
0
0
0
0
0
0
0.00324754
0.00205847
0
0
0
0
0
0
0
0
0
0
0
0
0
0
0
0
0
0
0
1.16337e-05
-2.56508e-05
0
0
0
0
0
0
0
0
0
0
0
0
0
0
0
0
0
0
0
0
0
0
0
0
0
0
0
0
0
0
0
0
0
7.53502e-06
0
-3.41766e-05
0
0
0
-5.84161e-06
0
1.32246e-05
0.0642916
0.0393319
-0.0655366
-0.0169607
0.0653237
-0.0680449
0.0621114
-0.0196095
-0.0459994
-0.0528054
-0.0312395
-0.00947607
-0.061246
0.0207734
-0.0154622
-0.000823674
-0.0252382
-0.0348079
-0.00933193
0.0267136
-0.0382513
0.00531652
-0.0164071
-0.0536232
-0.0290676
-0.0526643
-0.0283994
0.012434
0.0172436
-0.0303159
-0.0252214
-0.00206791
-0.0448572
-0.0292843
0.00470428
-0.0183785
-0.0390112
1.12158e-06
0
0
0
0
0
0
0
0
0
0
0
0
0
0
0
0
0
0
0
0.0496521
0.0629727
-0.0119156
0.0327595
0
0
0
0
0.00923224
-0.0243733
-0.00346862
0.0596958
0.0221836
0.0165394
-0.00459443
-0.00169039
0.035074
-0.0113976
0.00623067
0.00974729
0.0103941
0.0452433
0.0437194
-0.0207713
0.0364386
0.0554989
0.0223597
0.0241966
0.0214936
0.0164394
0.00634336
0.0350305
0.0550471
-0.0139577
0.0164095
0.0484805
-0.0116447
0.00535794
0.0648011
-0.0107822
-0.0142697
0.0556768
-0.00351861
-0.0785579
0.0576923
0
0
8.97473e-06
9.08488e-07
0
0
0
0
0
0
0
0
0
0
0
0
0
0
0
0
0
0
0
0
0
0
0
0
0
0
0
0
0
0
0
0
0
0
0
0
0
0
0
0
0
0
0
0
0
0
0
0
0
0
-0.0253328
-0.031374
-0.00129357
-0.0246004
-0.0179121
-0.00642861
-0.0146836
-0.0154829
-0.00605596
-0.0135963
-0.0164269
-0.00324393
-0.0130063
-0.0211164
-0.00274566
0.0162142
-0.00417022
-0.0203646
0.0201417
-0.0229744
-0.00188991
-0.0199113
-0.0220547
-0.00401095
0.0174268
-0.0280377
-0.00399319
-0.026338
-0.0300765
-0.0037696
-0.0340415
-0.0344233
-0.00725408
-0.0310209
-0.0400806
-0.0122088
0.0263877
-0.031216
-0.00477904
-0.0234199
-0.0338263
-0.00828269
0.0284352
-0.0198713
-0.00611482
0.0187388
-0.0139713
-0.00800425
0.023528
-0.00996646
-0.000225453
-0.0212017
-0.0142967
0.000563572
-0.0108682
-0.0085889
0.0277483
0.0578917
-0.0289472
0.04553
0.0652658
-0.0251523
0.0406229
-0.0655776
-0.00167871
0.0787876
-0.0522274
-0.0372601
0.0302904
-0.0693904
-0.0402035
0.0355918
0.0802548
-0.0398739
0.0374212
-0.0791884
-0.0337272
0.0408086
-0.0597391
-0.0474479
0.01791
-0.0715649
-0.0362915
0.0216018
0.0640844
-0.0373578
0.0256606
-0.0670332
-0.00742505
-0.0525795
-0.048294
-0.0129723
-0.0523858
0.0410789
-0.0147017
-0.0550697
-0.0393593
-0.0538066
-0.0115624
0.0440588
-0.0115749
-0.0604622
0.0619616
0.0437764
-0.00719487
-0.0559116
0.0459905
0.001648
-0.070195
-0.0641551
-0.0192496
-0.0620422
0.0489073
-0.0764472
-0.00559827
0.0695783
-0.0775209
-0.00450814
0.0720926
-0.0720241
-0.00342203
0.0689849
-0.0655324
-0.00201357
-0.0658654
-0.0645243
0.000936251
-0.0689758
0.0115222
-0.0555026
-0.0738517
0.00448989
-0.0628465
0.0734435
-0.0446455
-0.0162359
0.0294389
-0.0120728
-0.0569476
0.0440198
-0.0158025
-0.0575902
0.0383068
-0.0570031
-0.0142719
0.0402756
-0.0139277
-0.0461765
-0.0332671
-0.0150425
-0.0496652
0.0337489
0.0413705
0.0421949
0.0870059
-0.0470613
0.0347287
0.0885287
-0.0501165
0.0221709
0.0551192
0.0860764
0.0313011
0.077801
0.0605041
0.0270101
0.0887043
-0.0600597
0.000342511
0.0890642
0.0666787
-0.00921338
0.0572342
-0.0726418
0.000322596
0.0524077
0.074385
0.0105272
0.0781202
-0.0781607
0.032023
0.0894932
0.0166541
0.0614957
-0.00514794
0.0735383
0.0818677
0.0731098
0.00191055
-0.00516151
-0.0598075
0.0523376
0.0146555
-0.0532825
-0.0611214
0.0491015
-0.0501652
0.053885
0.0173369
-0.0357751
0.0484095
0.0219909
0.0252886
0.0426775
0.0150292
-0.0182107
0.0249838
0.0203458
0.0120941
0.00776493
0.046295
-0.035934
-0.0397528
0.0622636
0.0327276
0.000889046
0.00597708
-0.0475674
-0.0551079
-0.0339188
0.045218
0.00506561
-0.00247495
0.00148289
-0.0032443
0.00451489
-0.0216394
-0.0123139
0.0273751
-0.00718466
-0.0155693
-0.0163926
0.00991338
-0.0156892
-0.0240548
0.0033577
-0.00904754
-0.0210236
-0.00442326
-0.00232594
-0.0129963
0.00473682
0.00189005
-0.0077343
-0.00276768
0.00807469
-0.0032934
-0.00272702
0.00847757
0.0067
-0.0116124
0.00521563
-0.00128163
-0.00544149
0.0243944
0.016058
0.0142628
0.0190787
0.00924154
-0.0156894
0.020215
0.0320443
0.0174105
0.0358422
0.0275227
0.0155103
0.0349305
0.0196096
0.0162885
0.0323184
0.03475
0.0125764
0.0371954
0.0397475
0.00724543
-0.00151977
0.0407479
0.0299792
0.0359558
0.0131999
0.034239
0.0420713
0.0131317
0.0341478
0.045366
0.0145359
0.0346248
0.0472596
-0.0148073
0.0357875
0.0466928
0.015097
0.0355606
0.047365
-0.0157044
0.0327126
0.0486386
0.0172095
0.0378588
0.0495344
0.0226581
0.0490242
0.0618887
0.029858
0.0544352
0.0802363
-0.0348493
0.0510546
0.0914697
-0.0399747
-0.0446013
0.0932997
-0.0661178
-0.0350616
-0.0455627
0.0238042
-0.0502008
-0.0914631
-0.0339946
-0.0868068
-0.084763
0.0332543
0.00538103
0.0789404
-0.120029
0.011954
-0.0871146
-0.0670554
0.00353246
-0.0573151
0.0587829
0.0209436
-0.0434372
0.0484199
0.0472348
-0.0273729
-0.0616419
-0.0626677
-0.0399496
0.0488345
-0.0130738
0.0022423
0.0385058
-0.0497793
0.0439463
-0.0723326
-0.0703923
0.00689296
0.0783461
-0.0523851
0.0213725
0.00659628
0.0211513
-0.0269257
0.132343
0.0472378
-0.0240781
0.0151638
0.0900581
0.062653
-0.0321983
0.0929129
0.187557
-0.0788841
0.0291199
-0.0827169
0
0
0
0
0
0
0
0
0
0
0.00389552
-0.00320442
-0.100075
0
0.0492909
0
0
0
0
0
0
0.00229428
0
-0.00187009
0
-0.0048878
0
0
0
0
4.42672e-06
0
-2.69073e-05
0
0
0
0
0
0
0
0
0
0.000121791
-5.32411e-05
0.000209104
0
-3.19987e-05
0
3.52869e-05
0.000104382
-4.56356e-05
0
-3.65666e-05
0
0
0
0
6.74229e-06
0
-5.15794e-05
0
-7.57572e-06
-1.49295e-05
0
0
0
0
0
0
0
0
0
0
0
0
0
0
0
0
0
0
0
0
0
-3.43578e-06
0
5.31377e-06
0
0
0
-3.43949e-05
0
0
0
0
0
0
0
0
0.0530628
0.0473661
0.059428
0.0101287
0.0622697
0.095988
0.0106052
0.0765603
0.0675083
0.0995849
-0.00543412
-0.0879739
0.0498707
-0.0302021
0.0564867
-0.0287815
0.0349231
0.040879
0.000372156
-0.0499681
-0.0433424
-0.00345536
-0.0305675
-0.0471864
-0.00699732
0.0502312
-0.0196811
0.0129767
0.0169574
-0.0540709
-0.0114582
-0.0492424
-0.0341352
-0.00138672
-0.0349815
-0.0332873
-0.0317228
-0.00180102
0.00438802
-0.0355461
0
0
0
0
0
0
0
0
0
0
0
0.0475632
0.0588909
0.00471078
0.0359855
0
0
0
0
0
0
0.0323717
0.00702986
-0.0214814
0.019924
-0.00612104
0.0085741
0.0783702
0.0851257
0.0150155
0.00887525
0.0460169
-0.0430563
0.0160891
0.0074493
-0.000862214
0.00810475
0.00263133
-0.0218327
-0.0537881
-0.0177916
-0.0198473
0.056615
0.0405546
0.0040296
0.0466414
0.0220673
0.0106995
0.000942216
-0.00882743
-0.0333012
0.0819077
0.0393512
-0.0210173
0.0570237
0.0408514
0.00975592