/*--------------------------------*- C++ -*----------------------------------*\
  =========                 |
  \\      /  F ield         | OpenFOAM: The Open Source CFD Toolbox
   \\    /   O peration     | Website:  https://openfoam.org
    \\  /    A nd           | Version:  8
     \\/     M anipulation  |
\*---------------------------------------------------------------------------*/
FoamFile
{
    version     2.0;
    format      ascii;
    class       volScalarField;
    location    "10260";
    object      nut;
}
// * * * * * * * * * * * * * * * * * * * * * * * * * * * * * * * * * * * * * //

dimensions      [0 2 -1 0 0 0 0];

internalField   nonuniform List<scalar> 
526318
(
0.000104629
0.00012799
0.000158156
1.77498e-05
0.000128124
0.0001146
0.000198418
0.000142017
0.000195882
0.000117723
8.84813e-05
0.000108238
7.82362e-05
4.76377e-05
5.19356e-05
9.17068e-05
5.95273e-05
0.000165806
9.98849e-05
0.000119321
8.35206e-05
9.79406e-05
0.000158818
0.000169659
5.58758e-05
8.76737e-05
4.88847e-05
0.000179506
0.000173213
0.000115261
0.00010364
7.52096e-05
0.000163119
0.000100453
0.000127726
0.000118347
0.000114187
5.32453e-05
0.000110918
0.000116206
4.20589e-05
0.000108391
3.70366e-05
6.90007e-05
0.000160569
8.88231e-05
9.53659e-05
8.12988e-05
0.000128539
0.000125876
4.58562e-05
3.15429e-05
9.0455e-05
0.000100874
0
3.76724e-05
0.000171011
6.80893e-07
8.75098e-05
0.000146074
0.000121315
4.72222e-05
0.000124362
0.000123721
0.000137014
0.000104301
0.000215246
0.000102333
0.000145784
0.00020107
0.000122873
6.30943e-05
0.000132228
0.0001552
4.46811e-05
4.74902e-05
0.000220925
0.000243797
0.000199115
0.000173885
0.000258623
0.000232507
0.000196033
0.000282106
0.000199432
7.84618e-05
0.000109228
0.000116019
6.55337e-05
0.000119365
4.41968e-05
7.85568e-05
6.20899e-05
2.97651e-05
3.98847e-05
4.21929e-05
2.01882e-05
1.63848e-05
4.06862e-05
4.9397e-05
0
0
0
0
0
0
8.02151e-05
3.19351e-05
0.000102686
0.000133012
7.72073e-05
0.000140479
0.000144103
0.000107058
2.10185e-05
0.000115835
0.000126603
0.000174895
0.000115881
4.62737e-05
8.93547e-06
1.13705e-05
1.55189e-05
3.48739e-05
2.62664e-05
2.42005e-05
3.12284e-05
2.17884e-05
1.97351e-05
3.71713e-05
3.92217e-05
2.0007e-05
2.87711e-05
3.8197e-05
4.43825e-05
2.74912e-05
2.3985e-05
1.02649e-05
3.70652e-05
1.31083e-05
1.16053e-05
1.17349e-05
4.82147e-05
4.87679e-05
9.81197e-06
3.10881e-05
6.98723e-06
3.13741e-05
2.01136e-05
2.78228e-05
2.2763e-05
7.09838e-05
1.85919e-05
4.15514e-05
2.46787e-05
2.33201e-05
2.90215e-05
2.16985e-05
3.36822e-05
0
8.97813e-06
9.5719e-06
5.16827e-05
0.000198776
8.95924e-05
0.00023197
5.58254e-05
0.000167026
5.55779e-05
9.96039e-06
0.0001735
0.000137637
0.000200323
0.000186554
0.000199204
0.000130691
0.000110776
4.74845e-05
1.59523e-05
3.60206e-05
4.59785e-05
4.26317e-05
4.88941e-05
2.76918e-05
6.98069e-05
3.4635e-05
1.57604e-05
1.8944e-05
2.89455e-05
4.66936e-05
1.18808e-05
6.15145e-06
4.59633e-05
3.60733e-05
4.91564e-05
4.70319e-05
2.97725e-05
3.10485e-05
2.16908e-05
2.28416e-05
3.55101e-05
3.61501e-05
3.67943e-05
4.23884e-05
2.68824e-05
2.00671e-05
1.07873e-05
3.19233e-05
6.45306e-05
4.64058e-05
0.000196493
0.000262344
0.000231163
0.000191501
0.000166006
4.0698e-05
0.000111848
0.000103818
8.75574e-05
7.68562e-05
3.45201e-05
0.000126162
0.000120599
6.09461e-05
0.000104201
1.51195e-05
1.49609e-05
5.17903e-05
8.62035e-06
0
0
0
0.00012046
0
0
0
0
0
0
0.00011449
0.000209195
0.00021103
0.000146444
0.000114698
0.00015246
0.000164427
0.000232879
0.000259015
0.000214358
0.000167567
0.00018298
8.71785e-05
0.000116042
6.85036e-05
5.63017e-05
5.1964e-05
3.74018e-05
4.78853e-05
2.14772e-05
3.13896e-05
9.2271e-06
0
0
0
0
0
0
0
0
0.000191293
0.000123975
0.000124105
0.00011691
4.42854e-05
0.000143144
4.57747e-05
0.00011115
0.000101125
7.66311e-05
0.000146166
7.25685e-05
4.93163e-05
9.67032e-06
3.44897e-05
2.91753e-05
3.39647e-05
1.5357e-05
7.98951e-06
1.15574e-05
4.17557e-06
1.71979e-05
2.27104e-05
8.06644e-06
0
6.64931e-06
1.90991e-05
4.43524e-05
7.92809e-05
5.38392e-05
4.92557e-05
2.9357e-05
0
0
3.78691e-05
9.63964e-05
7.63435e-06
2.25554e-05
5.80812e-05
5.01334e-05
2.17581e-05
0
0
0
0
0
0
2.9612e-05
5.83664e-05
3.27034e-05
8.71069e-05
4.5014e-05
0.000147014
0.000111363
0.000156514
5.50987e-05
0.000147124
0.000187192
0.0001188
0.00023362
0.000106082
0.000225333
0.000101598
8.54566e-05
1.27856e-05
8.21536e-06
5.89174e-05
4.79868e-05
6.30413e-05
6.72412e-05
3.64835e-05
2.41974e-05
2.97836e-05
9.76536e-06
1.10474e-05
3.9288e-05
3.37107e-05
4.15291e-05
1.53442e-05
6.04292e-06
3.71644e-05
6.78148e-05
2.38956e-05
5.60182e-05
2.17491e-05
4.6595e-05
4.73444e-05
0.000102308
3.751e-05
3.54326e-05
4.0896e-05
2.3458e-05
9.84757e-05
8.82457e-05
7.62462e-05
2.51021e-05
6.27294e-05
0.000125543
5.01447e-05
3.83613e-05
0.000117295
0.000163746
3.58616e-05
6.12371e-05
8.68409e-05
8.7709e-05
4.41726e-05
7.58024e-05
3.19293e-05
6.12835e-05
7.11484e-05
9.97329e-05
0.000246542
2.63835e-05
0.000197022
5.06151e-05
6.56464e-05
2.27395e-05
8.01147e-05
1.99715e-05
1.64628e-05
2.79216e-05
5.16809e-05
1.61014e-05
7.06546e-05
5.37039e-05
5.17513e-05
5.9487e-05
7.27362e-05
0.000118274
0
0
0
0
0
0
0
0
0
0
0
0
0
0
0
0
0.000123923
0.000116959
0.000139577
7.82525e-05
0.000161227
9.99577e-05
0.000195928
0.000146359
0.000118438
0.000136358
7.25783e-05
8.58065e-05
2.61021e-05
5.79028e-05
4.36374e-05
5.64805e-05
4.9682e-05
1.49419e-05
3.28589e-05
3.26386e-05
2.30537e-05
4.23486e-05
0
4.24209e-09
2.62379e-10
0
0
0
0
0
8.42004e-10
4.34538e-09
0
0
0
0
0
0
0
0
0
0
0
0
0
0
5.02125e-06
0
5.54401e-05
0.000173187
8.05096e-05
0.000150606
0.000151827
7.27297e-05
6.74593e-05
8.13257e-05
0.000130124
5.99213e-05
0.000148547
2.18345e-05
6.20328e-06
1.66877e-05
2.15469e-05
9.13334e-06
3.9609e-05
2.40327e-05
1.7443e-05
4.26784e-06
8.36306e-06
1.41127e-05
7.77965e-06
6.96544e-06
0
0
1.49168e-05
1.70149e-06
0
1.60636e-05
7.04389e-06
1.13291e-05
0
0
0
0
0
0
0
0
0
0
0
6.09757e-05
6.88655e-05
1.63908e-05
9.95654e-05
3.74798e-05
1.42077e-05
1.75548e-05
8.43418e-05
1.69842e-05
0.000149339
5.87791e-05
8.24221e-05
7.35779e-05
2.01174e-06
0.000121126
0.000190675
4.03771e-05
7.74212e-05
0.000123009
0.00016087
0.000103795
0.000200015
0.000198797
0.000204439
0.000177913
0.000273321
0.000134767
5.71582e-05
7.71519e-05
4.31824e-05
2.84383e-05
2.21742e-05
1.03874e-05
0
0
2.02193e-05
1.14234e-05
8.13913e-06
1.5894e-05
6.06306e-05
4.72923e-05
9.53711e-06
3.12849e-05
9.4414e-06
5.87783e-05
4.98983e-05
6.21969e-05
4.48753e-05
6.26785e-05
7.8634e-05
1.93725e-05
8.45015e-05
5.28741e-05
8.26639e-05
3.12118e-05
3.27006e-05
6.8736e-05
6.90692e-05
8.41946e-05
1.58017e-05
3.51897e-05
6.11105e-05
3.00354e-05
4.75581e-05
0.00010404
4.81199e-05
6.81973e-05
7.13569e-05
4.36115e-05
7.84832e-05
8.52053e-05
0.000111205
7.06869e-05
0.000111843
0.000141739
7.73509e-05
2.87296e-05
1.56005e-05
4.54202e-05
3.01818e-05
9.16364e-05
0.000138191
0.000145558
0.000297354
7.79807e-05
8.42873e-05
0
0
4.8135e-05
0.00012963
4.51313e-05
7.2531e-05
9.33728e-05
6.31589e-05
3.6061e-05
2.61881e-06
0
0
0
0
0
0
0
0
0
0
0
0
0
0
0
0
0
0
0
0
0
0
0
0
0
0
2.41236e-09
0
6.78844e-11
0
1.07326e-09
2.62013e-09
0
0
0
0
0
0
0
0
0
0
0
0
0
0
3.64153e-05
8.27626e-05
0.000174216
5.801e-05
8.71716e-05
6.55685e-05
9.58605e-05
4.41447e-05
2.58718e-05
4.01343e-05
5.51424e-05
3.57198e-05
3.11755e-05
5.80303e-05
3.64874e-05
6.59624e-05
5.80061e-05
3.99252e-05
1.29152e-05
3.3343e-05
2.50304e-05
1.43806e-05
0
0
0
0
0
0
0
0
0
0
0
0
0
0
0
0
0
0
0
0
0
0
0
0
0
0
0
0
0
0
0
0
0
0
0.000100389
1.00187e-05
0.000139863
0.000237848
0.000128319
0.000133353
0.000144071
0.000123387
0.000103312
0.000101604
0.00016308
0.000141555
0.000118242
0.000182288
8.46918e-10
0
0
0
0
0
0
0
0
0
0
0
0
0
0
0
0
1.96336e-05
5.84199e-05
3.02994e-05
2.97954e-05
1.20656e-05
4.10271e-05
4.85105e-06
5.84055e-06
0
0
0
0
0
0
0
0
0
0
0
0
0
0
0
0
0
0
0
0
0
0
0
0
0.000133606
0.000111187
7.24926e-05
0.00016757
3.65803e-05
6.83097e-05
0.000199305
0.000185042
0.000139322
0.000261699
2.58824e-05
5.1347e-05
0.000120978
1.06708e-05
0.000156332
6.77837e-05
5.82049e-05
0.000125699
0
2.38043e-05
6.49105e-05
0
0.00016812
0.000202101
4.17592e-05
0.000154382
0.000182158
0.000187004
0.000125468
0.000187618
0.000281156
0.000123047
0
8.44957e-05
5.58554e-05
1.14473e-06
0
0
0
0
0
1.42215e-06
3.74462e-05
1.63694e-06
5.25998e-05
4.04361e-05
3.81584e-05
1.63065e-05
2.50505e-05
4.44309e-05
8.03388e-05
6.00311e-05
4.36657e-05
8.81766e-05
6.51544e-05
4.75517e-05
6.29233e-05
4.21899e-05
9.19136e-05
2.21059e-05
8.95347e-05
7.08725e-05
5.98313e-05
7.79383e-05
5.91254e-05
2.77925e-05
6.20295e-05
0.000105503
4.01082e-05
7.75345e-05
5.37277e-05
0.000100731
3.32248e-05
9.28238e-05
0.000145849
0.000145638
0.000153959
0.000133934
0.000150589
0.000127685
0.000162726
0.000171835
0.000247749
0.000278708
0.000219287
0.000228376
0.000238018
0.000262066
0.000295137
0.000192678
0.000230753
0.000223114
0.000224746
0.000173858
0.000208994
0.000227273
0.000221784
0.000241436
0.000233083
0.000225217
0.000260164
0.000271456
0.000248212
0.000288693
0.000252186
0.000279446
0.000266083
0.000348923
0.000242317
0.000345988
0.000242959
0.000247364
0.000359344
0.000279564
0.000334163
0.000261724
0.000365131
0.000270863
0.000325288
0.000266079
0.000225413
5.21737e-05
4.3538e-05
6.59188e-05
3.87314e-05
7.99278e-05
5.58361e-05
6.86022e-05
3.20913e-06
5.25473e-05
0
0
0
0
0
0
0
3.58189e-05
0
0
0
0
0
0
0
0
0
0
0
0
0
0
0
0
0
4.12747e-09
0
0
0
0
0
0
0
0
3.27409e-09
0
0
0
0
0
0
0
0
0
0
0
0
0
0
5.65853e-10
8.17221e-11
0
0
1.32907e-10
0
0
0
0
0
1.83729e-10
1.10246e-09
0
2.6122e-10
0
0
0
0
0
0
0
0
0
0
0
0
0
0
0
0
0
0
0
0
3.24012e-09
0
0
6.23232e-05
5.90411e-05
7.42874e-05
0.000195417
8.57561e-05
4.64515e-05
4.82369e-05
9.3327e-05
4.80351e-05
3.30629e-05
3.14881e-05
3.45451e-05
2.40617e-05
6.16507e-05
1.48869e-05
1.37657e-05
7.5729e-05
4.6432e-05
7.30765e-05
1.23997e-05
6.62398e-05
3.37339e-05
0
0
9.96585e-10
7.20753e-10
0
0
0
0
1.69728e-09
0
0
0
0
0
0
0
0
0
0
0
0
0
3.93691e-09
3.20747e-09
0
0
0
0
1.46829e-05
0
3.28786e-05
0.000133997
0.000159678
0.000151144
0.000183129
0.000153087
0.000151999
0.000221625
0.000190438
0.000175864
0.000215019
0.0002084
0.000163276
0.000145455
1.09989e-09
0
0
0
0
3.65833e-11
0
0
1.90936e-11
0
0
0
0
0
0
0
0
0
5.10625e-09
0
0
0
0
0
2.74855e-07
0
3.34147e-05
3.07284e-05
4.63389e-05
3.34589e-05
0
0
0
0
0
1.95518e-09
0
0
0
0
0
0
0
0
1.98085e-08
1.86223e-08
0
0
0
0
0
0
0
0
0
0
4.04858e-10
0
0.000130874
0.000254531
9.55967e-05
0.000126722
0.000107363
0.000149863
0.000131315
0.000166041
0.000276888
0.000179544
0.000146821
0.000301095
0.000184988
0.000263689
0.000272131
0.000251212
0.000258877
0.000277553
0.000259884
0.000306826
0.000360469
0.000272258
0.000347587
0.000288641
0.000261022
0.000284644
0.00026246
0.000280764
0.000289082
0.000312944
3.94202e-05
5.43189e-05
4.87615e-05
0.000109653
7.17043e-05
2.73854e-05
4.94212e-05
9.99321e-05
0
1.06892e-05
0
1.29429e-05
0
5.09488e-05
0.000228875
0.000238512
0.00019675
6.70775e-05
0.000241777
1.05345e-06
0
0
0
0
0
0
0
0
0
0
0
0
4.01237e-06
0
1.29842e-05
6.46708e-06
1.96039e-05
4.69549e-05
5.31916e-05
4.48224e-05
1.40519e-05
6.65253e-05
6.71164e-05
6.2183e-05
4.72501e-05
3.65185e-05
2.71022e-05
1.04907e-05
5.42829e-05
3.03521e-05
0.000109001
9.21749e-05
4.82502e-05
0.000113266
6.19283e-05
3.51474e-05
5.13941e-05
0.000109845
6.26921e-05
9.86995e-05
0.000152899
0.000107245
9.23043e-05
0.000154652
0.000126764
0.000110758
0.000126837
0.000197784
0.000228705
0.000140206
0.000260628
0.000154665
0.000271361
0.000196621
0.000167602
0.000194168
0.000202209
0.000221657
0.000245566
0.000253429
0.000282466
0.000298057
0.000284023
0.000313313
0.000263641
0.000373189
0.000243256
0.000367929
0.000224073
0.00014437
0.000350315
0.000293213
0.000218458
0.000105402
0.000148754
0.000209806
0.000185121
5.77233e-05
0.000165448
9.25994e-05
0.000154897
5.5625e-05
0.000173061
0
0
0
3.8568e-05
0
1.43663e-05
5.2496e-05
5.52738e-05
6.23463e-05
0
0
0
0
8.40203e-07
0
0
0
0
0
5.6384e-09
4.33132e-09
0
0
0
1.32324e-08
0
0
0
0
8.50786e-09
1.8345e-08
0
0
0
5.04276e-09
0
0
0
0
0
0
0
3.6161e-09
0
0
0
0
0
0
0
0
3.0186e-11
0
0
0
0
0
0
0
0
0
0
0
0
0
0
1.28968e-10
0
0
0
0
0
0
0
0
0
0
0
0
0
0
0
0
0
0
8.54793e-05
9.09082e-05
9.21214e-05
0.000166266
0.00010839
2.71246e-05
3.05893e-05
6.87215e-05
2.23018e-05
5.42562e-05
1.77285e-05
2.08082e-05
5.75509e-05
5.85974e-05
3.50362e-05
1.98257e-05
2.11979e-05
9.06728e-06
3.64725e-05
3.11757e-05
7.60011e-05
5.55693e-05
5.67689e-10
0
2.95455e-11
0
0
0
0
0
0
0
0
0
0
0
0
0
0
0
0
0
0
0
0
0
0
0
0
0
8.05902e-05
0
6.9394e-05
0.000117769
6.81728e-05
0.00011173
0.000153685
0.000180476
0.000229972
0.000138751
0.000176426
0.000171388
0.000110033
8.60757e-05
0.000140713
0.000203734
0
0
0
0
0
0
0
0
0
0
0
0
0
0
0
0
0
0
0
0
0
0
2.27926e-07
0
0
0
0
0
0
0
0
1.90461e-05
1.58484e-05
0
0
0
0
0
0
3.86974e-05
8.5132e-06
0
0
0
0
0
4.42088e-10
7.09177e-10
0
0
0
0
0
0
0
0
0
0
0
0
0
0
0
0
0
0
9.13009e-05
0.000119286
8.11867e-05
1.77297e-05
5.06601e-05
5.11647e-05
8.96056e-05
7.67483e-05
0.000100051
6.80089e-05
0.000168961
9.8295e-05
9.06426e-05
6.88128e-05
8.66196e-05
0.000116592
0.000134008
4.34924e-05
7.18369e-05
0.000108023
9.93212e-05
2.07702e-05
4.21907e-05
7.32504e-05
0.00012036
5.42342e-05
0.000114659
0.000129513
8.02159e-05
0.000275966
0.000251633
0.000243837
0.000279429
0.000237016
0.000246027
0.000134047
0.000206284
0.000133252
0.000128397
0.000107616
0.000175052
0.000145489
0.000141042
0.000331321
0.00016217
0.000274473
0.000159602
0.00025203
0.000217366
0.000281636
0.000299647
0.00030294
0.000292323
0.000363841
0.000302634
0.000395259
0.000333888
0.000381602
0.000351905
0.000293424
0.0002937
0.000356327
0.000351704
7.22801e-05
3.92857e-05
5.76395e-05
6.99596e-05
0.000113142
0.000128868
3.29933e-05
3.52261e-05
0.00012406
0
0
7.98313e-05
0.000114396
0.00011044
7.07651e-05
6.41965e-05
3.20998e-05
4.08334e-05
2.01077e-05
4.85338e-05
5.73208e-05
7.25908e-05
6.89835e-05
6.02854e-05
7.86593e-05
5.98532e-05
0.000180086
0.000122256
9.96072e-05
0
0
1.29912e-09
5.18233e-05
0
0.000220267
0.000216629
1.03979e-06
8.38821e-10
0
2.33931e-09
3.6494e-09
0
0
0
0
0
0
0
0
0
0
7.27991e-09
0
2.1872e-05
0
7.61848e-05
2.94266e-05
4.51921e-05
9.23065e-05
4.58186e-05
3.85153e-05
3.85642e-05
0.000102394
0.000118956
4.83875e-05
7.63663e-05
3.60344e-05
4.02586e-05
8.28611e-05
9.76433e-05
0.00011075
0.000152811
4.71846e-05
0.000107924
8.48589e-05
0.000112738
9.02515e-05
9.82692e-05
0.000100653
0.00018269
7.78859e-05
8.35373e-05
0.000189331
0.000167389
0.000132782
0.000203902
0.000142658
0.000192003
0.000132162
0.000238292
0.000198174
0.00018899
0.000229751
0.000210201
0.000236063
0.000276602
0.000264915
0.00033779
0.000289579
0.000303905
0.000324451
0.000280197
0.000341525
0.00031052
0.000226741
0.000166198
0.000112386
0.000304532
0.000250546
6.63114e-05
0.000188191
3.37176e-05
0.000269152
7.90824e-05
0
0
1.27477e-06
0
0
0
0
0
0
0
0
0
0
0
3.90805e-09
0
0
0
0
9.11488e-09
0
0
0
0
0
0
0
0
9.4795e-10
1.05675e-09
1.25663e-08
0
8.95335e-10
0
0
0
0
0
0
0
0
0
3.45386e-09
0
0
0
0
0
0
0
0
2.76133e-07
0
0
0
0
0
0
0
0
0
0
0
0
3.07736e-10
0
0
0
0
2.65857e-10
0
0
0
0
0
0
0
0
0
0
0
0
0
0
0
0
0
0
0
2.45082e-09
0
0
0
0
2.82942e-09
7.55301e-05
8.36317e-05
0.000250197
0.000194084
6.06277e-05
0.000131272
5.28579e-05
8.67362e-05
9.09011e-05
5.31029e-05
4.29726e-05
7.60297e-05
7.35202e-05
1.32759e-05
6.18483e-06
4.53617e-05
2.94557e-05
2.92889e-05
5.53682e-05
1.99189e-05
3.65315e-05
1.61499e-05
3.4229e-05
8.6734e-06
1.28337e-05
0
0
0
0
0
0
0
0
0
0
0
0
0
0
0
0
0
0
0
0
0
0
0
0
0
0
0
9.69231e-06
3.08313e-05
5.14462e-05
2.29152e-05
0.000103816
0.000102799
0.000136346
9.73308e-05
7.55843e-05
0.000120999
4.51151e-05
0.000103578
0.000162194
0.000102552
8.29342e-05
0.000118522
0
2.84253e-10
0
0
0
0
0
0
0
0
0
0
0
0
0
0
0
0
0
0
0
0
0
0
0
0
0
0
0
0
0
0
0
0
0
0
0
1.59347e-05
1.05492e-05
1.08812e-05
0
0
0
0
0
0
0
0
0
0
0
0
0
0
0
0
0
0
0
0
0
0
0
0
0
0
0
0
0
0
0
0
0
0
3.66131e-06
3.19789e-05
8.06469e-05
7.84668e-05
0.000175102
0.000284095
8.0652e-05
0.000243638
0.00021742
0.000155192
0.000114396
0.000153308
0.000115061
0.000133729
9.1027e-05
0.000161756
0.000275738
0.000308082
0.000316768
0.000273772
0.00028767
0.000263889
0.00017917
0.000169111
8.44312e-05
0.000162252
0.000159083
4.46372e-05
0.000186042
0.00013171
0.000267141
0.000248358
0.000211798
0.000220128
0.000224879
0.000272688
0.000248548
0.000174752
0.000269179
0.000293439
0.000324402
0.000347291
0.000337795
0.000394349
0.000381344
0.000420869
0.000432549
0.000432298
0.000440099
0.000318413
0.000337461
0.000436368
0.000404601
3.03777e-05
2.75363e-05
4.40857e-05
0.000129603
2.53672e-05
7.2076e-05
4.62419e-05
0.000114059
5.71427e-05
2.92915e-05
0
2.79595e-06
9.81286e-05
4.95896e-05
0.000133686
7.29974e-05
8.06218e-05
5.96698e-05
5.97369e-05
5.48104e-05
6.98679e-05
2.61826e-05
5.74659e-05
4.75554e-05
1.42817e-05
2.82317e-05
0.000108759
0.000152678
2.32273e-05
0.000183668
0.000205918
6.49792e-05
7.16077e-05
3.6653e-05
0.000202747
0.000146237
0.000190627
2.08497e-09
5.07946e-09
2.72481e-09
0
0
0
0
0
0
0
0
0
0
2.25874e-09
0
1.05642e-09
0
0
0
0
3.05477e-09
0
0
0
1.16727e-05
2.65029e-05
0
4.41359e-06
2.94805e-05
1.59429e-05
2.43524e-05
7.97593e-05
0.000138028
4.84355e-05
6.23815e-05
9.80765e-05
0.000110487
9.95305e-05
0.000172917
9.47701e-05
0.000159723
0.000139902
0.000139987
0.00018602
9.33098e-05
0.000137968
0.000143401
0.000197323
0.000188338
6.05187e-05
0.000148544
0.000155875
0.000174702
0.000145969
0.000230235
0.000171107
0.000217607
0.00017763
0.000284178
0.000289567
0.000236535
0.000293841
0.000262365
0.000335903
0.000296746
0.000308232
0.000382408
0.000356331
0.000315012
0.000306203
0.000280346
0.000224676
0.000280736
8.35793e-05
0.000120526
6.64598e-05
0.000109618
3.32972e-05
0.000281655
8.00048e-05
0.000428613
0.000276497
0
0
0
0
0
0
0
0
0
0
0
0
0
0
0
0
0
0
0
0
0
0
0
0
0
0
0
0
2.31985e-09
5.91925e-10
0
0
0
0
0
0
0
0
0
0
0
0
2.83182e-07
0
0
0
0
0
2.31986e-09
0
0
2.38884e-07
0
0
0
1.60732e-09
1.32567e-09
0
0
0
0
0
0
0
6.818e-10
2.52493e-10
0
0
7.05092e-11
7.17962e-10
0
0
0
0
3.29728e-09
0
4.5911e-09
0
0
0
0
0
0
0
0
0
0
0
0
0
0
0
0
0
1.50672e-09
0
0
0
0
0
0
0
0
2.08688e-05
0.000335757
0.000160934
0.000269391
0.000203136
0.000222343
0.000158819
0.000176356
0.000161237
0.000168424
0.000134803
2.76633e-05
7.09775e-05
8.83429e-05
4.20668e-05
5.06238e-05
4.89669e-05
3.31043e-05
2.69197e-05
3.92376e-05
5.15624e-05
3.21766e-05
6.55584e-06
3.58907e-05
4.12285e-06
4.57367e-06
6.13583e-06
0
0
0
0
0
0
0
8.15965e-10
3.5045e-05
0
0
0
0
0
0
0
0
0
0
2.50261e-11
0
0
0
0
0
0.000137101
4.50843e-05
5.19072e-05
8.38941e-05
4.61405e-05
4.84056e-05
5.31447e-05
6.70503e-05
4.96614e-05
4.1313e-05
6.21412e-05
0.000119226
8.35397e-05
7.53116e-05
5.26726e-05
6.23825e-05
0
0
2.67509e-10
0
0
0
0
6.37125e-11
0
0
0
6.89699e-09
0
0
0
3.7283e-09
0
0
0
4.33061e-09
0
0
0
0
0
0
0
0
0
0
1.92711e-09
0
0
0
0
0
0
0
0
0
0
0
0
0
0
1.01465e-05
2.37998e-05
6.59479e-06
0
0
0
0
0
0
4.27882e-10
0
0
9.53099e-10
0
0
0
0
0
0
0
8.03026e-10
0
0
0
0
0
0
0
8.36376e-10
0
9.61076e-10
0
0
0
0
0
0
0
1.11928e-09
0.000123964
7.59372e-05
0.000211177
0.000155019
0.000338113
2.48402e-05
0.000257061
0.000264883
0.000351085
0.000404516
0.000315041
0.000138836
0.000329738
0.000269571
0.000188923
0.000249008
0.000160705
0.000164963
0.000205996
0.000116795
0.000221995
9.5177e-05
0.000273859
0.000335664
0.000292161
0.000323876
0.000294857
0.000324201
0.000188744
0.000248135
7.59666e-05
8.59248e-05
8.39512e-05
7.41253e-05
7.97283e-05
0.000127333
0.000176565
0.000243181
0.00019271
0.000249229
0.000233811
0.000291342
0.000280499
0.000232863
0.000333075
0.000311963
0.000392645
0.000375523
0.000411685
0.000450134
0.000447717
0.000470904
0.000475796
0.00048935
0.000390226
0.000340456
0.000443594
0.000499131
3.40773e-05
1.70046e-05
8.61069e-05
0.000110634
5.32428e-05
2.29594e-05
4.2844e-05
4.15023e-05
4.40733e-05
6.81009e-05
3.74287e-05
0
6.00334e-05
0.000338833
5.29548e-05
4.38481e-05
0.000116241
7.00054e-05
2.20622e-05
6.95735e-05
5.00731e-05
5.85177e-05
8.18288e-05
0.000106555
5.28602e-05
9.28464e-05
6.65583e-05
0.000149407
0.00015314
0.000168481
0.000197332
0.000149319
0.000204659
8.94261e-05
8.67064e-05
0.000215143
0.000210556
0
0
0
0
0
0
0
0
0
0
0
0
0
0
0
0
3.09178e-09
0
0
0
0
0
0
0
2.61441e-05
2.71876e-05
1.18329e-05
0
5.3211e-05
6.78818e-05
8.8764e-05
2.68541e-05
2.6872e-05
9.22639e-05
0.000111318
0.000131648
0.000206076
0.000190371
0.000228559
0.000220864
0.000233246
0.000217003
0.000224036
0.000277648
0.000179714
0.000217692
0.00025182
0.000250255
0.000220159
0.000155629
0.000250906
0.000221638
0.000298166
0.000246717
0.000259637
0.000211421
0.00027794
0.000357932
0.000366137
0.000340228
0.000426186
0.000380287
0.00044045
0.000368322
0.00038961
0.000359521
0.000298559
0.000332208
0.000284043
0.000223745
6.60481e-05
0.000118927
0.000165082
9.07718e-05
0.000273485
8.50855e-05
4.46221e-05
0.000105368
0.000483507
0
0
1.06472e-07
4.46838e-11
0
0
0
0
0
0
0
9.51015e-10
0
2.33803e-09
2.08357e-09
3.63935e-09
1.9196e-09
0
6.07979e-09
2.67613e-07
0
0
0
1.7475e-09
0
1.84944e-09
1.14172e-09
0
0
0
0
0
0
0
0
2.48631e-11
0
0
0
0
0
0
2.65918e-07
0
0
0
0
0
0
0
0
0
0
0
0
0
0
0
0
0
0
0
0
0
0
0
0
0
0
0
0
0
0
0
0
0
0
0
0
0
0
0
0
0
0
0
0
0
0
0
0
0
0
0
0
0
0
0
0
0
0
0
0
0
0
0
0
0
0
0
0
0
4.15834e-11
0
0
0
0
0.00010424
0.000182787
0.000187563
5.36509e-05
0.000195703
0.000216261
7.65182e-05
0.000191964
0.000291751
0.000211851
0.000145493
0.000157505
0.00022375
0.000365143
0.000307876
0.000100403
9.02474e-05
6.30484e-05
4.4153e-05
3.23161e-05
4.23089e-05
2.6776e-05
2.85091e-05
1.10394e-05
1.29278e-05
3.05042e-05
4.59882e-06
4.42533e-06
2.45797e-05
0
0
0
0
0
5.35158e-05
0
0
0
0
0
0
0
0
0
0
0
9.03617e-09
8.01615e-09
0
7.47423e-09
0
0
0
9.71915e-05
9.15971e-05
3.5993e-05
4.13858e-05
9.40033e-05
3.90205e-05
0.000105447
5.7386e-05
7.89803e-05
6.78008e-05
2.68012e-05
4.75405e-05
0.000105373
2.21202e-05
0.000111692
3.07926e-05
0
8.99747e-10
0
0
0
0
0
4.26581e-11
0
0
4.44571e-11
0
0
0
9.8303e-10
0
0
0
0
0
0
0
0
0
0
0
0
0
0
0
0
0
0
0
0
0
2.4089e-10
0
1.39474e-09
0
0
0
0
0
0
0
0
0
0
0
0
0
0
0
0
0
0
1.88736e-05
0
0
0
0
0
0
0
0
0
0
0
0
0
0
0
0
0
0
0
0
0
0
0
0
0
0
0
0
0
0
0
0
1.53016e-08
1.32891e-08
0
0
0
0
0
0
0.000150015
0.00013982
4.52564e-05
0.000340592
0.000358299
0.000590987
0.000511636
0.000565776
0.000425245
0.000247745
0.000189071
0.000366547
0.00027182
0.000276154
0.000271506
0.000161005
0.000254212
0.00015917
0.000281426
0.000310765
0.000298257
0.000368551
0.000323622
0.000345027
0.000351005
0.000342502
0.000336824
0.000115108
0.000209947
3.34892e-05
7.77682e-05
2.44659e-05
9.15604e-05
3.4071e-05
7.40246e-05
0.000244785
0.00024091
0.000284069
0.000187381
0.000311818
0.000337733
0.000309576
0.000327198
0.000364864
0.000393603
0.000446038
0.000397368
0.000424981
0.000478861
0.000464576
0.000498252
0.000530226
0.000506814
0.000419936
0.000435144
0.000535477
0.00050442
1.00584e-05
6.19466e-05
8.15981e-05
0.000134851
8.13929e-05
0.00011479
0.000168721
7.28623e-05
2.93213e-05
2.74079e-05
3.59066e-05
0
0
0
0
0.000188433
0.000241186
0.000165616
0.000143594
8.90875e-05
0.000143005
0.000204176
0.00013626
1.06536e-05
0.000109879
0.000153986
1.52149e-05
0.000107759
9.1766e-05
0.000147767
0.000226252
0.000213398
0.00017989
0.00026009
0.00020791
0.000224941
0.000208122
0.000122649
9.92248e-05
0.000208776
0.000137142
0
0
0
0
0
4.76234e-09
3.04306e-09
0
0
0
0
3.87822e-09
1.45615e-09
0
0
0
0
0
0
0
0
0
0
0
0
4.48648e-06
3.82065e-05
0
0.000104307
7.7249e-05
3.37837e-05
5.8545e-05
0.000122234
2.91345e-05
0.000135942
0.000175257
0.000170157
0.000234882
0.000229992
0.000294309
0.000283638
0.000276661
0.000260451
0.000288529
0.000236065
0.000252274
0.000282779
0.000283723
0.000333137
0.000249923
0.000300928
0.000267777
0.000321597
0.000367824
0.000409324
0.000257696
0.000384918
0.000436388
0.000469408
0.000474723
0.000505701
0.000477521
0.000462177
0.000427012
0.000401247
0.000357539
0.000318609
0.000275081
5.62696e-05
0.000140081
0.00016598
8.21417e-05
0.000185245
7.41003e-05
7.02832e-05
0.000212851
0.000280721
0.000283046
0
0
0
0
0
0
0
0
0
3.88445e-09
0
0
0
3.06598e-09
3.27787e-09
6.58594e-09
5.7658e-09
3.7162e-09
2.95161e-09
0
0
0
0
0
0
0
0
0
0
0
0
0
0
0
0
3.12434e-11
0
0
0
5.26911e-07
0
0
0
0
0
0
0
0
0
0
0
0
0
0
0
0
0
0
1.18011e-07
0
0
0
0
0
8.17185e-10
5.22673e-10
1.40323e-09
0
0
0
0
0
0
0
0
0
0
0
0
0
0
0
0
0
0
0
0
0
0
0
0
0
0
0
0
0
0
0
0
0
0
0
0
0
0
0
0
0
2.56227e-09
0
8.05065e-10
0
0
3.42275e-10
0
0
0.000143478
0.000221495
0.000154856
0.000153444
0.000143699
0.000160912
0.000264036
0.000491036
0.00017088
0.00018658
0.00022579
0.000314723
0.000188705
0.000107777
0.000225859
0.000457065
0.000295326
9.74799e-05
0.000330154
3.76632e-05
7.63991e-05
7.61598e-05
3.82719e-05
0.000101591
1.13567e-05
1.7952e-05
3.61866e-05
5.47159e-05
4.70958e-06
2.74125e-05
9.18558e-06
3.72315e-05
1.93954e-05
0
0
0
6.35381e-05
0
0
0
5.39457e-09
0
0
0
0
0
0
0
0
0
0
0
0
5.63022e-09
0
0
0
5.38995e-05
0.000102005
5.88106e-06
6.13772e-05
6.14383e-05
0.000128717
5.39361e-05
4.20998e-05
3.96788e-05
0.000111535
5.48661e-05
0.000110677
5.80481e-05
0
0
0
0
0
0
5.34262e-09
2.24872e-09
0
0
0
0
0
0
0
0
0
1.67281e-07
0
0
0
0
0
0
0
1.4032e-09
0
0
9.6196e-09
0
0
0
0
0
0
0
0
0
0
0
0
0
0
0
0
0
0
0
0
0
0
2.81767e-09
0
0
0
0
0
0
0
0
0
0
0
0
0
0
0
6.89279e-11
0
0
0
1.77788e-09
0
0
0
0
0
0
0
0
0
0
0
0
0
0
0
0
0
0
0
0
0
0
0
0
0
1.4667e-09
0
0
0
0
0
0
0
0
0.00083017
0.000279247
0.000683812
0.000299078
0.000550391
0.000297095
0.000512774
0.00015175
3.9423e-05
0.000188219
0.000106114
0.000188582
0.000145053
0.000334742
0.000332044
0.000246735
0.000308897
0.000218611
0.000268676
0.000165587
4.84287e-05
0.000291886
0.000406781
0.000425982
0.000389293
0.000393487
0.000387865
0.000360655
0.000155414
0.000133354
4.0895e-05
3.89612e-05
0.000116922
7.18487e-05
4.92616e-05
0.000161679
0.000306031
0.000353887
0.000313798
0.000314513
0.000361897
0.000364234
0.000328515
0.000350583
0.000355287
0.000394335
0.000366648
0.0004247
0.000462011
0.000388685
0.000491521
0.000458903
0.000546456
0.000515121
0.000497789
0.000473742
0.000529841
0.000535452
4.31788e-05
3.6002e-05
0.000160409
0.00010194
5.58339e-05
0.000101228
0.000186017
7.13266e-05
1.09745e-05
2.04855e-05
6.20855e-05
2.55002e-05
0
3.8282e-05
0.000267666
4.78666e-05
9.5765e-05
0.000133157
0.000257797
0.000118371
0.000164579
0.000106474
0.000166353
0.000156956
0.000154051
0.000225406
0.000109827
0.000239244
0.000262157
0.00029398
0.000155701
0.000258068
0.000253768
0.000224056
0.000172837
0.000202846
8.23333e-05
0.000179459
0.000264867
0
0
0
0
0
0
0
0
0
4.296e-09
0
0
0
0
0
4.23179e-11
4.89709e-11
0
0
0
0
0
0
0
0
6.81792e-06
7.30493e-06
9.16779e-05
9.92775e-05
9.28811e-05
0.000133124
5.05582e-05
0.000148762
0.000157157
0.000201721
0.000172931
0.000246361
0.00019587
0.000351523
0.000293025
0.000352772
0.000337968
0.000296934
0.000297448
0.000273548
0.000326439
0.000337942
0.00030338
0.000392465
0.000360858
0.000323156
0.000414845
0.000378564
0.000420284
0.000429831
0.000549717
0.000592859
0.000561432
0.000612
0.000608148
0.000528756
0.000578496
0.000463597
0.000497153
0.000385788
0.00038914
0.000184633
0.000198789
0.000110041
0.000152971
0.000105419
0.000232156
0.000249344
0.000100256
0.000107293
0.000251007
0.000272386
0.000151805
0
0
0
0
0
0
0
0
0
1.25793e-09
0
0
0
0
0
0
0
1.29778e-08
0
0
1.3243e-08
0
0
0
1.33814e-07
0
0
0
0
0
1.03413e-09
9.94657e-08
0
0
0
0
0
0
0
0
0
0
0
0
0
0
4.35432e-10
1.57395e-09
1.6228e-09
0
0
0
0
1.02415e-09
0
0
1.22766e-09
0
0
0
0
2.48297e-09
0
7.82079e-10
0
0
0
0
0
0
0
0
0
0
0
0
0
0
0
0
0
0
0
0
0
0
0
0
0
0
0
0
0
0
0
0
0
0
0
0
0
0
0
0
0
0
0
0
0
0
0
0
0
0
0
0
0
8.35659e-10
0
0
0
2.41419e-10
0
0
0.000187921
0.000201358
0.000200028
6.71474e-05
0.000188163
0.000297527
0.000218348
0.000144737
0.000132832
0.000333354
0.000231517
0.000151859
0.000446652
0.0002649
0.000119267
9.56004e-05
0.000184893
0.000415957
4.67777e-05
0.000121247
0.000399854
0.000245084
0.000275155
0.000260584
8.471e-05
4.92072e-05
6.47068e-05
2.64231e-05
2.2044e-05
5.49929e-05
7.91476e-05
3.69579e-05
3.90212e-05
3.94257e-05
7.54031e-05
2.3634e-05
2.22488e-06
0
0
3.16626e-05
0.0001099
0
0
9.46209e-10
0
0
0
0
7.9381e-11
0
0
0
4.64906e-11
0
0
0
4.38286e-10
0
0
0
0
0.000103349
4.96233e-05
8.84203e-05
0.000110947
5.30382e-05
5.8963e-05
0.000111389
0.000108898
3.92613e-05
0.000116163
4.2207e-05
6.99134e-11
0
0
3.44715e-11
0
0
8.19907e-10
5.06612e-10
0
0
0
0
0
0
0
0
4.4153e-07
7.28322e-07
0
0
2.86768e-07
0
2.60711e-09
0
0
0
0
5.61376e-07
0
1.57423e-09
4.35573e-07
0
0
0
0
0
0
0
0
0
0
0
0
0
0
0
0
0
0
6.29527e-09
0
0
0
3.77665e-09
0
0
0
0
0
0
0
0
0
0
0
0
0
0
0
0
0
0
0
0
0
0
4.67748e-10
1.09324e-09
0
0
0
0
0
0
0
0
1.0006e-09
0
0
0
0
0
0
6.752e-10
0
0
0
0
0
0
0
0
0
0
0
0
0
0
1.42261e-09
0
0
0
0
0
0
0
0
0
0.000272337
0.000355862
0.000381996
0.000166685
0.000101347
3.87898e-05
5.51909e-05
0.00011466
4.74127e-05
0.000104737
8.93192e-05
0.000117809
0.000140851
7.57072e-05
0.000178235
0.000345334
0.000380079
0.000276242
0.000332694
0.000272848
0.000303462
0.000328402
0.000157723
0.000226397
0.000424219
0.000454015
0.000434686
0.000401072
0.000372168
0.000105145
0.000317711
3.00707e-05
0.000103838
0.000117678
7.63402e-05
0.00018988
0.000112941
0.000361467
0.000326134
0.000349382
0.000263637
0.00029335
0.000294246
0.000307375
0.000246964
0.000285417
0.00025903
0.00026334
0.000367952
0.000315107
0.000419599
0.000463933
0.00044239
0.000473148
0.00050169
0.000462406
0.000469902
0.000511662
6.36918e-05
9.20711e-06
0.000108592
7.43291e-05
5.39606e-05
0.000203259
2.5629e-05
0.000197619
4.32183e-05
1.42284e-05
6.97431e-05
4.4883e-05
6.28357e-05
7.41415e-05
0.000264238
0.000212348
0.000220938
0.000204624
0.000104959
0.000176829
0.000273152
0.000152552
0.00022108
0.000216468
0.000311727
0.000219645
0.000282634
0.000229957
0.000194949
0.000263382
0.000190804
0.000224356
0.000269958
0.00015853
0.000263323
0.000183888
0.000309343
0.000185467
1.89802e-09
2.24504e-09
3.97958e-09
0
0
0
0
0
0
0
0
0
0
0
0
0
0
0
0
8.96261e-10
1.09755e-09
0
0
0
0
2.18423e-05
5.97095e-05
4.61023e-05
0.000131223
0.000137694
3.35176e-05
0.000121351
0.000203323
0.000198399
0.000218676
0.000232549
0.000358196
0.000344736
0.000452294
0.000415548
0.000393021
0.000398531
0.000383641
0.0003701
0.000371336
0.00033633
0.000433198
0.000370697