/*--------------------------------*- C++ -*----------------------------------*\
  =========                 |
  \\      /  F ield         | OpenFOAM: The Open Source CFD Toolbox
   \\    /   O peration     | Website:  https://openfoam.org
    \\  /    A nd           | Version:  8
     \\/     M anipulation  |
\*---------------------------------------------------------------------------*/
FoamFile
{
    version     2.0;
    format      ascii;
    class       volScalarField;
    location    "12240";
    object      Hclip;
}
// * * * * * * * * * * * * * * * * * * * * * * * * * * * * * * * * * * * * * //

dimensions      [0 1 0 0 0 0 0];

internalField   nonuniform List<scalar> 
526318
(
0.693667
0.650397
0.723284
0.634923
0.699994
0.664223
0.675445
0.595701
0.657164
0.529112
0.515608
0.628945
0.573965
0.620663
0.584478
0.610085
0.576362
0.774836
0.678797
0.732514
0.720691
0.681347
0.43976
0.679234
0.568509
0.43024
0.702106
0.702975
0.706757
0.720822
0.747991
0.79144
0.777041
0.653804
0.65658
0.627558
0.634847
0.726357
0.64475
0.597011
0.648371
0.633545
0.291268
0.346186
0.25841
0.298759
0.276394
0.395456
0.57914
0.469233
0.55945
0.568771
0.514018
0.478097
0.001
0.215692
0.211948
0.0166939
0.734131
0.746151
0.765789
0.714631
0.664926
0.792637
0.784364
0.747787
0.732733
0.734279
0.63463
0.621489
0.743166
0.522934
0.572556
0.467911
0.423885
0.414894
0.512832
0.510177
0.423798
0.463369
0.54168
0.540724
0.495693
0.45596
0.482999
0.550288
0.551924
0.523273
0.47364
0.549272
0.455201
0.401916
0.400415
0.329243
0.324423
0.327573
0.330738
0.327259
0.321356
0.324068
0.001
0.001
0.001
0.001
0.001
0.001
0.236199
0.0415887
0.36477
0.321998
0.363279
0.47664
0.700711
0.596591
0.709819
0.717992
0.785267
0.754874
0.800876
0.318331
0.321142
0.323427
0.32273
0.282016
0.317722
0.228118
0.270059
0.182346
0.233186
0.184805
0.182791
0.17174
0.146399
0.139444
0.169422
0.107951
0.162242
0.110842
0.131365
0.0761171
0.082411
0.105862
0.134594
0.117112
0.0770293
0.0779685
0.0923157
0.0818801
0.0759975
0.0822888
0.0921664
0.0835752
0.0868355
0.0850909
0.0857122
0.0554317
0.0886414
0.0869581
0.0518199
0.00800882
0.0901525
0.0404977
0.090892
0.594892
0.681827
0.626314
0.613712
0.41155
0.480122
0.412803
0.412896
0.414549
0.413303
0.435888
0.413855
0.348991
0.319547
0.28824
0.228398
0.286045
0.327976
0.327058
0.327546
0.214239
0.264447
0.155013
0.164652
0.175631
0.164756
0.165781
0.167756
0.155332
0.158332
0.155774
0.143164
0.126362
0.153158
0.1473
0.120063
0.0985913
0.123899
0.108065
0.0976146
0.126645
0.106311
0.109248
0.0705511
0.0914832
0.116988
0.12026
0.574121
0.581015
0.620789
0.583052
0.576748
0.573518
0.569645
0.44747
0.496052
0.228765
0.221762
0.2071
0.336228
0.473266
0.343594
0.382884
0.383579
0.328227
0.312359
0.001
0.001
0.001
0.150554
0.001
0.001
0.001
0.001
0.001
0.001
0.785627
0.764911
0.812884
0.802399
0.775371
0.768549
0.678203
0.761261
0.603584
0.547323
0.545678
0.550629
0.550604
0.549441
0.53725
0.532471
0.449565
0.517788
0.33318
0.390568
0.317349
0.336318
0.00100536
0.001
0.001
0.00100202
0.001
0.001
0.001
0.001
0.33087
0.148097
0.38093
0.3776
0.487823
0.587088
0.716965
0.713351
0.757174
0.734886
0.795343
0.831462
0.297621
0.299756
0.260306
0.229884
0.130006
0.164345
0.0913599
0.100585
0.0918567
0.0855074
0.0749222
0.0809743
0.00784413
0.0327987
0.0650694
0.10188
0.156062
0.119502
0.0796441
0.0883645
0.0208576
0.0108562
0.0603319
0.110039
0.0399531
0.0765427
0.074131
0.0451757
0.0410479
0.010166
0.00578645
0.001
0.001
0.001
0.001
0.0828545
0.117804
0.0869742
0.117065
0.486839
0.441625
0.338828
0.431926
0.350835
0.406453
0.415169
0.403326
0.414225
0.412668
0.328026
0.241009
0.168458
0.149634
0.229795
0.16881
0.154224
0.264997
0.154318
0.205675
0.144685
0.14635
0.153814
0.148829
0.157046
0.155569
0.152897
0.156708
0.159294
0.154888
0.163079
0.152712
0.171499
0.163566
0.170674
0.142758
0.162954
0.14128
0.119595
0.114328
0.148938
0.174763
0.168657
0.146123
0.126439
0.150044
0.193556
0.192754
0.211841
0.175395
0.202632
0.223022
0.262071
0.209826
0.221211
0.24301
0.266946
0.391968
0.468154
0.388411
0.427168
0.495877
0.558103
0.473128
0.338241
0.453849
0.349569
0.367437
0.106745
0.0510831
0.0834896
0.0685748
0.183852
0.305933
0.236529
0.304551
0.303391
0.326708
0.30475
0.001
0.001
0.001
0.001
0.001
0.001
0.001
0.00100998
0.001
0.00100962
0.001
0.00100889
0.001
0.001
0.001
0.001
0.808472
0.800389
0.834916
0.822079
0.803159
0.774543
0.70492
0.614595
0.550711
0.560263
0.538889
0.538725
0.517607
0.516194
0.496938
0.496511
0.445359
0.488332
0.413486
0.355234
0.302041
0.259646
0.001
0.00107462
0.00107464
0.001
0.001
0.001
0.001
0.00107465
0.00107466
0.00107459
0.00100999
0.00100984
0.001
0.00100942
0.001
0.001
0.001
0.001
0.001
0.001
0.001
0.001
0.001
0.001
0.0319989
0.001
0.238607
0.406703
0.407648
0.509654
0.723686
0.62117
0.747239
0.737035
0.758718
0.787733
0.817283
0.836371
0.219887
0.218925
0.169266
0.200481
0.139446
0.0992576
0.0912949
0.0927991
0.0862882
0.0942007
0.0455389
0.0377633
0.001
0.001
0.0578228
0.0279829
0.00184734
0.0498106
0.0422316
0.0612683
0.001
0.001
0.001
0.001
0.001
0.001
0.001
0.001
0.001
0.001
0.001
0.23828
0.216517
0.219462
0.217454
0.231713
0.342241
0.295663
0.278498
0.154303
0.207675
0.187858
0.192964
0.0993292
0.0325003
0.209949
0.323201
0.207909
0.215248
0.193912
0.278367
0.256016
0.330458
0.365413
0.284251
0.269017
0.299869
0.178657
0.149329
0.150201
0.151534
0.0675513
0.122253
0.0459113
0.001
0.001
0.09599
0.0964063
0.146201
0.14536
0.141123
0.147909
0.142795
0.150567
0.150315
0.159615
0.154201
0.176681
0.163986
0.167473
0.168749
0.198629
0.180722
0.208751
0.210581
0.154949
0.144845
0.208724
0.196609
0.179707
0.196897
0.181601
0.166951
0.218492
0.196264
0.293472
0.309498
0.253213
0.29925
0.301712
0.28123
0.362655
0.334028
0.404663
0.422241
0.45269
0.363153
0.367875
0.369022
0.32896
0.310573
0.275293
0.369167
0.219329
0.196393
0.249761
0.267859
0.001
0.001
0.0805879
0.201157
0.233908
0.271242
0.172858
0.132034
0.0963323
0.0448838
0.001
0.001
0.001
0.001
0.001
0.00100068
0.001
0.001
0.00100979
0.001
0.001
0.001
0.001
0.001
0.001
0.001
0.001
0.001
0.001
0.001
0.001
0.00101
0.001
0.001
0.001
0.001
0.00117521
0.001
0.0010785
0.001
0.00117498
0.00117499
0.001
0.001
0.001
0.001
0.001
0.001
0.001
0.001
0.00100959
0.001
0.00100965
0.001
0.001
0.001
0.803086
0.813207
0.835113
0.823495
0.804475
0.724053
0.55073
0.638406
0.517303
0.519589
0.496499
0.499491
0.491285
0.491447
0.483525
0.482159
0.427399
0.399622
0.301959
0.34346
0.198025
0.240032
0.001
0.001
0.001
0.001
0.001
0.001
0.001
0.001
0.00101397
0.001
0.001
0.001
0.001
0.001
0.001
0.001
0.001
0.00100737
0.001
0.001
0.001
0.001
0.001
0.001
0.001
0.001
0.00101
0.001
0.001
0.001
0.001
0.001
0.001
0.001
0.223203
0.05746
0.43685
0.378852
0.448032
0.559665
0.666545
0.738643
0.752279
0.748452
0.786189
0.81681
0.802531
0.798187
0.00116583
0.001
0.001
0.001
0.001
0.001
0.001
0.001
0.001
0.001
0.001
0.001
0.001
0.001
0.001
0.00101
0.001
0.197387
0.198568
0.196952
0.164521
0.0866227
0.119196
0.0467493
0.0368813
0.001
0.001
0.001
0.001
0.001
0.001
0.001
0.001
0.001
0.0175307
0.001
0.00140018
0.001
0.001
0.001
0.001
0.001
0.001
0.001
0.001
0.001
0.001
0.001
0.001
0.438482
0.401148
0.447111
0.450571
0.405
0.359078
0.529867
0.556136
0.617079
0.620256
0.171442
0.211713
0.264696
0.34219
0.161389
0.116398
0.148903
0.151059
0.001
0.0486128
0.085151
0.001
0.194963
0.193371
0.194063
0.195523
0.218187
0.189648
0.204637
0.228033
0.102636
0.0950458
0.001
0.0815797
0.0724054
0.0330775
0.00122154
0.00267829
0.001
0.001
0.001
0.0300574
0.0927501
0.027504
0.0915767
0.147815
0.143915
0.145363
0.145791
0.147154
0.164767
0.164703
0.183097
0.169644
0.201019
0.199199
0.212216
0.209808
0.217439
0.207853
0.217244
0.216275
0.253813
0.227142
0.197259
0.196725
0.26057
0.226166
0.232913
0.272732
0.311093
0.316171
0.313172
0.313581
0.340921
0.399393
0.463106
0.480943
0.494907
0.470749
0.610328
0.552482
0.683876
0.721492
0.707794
0.750674
0.80483
0.66427
0.755881
0.778505
0.849177
0.900318
0.92866
0.945636
0.974721
0.923171
0.975451
0.931543
1.01473
1.01587
1.06435
1.02946
1.09361
1.12765
1.1152
1.06485
1.12564
1.15329
1.11472
1.11759
1.17457
1.15424
1.1892
1.12526
1.13068
1.1887
1.15947
1.11002
1.1147
1.1426
1.17322
0.169375
0.130957
0.30416
0.299696
0.269981
0.262671
0.264043
0.0314744
0.164144
0.001
0.001
0.001
0.001
0.001
0.001
0.001
0.0971198
0.00503075
0.001
0.001
0.001
0.001
0.001
0.001
0.00101
0.001
0.001
0.001
0.001
0.00101
0.001
0.001
0.001
0.001
0.00164377
0.001
0.001
0.001
0.001
0.001
0.001
0.001
0.001
0.0012972
0.001
0.001
0.001
0.001
0.001
0.001
0.001
0.001
0.001
0.00100829
0.001
0.001
0.001
0.00100928
0.00100997
0.001
0.001
0.001
0.001
0.001
0.001
0.00101
0.001
0.001
0.00102658
0.00106009
0.001
0.00102651
0.001
0.00101
0.00101
0.001
0.001
0.001
0.001
0.001
0.001
0.001
0.001
0.0010078
0.001
0.001
0.001
0.001
0.001
0.001
0.001
0.001
0.00101
0.001
0.001
0.790924
0.780309
0.75564
0.749109
0.666151
0.742022
0.563577
0.499127
0.490633
0.492303
0.488289
0.491478
0.42792
0.437062
0.278281
0.239965
0.19919
0.372246
0.370478
0.32081
0.321149
0.321432
0.001
0.001
0.00105316
0.00105454
0.001
0.001
0.001
0.001
0.00105351
0.001
0.001
0.00100893
0.001
0.001
0.001
0.001
0.001
0.001
0.001
0.001
0.001
0.001
0.00136593
0.00136607
0.001
0.001
0.001
0.001
0.0465786
0.001
0.221238
0.387722
0.416392
0.449275
0.527008
0.639863
0.706237
0.689044
0.727859
0.66204
0.709336
0.755423
0.702521
0.708369
0.00112189
0.001
0.00100999
0.001
0.001
0.0011947
0.001
0.001
0.0011947
0.001
0.001
0.001
0.001
0.001
0.001
0.001
0.001
0.001
0.00101
0.001
0.001
0.001
0.001
0.001
0.00200495
0.00100882
0.175159
0.171127
0.089202
0.106728
0.001
0.0099716
0.001
0.001
0.001
0.00136281
0.001
0.001
0.001
0.001
0.001
0.001
0.001
0.001
0.00126034
0.00123178
0.001
0.001
0.001
0.001
0.001
0.001
0.001
0.001
0.001
0.001
0.00121704
0.001
0.663032
0.656833
0.487731
0.40525
0.392266
0.381091
0.653815
0.57546
0.816312
0.891908
0.789328
0.70638
0.904723
0.885962
0.947655
1.00088
1.02993
1.02756
1.0571
1.03295
1.08878
1.11053
1.11083
1.10844
1.12294
1.11109
1.10936
1.15465
1.10312
1.09844
0.222092
0.155951
0.296576
0.362072
0.148717
0.0990854
0.151353
0.148642
0.001
0.0308368
0.001
0.0350075
0.001
0.19008
0.140311
0.193886
0.191893
0.192921
0.0838109
0.001
0.001
0.001
0.001
0.001
0.001
0.001
0.001
0.001
0.001
0.001
0.001
0.001
0.0426651
0.001
0.0909536
0.0405456
0.0857124
0.139189
0.177328
0.147831
0.181124
0.191724
0.195029
0.179366
0.215978
0.229375
0.222322
0.238384
0.250372
0.244639
0.279851
0.288813
0.279302
0.274818
0.277922
0.272771
0.292687
0.307849
0.354137
0.348347
0.317394
0.347239
0.341574
0.376508
0.410466
0.47634
0.510643
0.504099
0.514034
0.588253
0.665827
0.741201
0.749898
0.878582
0.755057
0.799128
0.95061
0.974852
0.979637
1.01635
1.06719
1.11726
1.12391
1.13069
1.15189
1.18227
1.20673
1.20779
1.20738
1.20596
1.20645
1.18998
1.12419
1.18881
1.15863
1.10963
1.11252
1.14478
1.17731
1.18807
1.11169
1.17552
1.13521
0.001
0.001
0.0225399
0.0964802
0.001
0.053815
0.193979
0.126976
0.153343
0.001
0.001
0.001
0.001
0.0032472
0.001
0.001
0.001
0.001
0.001
0.00126899
0.00126876
0.001
0.001
0.001
0.00100999
0.001
0.001
0.001
0.001
0.00143127
0.00143189
0.001
0.001
0.001
0.0016436
0.001
0.001
0.001
0.001
0.001
0.00101
0.001
0.00129704
0.001
0.00101
0.001
0.001
0.001
0.001
0.001
0.001
0.00105211
0.001
0.001
0.001
0.001
0.001
0.001
0.001
0.001
0.001
0.001
0.001
0.001
0.001
0.001
0.00103769
0.001
0.001
0.001
0.001
0.001
0.001
0.001
0.00101
0.001
0.00100962
0.001
0.001
0.001
0.001
0.001
0.001
0.001
0.001
0.70501
0.703023
0.68461
0.687341
0.617992
0.684564
0.487292
0.556783
0.448892
0.45092
0.395983
0.374968
0.321617
0.322068
0.238225
0.128706
0.110355
0.277223
0.323713
0.322301
0.321793
0.321138
0.00105861
0.001
0.00105962
0.001
0.001
0.001
0.001
0.001
0.00100548
0.001
0.001
0.001
0.001
0.001
0.001
0.00100999
0.001
0.001
0.001
0.001
0.001
0.001
0.001
0.00101
0.001
0.001
0.001
0.001
0.112813
0.001
0.262846
0.387366
0.361791
0.476824
0.636682
0.543107
0.617575
0.622053
0.60826
0.639743
0.693547
0.691786
0.700366
0.663748
0.001
0.001
0.001
0.001
0.001
0.001
0.001
0.001
0.001
0.001
0.001
0.001
0.001
0.001
0.001
0.001
0.001
0.001
0.001
0.00100999
0.001
0.001
0.00183919
0.001
0.00101
0.001
0.001
0.001
0.001
0.001
0.001
0.0471307
0.0464012
0.0112161
0.001
0.001
0.001
0.001
0.001
0.0918411
0.0311717
0.0107397
0.001
0.001
0.001
0.00100989
0.00126901
0.00126901
0.001
0.001
0.001
0.001
0.001
0.001
0.001
0.001
0.001
0.001
0.001
0.00100971
0.001
0.001
0.001
0.001
0.001
0.001
1.23138
1.23754
1.26981
1.2453
1.28713
1.2762
1.29971
1.29199
1.35388
1.33679
1.304
1.35346
1.31673
1.37633
1.20326
1.15359
1.17612
1.22389
1.20473
1.17493
1.17806
1.2288
1.23244
1.21042
1.19213
1.24003
1.22634
1.23104
1.25486
1.10846
1.11149
1.11238
1.10734
1.12799
1.15387
0.704273
0.649959
0.541902
0.459232
0.369206
0.439283
0.636802
0.630916
0.859543
0.887016
0.766926
0.854992
0.890769
0.9429
0.984721
1.03053
1.02504
1.02684
1.0244
1.05341
1.06597
1.09261
1.08069
1.08551
1.08937
1.10023
1.0778
1.07813
0.269213
0.203841
0.148
0.133391
0.190732
0.362708
0.341074
0.0741346
0.131035
0.00317527
0.001
1.21948
1.24047
1.2553
1.26165
1.26572
1.27386
1.28095
1.30554
1.28998
1.3089
1.31045
1.36011
1.3855
1.4093
1.40623
1.41444
1.42524
1.44722
0.001
0.001
0.00145515
0.1152
0.00824395
0.178531
0.0774802
0.00328602
0.00131358
0.001
0.00131363
0.00131357
0.001
0.001
0.001
0.001
0.001
0.001
0.001
0.001
0.001
0.001
0.00122804
0.001
0.0418007
0.00159159
0.121818
0.0749259
0.163323
0.125652
0.162387
0.191056
0.208616
0.232261
0.25796
0.248122
0.265761
0.25234
0.316321
0.299546
0.293015
0.296226
0.345969
0.324016
0.394622
0.350925
0.333048
0.382914
0.419252
0.408971
0.436009
0.474233
0.473409
0.417689
0.530031
0.553881
0.522984
0.520217
0.594147
0.685659
0.748573
0.819513
0.771787
0.780554
0.910393
0.968387
1.01655
0.996003
1.0631
1.09504
1.13545
1.14806
1.14079
1.16172
1.21866
1.19859
1.21044
1.2201
1.21028
1.20887
1.20947
1.20978
1.20989
1.21074
1.21073
0.001
0.001
0.00228762
0.001
0.001
0.001
0.001
0.001
0.001
0.001
0.001
0.001
0.001
0.001
0.0014551
0.001
0.001
0.001
0.001
0.00126848
0.001
0.001
0.001
0.001
0.001
0.001
0.00100999
0.001
0.00111816
0.00111814
0.00143075
0.001
0.0010139
0.001
0.001
0.001
0.001
0.001
0.001
0.001
0.00100984
0.001
0.00111807
0.001
0.001
0.001
0.00101
0.001
0.001
0.001
0.001
0.00240438
0.001
0.001
0.001
0.001
0.001
0.001
0.00100993
0.001
0.001
0.001
0.001
0.001
0.00104144
0.001
0.001
0.001
0.001
0.00103201
0.001
0.001
0.001
0.001
0.001
0.001
0.001
0.001
0.00101
0.001
0.001
0.001
0.001
0.001
0.001
0.001
0.001
0.001
0.001
0.00205082
0.001
0.001
0.001
0.001
0.00205078
1.39827
1.3633
1.34897
1.43877
1.47183
1.46769
0.680408
0.687728
0.670894
0.663049
0.587619
0.657496
0.483329
0.409774
0.337177
0.353045
0.322629
0.319544
0.319689
0.320912
0.197551
0.111804
0.21101
0.284102
0.287734
0.001
0.001
0.001
0.001
0.001
0.001
0.001
0.001
0.001
0.001
0.00100943
0.001
0.001
0.001
0.001
0.001
0.00100998
0.001
0.001
0.001
0.001
0.001
0.001
0.001
0.001
0.001
0.001
0.094632
0.227218
0.34407
0.343212
0.666507
0.585048
0.596872
0.37436
0.47294
0.553915
0.609076
0.611223
0.609204
0.630082
0.659144
0.649251
0.001
0.00115233
0.001
0.001
0.001
0.001
0.00100904
0.001
0.001
0.001
0.001
0.001
0.001
0.001
0.001
0.001
0.001
0.00100504
0.001
0.001
0.001
0.001
0.001
0.001
0.001
0.001
0.001
0.001
0.001
0.001
0.00101
0.001
0.001
0.001
0.001
0.001
0.001
0.0457801
0.0828409
0.0723624
0.0104481
0.0107014
0.001
0.001
0.001
0.001
0.001
0.001
0.0155646
0.00426837
0.001
0.001
0.001
0.001
0.001
0.001
0.001
0.001
0.001
0.001
0.001
0.001
0.001
0.001
0.001
0.001
0.001
0.001
0.001
0.001
0.001
0.001
0.001
0.001
1.2314
1.24575
1.26751
1.28959
1.30543
1.30201
1.34395
1.31174
1.16923
1.1648
1.15223
1.1733
1.20408
1.16794
1.20985
1.18669
1.09995
1.08665
1.08311
1.11736
1.14775
1.11877
0.707291
0.635422
0.529956
0.617383
0.468163
0.37431
0.63263
0.633292
0.866128
0.871379
0.887242
0.783229
0.859663
0.976207
0.918867
0.861986
0.905492
1.00548
1.01929
1.00975
1.01412
1.0223
1.04337
1.07208
1.06287
1.07578
1.0723
1.07751
1.07712
1.07328
1.07426
0.116815
0.11725
0.252543
0.341554
0.117432
0.201937
0.349672
0.374447
0.117055
0.0563763
0.001
0.0290777
1.24847
1.20803
1.22786
1.27094
1.26962
1.26864
1.28093
1.30093
1.32458
1.33696
1.33596
1.34658
1.36508
1.40891
1.39325
1.40498
1.42379
1.46529
1.44898
1.27539
1.28599
1.30327
1.47003
1.47992
1.47527
0.00145496
0.00145492
0.00145499
0.001
0.001
0.001
0.001
0.001
0.001
0.001
0.001
0.001
0.001
0.00101
0.001
0.00100987
0.001
0.001
0.001
0.001
0.00186027
0.001
0.001
0.001
0.064872
0.0927424
0.0202137
0.0612156
0.120971
0.0904805
0.21434
0.162736
0.232435
0.246689
0.256543
0.244631
0.295743
0.335599
0.371648
0.371843
0.376664
0.359115
0.388345
0.367689
0.417371
0.427749
0.450338
0.444782
0.422787
0.422739
0.545552
0.596164
0.49231
0.555954
0.600299
0.567942
0.661547
0.714173
0.804534
0.844968
0.820258
0.911476
0.965035
1.06901
1.05309
1.11374
1.0888
1.18012
1.18798
1.17982
1.20818
1.23764
1.237
1.29322
1.25856
1.28561
1.2479
1.24576
1.28359
1.21257
1.25173
1.21398
0.001
0.001
0.001
0.001
0.001
0.001
0.001
0.001
0.00101
0.001
0.001
0.001
0.001
0.001
0.001
0.001
0.001
0.001
0.001
0.001
0.001
0.001
0.001
0.001
0.001
0.00103102
0.001
0.001
0.00111813
0.00111814
0.001
0.001
0.001
0.001
0.00101
0.001
0.0010004
0.001
0.001
0.001
0.001
0.001
0.00218406
0.001
0.001
0.001
0.001
0.001
0.00101
0.001
0.001
0.00221008
0.001
0.001
0.001
0.00100982
0.00127353
0.001
0.00100983
0.001
0.001
0.001
0.00101
0.001
0.00104113
0.00103888
0.001
0.001
0.00103217
0.00103542
0.001
0.001
0.001
0.001
0.00155193
0.001
0.00155178
0.001
0.001
0.001
0.001
0.00100984
0.00101
0.00100994
0.001
0.001
0.001
0.001
0.001
0.001
0.001
0.001
0.001
0.001
0.00127346
0.001
0.00100958
0.00100997
0.001
0.001
0.001
0.001
0.00101
1.36272
1.37248
1.37368
1.37587
1.40219
1.50683
1.48882
1.49633
1.51583
1.45089
0.588162
0.578606
0.517601
0.513757
0.475996
0.501761
0.414774
0.37186
0.353387
0.32401
0.298608
0.293121
0.207077
0.214502
0.0878194
0.122865
0.126551
0.001
0.001
0.001
0.00101
0.001
0.001
0.001
0.00103433
0.0544013
0.001
0.001
0.001
0.001
0.001
0.001
0.001
0.00101
0.001
0.001
0.00102175
0.001
0.001
0.001
0.001
0.001
0.456455
0.459229
0.499876
0.201739
0.341703
0.337542
0.37987
0.501338
0.574603
0.534578
0.434302
0.51744
0.552221
0.553092
0.470277
0.499277
0.001
0.001
0.00115237
0.00101
0.001
0.001
0.00101
0.00118725
0.001
0.001
0.001
0.001
0.001
0.001
0.001
0.0010227
0.001
0.00102284
0.00102273
0.00101
0.001
0.001
0.001
0.001
0.001
0.00100577
0.001
0.001
0.001
0.001
0.00107135
0.001
0.00100563
0.001
0.001
0.001
0.001
0.001
0.001
0.001
0.001
0.001
0.001
0.001
0.00102277
0.063715
0.072379
0.0844348
0.001
0.001
0.001
0.001
0.001
0.001
0.00147328
0.001
0.001
0.00147325
0.001
0.001
0.001
0.001
0.001
0.001
0.001
0.00103556
0.001
0.001
0.001
0.001
0.001
0.001
0.001
0.00118297
0.001
0.00103551
0.001
0.001
0.001
0.001
0.00101
0.001
0.001
0.00118295
1.23672
1.19424
1.25985
1.22674
1.24025
1.26762
1.27876
1.32625
1.31472
1.34717
1.33662
1.29691
1.34627
1.3278
1.1334
1.13551
1.12554
1.13883
1.15197
1.16344
1.16389
1.16505
1.0747
1.07822
1.09653
1.08189
1.11031
1.11826
0.712975
0.638807
0.55182
0.638334
0.422878
0.523829
0.628859
0.643587
0.860814
0.860755
0.864213
0.792941
0.950904
0.998757
0.907885
0.861658
1.00308
1.00395
1.01744
1.00501
1.03978
1.06387
1.07069
1.06768
1.06447
1.07054
1.07419
1.07651
1.07152
1.07148
0.112615
0.110311
0.271343
0.354777
0.255979
0.182176
0.410899
0.343975
0.0866018
0.109111
0.0815074
0.001
1.24798
1.28498
1.26586
1.28976
1.31121
1.29835
1.33381
1.34652
1.32316
1.33653
1.3285
1.34062
1.34572
1.36958
1.39104
1.40787
1.40447
1.45968
1.43146
1.48233
1.49052
1.35998
1.37467
1.49107
1.50561
0.001
0.001
0.001
0.001
0.001
0.001
0.001
0.001
0.00101
0.001
0.001
0.001
0.001
0.001
0.001
0.001
0.00186022
0.001
0.001
0.001
0.001
0.001
0.001
0.001
0.0791499
0.079945
0.0476072
0.001
0.114715
0.157622
0.219156
0.204176
0.226735
0.216789
0.337034
0.287064
0.390513
0.373836
0.403116
0.405182
0.384654
0.43928
0.48565
0.455618
0.445187
0.471347
0.519801
0.507441
0.489387
0.529941
0.614667
0.617649
0.609497
0.628734
0.759068
0.672505
0.840313
0.866588
0.866047
0.931863
1.01256
1.08646
1.09811
1.10885
1.15424
1.20281
1.23772
1.23926
1.2785
1.25104
1.30525
1.32113
1.32092
1.32069
1.32062
1.3204
1.28488
1.31882
1.287
0.001
0.001
0.00731384
0.00102511
0.001
0.001
0.001
0.001
0.001
0.001
0.00101
0.00131758
0.00131752
0.00131791
0.00131799
0.001318
0.00131781
0.001
0.00131728
0.0066936
0.001
0.001
0.001
0.00103076
0.001
0.00103068
0.00103075
0.001
0.001
0.00100217
0.001
0.001
0.001
0.001
0.00101
0.00103675
0.001
0.001
0.00100986
0.001
0.001
0.001
0.00186116
0.001
0.001
0.001
0.001
0.001
0.001
0.001
0.001
0.001
0.00100941
0.001
0.001
0.001
0.00100992
0.001
0.001
0.001
0.00101
0.001
0.001
0.001
0.001
0.001
0.001
0.0010008
0.001
0.001
0.001
0.00100949
0.001
0.001
0.001
0.001
0.001
0.001
0.001
0.001
0.001
0.001
0.00101
0.001
0.001
0.001
0.001
0.001
0.001
0.001
0.001
0.001
0.001
0.001
0.001
0.001
0.001
0.001
0.001
0.001
0.001
0.001
0.001
0.001
0.001
0.001
0.001
0.001
0.001
0.001
0.001
0.001
0.00106418
0.001
0.001
0.001
0.001
1.55055
1.5299
1.54975
1.54225
1.55827
1.55319
1.38179
1.40058
1.45357
1.42102
1.53317
1.56178
1.50621
1.37943
1.34865
0.458851
0.453093
0.458509
0.448011
0.449482
0.387847
0.428924
0.217181
0.270664
0.135483
0.142122
0.0848644
0.0826377
0.0876892
0.001
0.001
0.001
0.001
0.001
0.0822752
0.001
0.001
0.001
0.00110904
0.001
0.001
0.001
0.001
0.001
0.001
0.001
0.00101486
0.00101104
0.001
0.00100995
0.001
0.001
0.001
0.45825
0.455513
0.457478
0.458052
0.457786
0.171172
0.280102
0.224257
0.349479
0.41002
0.435458
0.361513
0.447875
0.401591
0.398008
0.387657
0.001
0.00110853
0.001
0.001
0.001
0.001
0.001
0.00101465
0.001
0.001
0.00101353
0.001
0.001
0.001
0.00102045
0.001
0.001
0.001
0.001
0.001
0.001
0.001
0.001
0.001
0.001
0.00100955
0.001
0.001
0.001
0.001
0.001
0.001
0.001
0.001
0.001
0.001
0.00107135
0.001
0.00107133
0.001
0.001
0.001
0.001
0.001
0.00100037
0.001
0.001
0.001
0.001
0.001
0.00101
0.001
0.001
0.001
0.001
0.001
0.001
0.063152
0.001
0.001
0.001
0.001
0.001
0.001
0.001
0.001
0.001
0.00100956
0.001
0.001
0.001
0.001
0.001
0.001
0.001
0.001
0.001
0.001
0.001
0.001
0.001
0.001
0.001
0.001
0.001
0.001
0.001
0.001
0.001
0.001
0.00182474
0.00182604
0.001
0.001
0.001
0.001
0.00100972
0.001
1.20256
1.18024
1.21981
1.22173
1.20055
1.2503
1.24602
1.2458
1.27394
1.2684
1.35657
1.31698
1.27484
1.12163
1.12165
1.1514
1.13779
1.16392
1.16292
1.18784
1.17112
1.07681
1.08301
1.09988
1.08969
1.10298
1.10766
0.754485
0.673865
0.595074
0.636649
0.582558
0.48309
0.672439
0.630886
0.868334
0.866046
0.830568
0.87338
0.958686
1.00486
0.868529
0.912777
1.00844
1.00557
1.02967
1.01013
1.05322
1.07145
1.06949
1.07797
1.05862
1.06823
1.07167
1.07206
1.05862
1.06385
0.11052
0.169788
0.350886
0.334173
0.260545
0.337267
0.354008
0.424838
0.097532
0.102023
0.0922535
0.0117648
0.001
0.001
0.001
1.31549
1.32092
1.34685
1.33852
1.36435
1.37868
1.3773
1.37685
1.41379
1.39439
1.40802
1.3707
1.40349
1.41815
1.43859
1.45527
1.46485
1.4642
1.5183
1.52228
1.54279
1.52249
1.43696
1.43723
1.5634
1.55918
0.001
0.001
0.00101
0.001
0.001
0.00124276
0.001243
0.001
0.001
0.001
0.001
0.00204311
0.00107113
0.001
0.001
0.001
0.00100232
0.001
0.001
0.001
0.001
0.001
0.001
0.001
0.001
0.0267066
0.0997287
0.001
0.202843
0.13272
0.210168
0.212107
0.300735
0.239993
0.367264
0.391249
0.389217
0.39805
0.520303
0.483591
0.453348
0.507477
0.531568
0.525206
0.520624
0.513007
0.525572
0.524669
0.610123
0.650779
0.69046
0.644605
0.69059
0.716154
0.853141
0.783227
0.877396
0.865451
0.950047
1.02249
1.11358
1.10678
1.14293
1.17939
1.25735
1.24373
1.27029
1.27233
1.30241
1.3145
1.33156
1.3249
1.33433
1.33169
1.32065
1.33178
1.31862
1.31687
0.001
0.001
0.00101
0.001
0.001
0.001
0.001
0.001
0.001
0.00131775
0.001
0.001
0.001
0.00131855
0.00131887
0.00131836
0.00131827
0.00131767
0.00131851
0.001
0.001
0.00100968
0.001
0.001
0.001
0.00100179
0.001
0.001
0.001
0.001
0.001
0.00101
0.001
0.001
0.00100863
0.00103674
0.001
0.001
0.001
0.00373711
0.001
0.001
0.001
0.00100967
0.001
0.001
0.001
0.00100983
0.001
0.001
0.00100647
0.001
0.00100976
0.001
0.001
0.001
0.001
0.001
0.00346643
0.001
0.001
0.001
0.001
0.001
0.00122855
0.00122845
0.00122847
0.001
0.001
0.001
0.001
0.001
0.001
0.001
0.001
0.001
0.001
0.001
0.001
0.001
0.001
0.001
0.001
0.001
0.001
0.001
0.001
0.001
0.001
0.001
0.001
0.001
0.001
0.001
0.001
0.001
0.001
0.001
0.001
0.001
0.001
0.001
0.001
0.001
0.001
0.001
0.00101
0.001
0.00135327
0.001
0.00113872
0.001
0.001
0.00115048
0.001
0.001
1.57262
1.58625
1.58992
1.55232
1.56697
1.54534
1.55484
1.44335
1.45454
1.46554
1.46418
1.51749
1.54287
1.53526
1.39549
1.44621
1.35486
1.36835
1.37932
0.447602
0.453007
0.351065
0.315392
0.410017
0.345959
0.349886
0.223066
0.245174
0.111261
0.0853475
0.0867273
0.0850681
0.0611344
0.001
0.001
0.001
0.112392
0.001
0.001
0.001
0.001
0.001
0.001
0.001
0.001
0.001
0.001
0.001
0.001
0.001
0.00101
0.001
0.001
0.00101109
0.001
0.001
0.001
0.414534
0.454924
0.432969
0.407234
0.17642
0.17262
0.198549
0.27001
0.385704
0.382207
0.341504
0.381886
0.388605
0.00100999
0.001
0.001
0.001
0.001
0.001
0.00120882
0.00120899
0.001
0.001
0.00101
0.00100946
0.001
0.001
0.00100846
0.001
0.0010099
0.00376694
0.001
0.001
0.001
0.001
0.001
0.001
0.001
0.00107072
0.001
0.001
0.00110507
0.001
0.001
0.001
0.001
0.001
0.001
0.001
0.001
0.001
0.001
0.001
0.001
0.001
0.001
0.001
0.001
0.001
0.001
0.001
0.001
0.001
0.001
0.00200621
0.001
0.001
0.001
0.001
0.001
0.001
0.001
0.001
0.001
0.001
0.001
0.001
0.001
0.001
0.00104168
0.00104001
0.001
0.001
0.001
0.00104123
0.001
0.001
0.001
0.001
0.001
0.001
0.001
0.001
0.001
0.001
0.001
0.001
0.001
0.001
0.001
0.001
0.001
0.001
0.001
0.001
0.001
0.001
0.001
0.001
0.001
0.00126304
0.00101
0.001
0.001
0.001
0.001
0.00100999
0.001
0.001
1.19522
1.21924
1.15482
1.24082
1.20655
1.23886
1.26553
1.24415
1.25479
1.31599
1.26297
1.34878
1.30993
1.38037
1.09927
1.12335
1.11974
1.14721
1.12764
1.15462
1.17891
1.14468
1.07245
1.08218
1.08625
1.08832
1.09267
1.09058
0.807958
0.726796
0.617024
0.634679
0.538401
0.623852
0.638311
0.69686
0.874952
0.874626
0.874755
0.852747
0.963131
1.00656
0.929123
0.882999
1.01128
1.0093
1.02088
1.03834
1.05602
1.05373
1.05452
1.08335
1.07775
1.06459
1.06422
1.06514
1.06556
1.06583
0.193432
0.0916528
0.354609
0.372742
0.276863
0.369569
0.368075
0.456911
0.0980153
0.0923216
0.0656049
0.052542
0.001
0.0937811
1.32914
1.35084
1.37075
1.40949
1.40168
1.42626
1.43495
1.44526
1.45175
1.43911
1.44742
1.46815
1.48505
1.49941
1.49938
1.50787
1.53102
1.55413
1.56841
1.56209
1.57482
1.45055
1.43757
1.60172
1.6215
0.001
0.001
0.001
0.001
0.001
0.001
0.001
0.001
0.001
0.00204302
0.001
0.001
0.001
0.001
0.001
0.00105385
0.00105385
0.001
0.001
0.001
0.001
0.001
0.001
0.001
0.001
0.0275066
0.0319901
0.113158
0.185476
0.152407
0.228472
0.165816
0.362252
0.290837
0.395149
0.397083
0.40903
0.473377
0.597198
0.607803
0.54472
0.574265
0.608686
0.552902
0.660513
0.588871
0.566782
0.601519
0.736385
0.746458
0.806887
0.862274
0.747107
0.836954
0.979252
0.930485
0.999723
0.969991
1.16322
1.13055
1.19573
1.21248
1.28105
1.29508
1.35384
1.32429
1.37021
1.35549
1.37307
1.40658
1.37589
1.40828
1.41476
1.37206
1.36222
1.40438
1.4009
1.37445
0.001
0.001
0.00101
0.001
0.001
0.001
0.001
0.001
0.001
0.00107559
0.001
0.001
0.001
0.001
0.001
0.001
0.00100968
0.00131879
0.001
0.001
0.00131912
0.00101614
0.001
0.001
0.00123625
0.001
0.001
0.001
0.001
0.001
0.00152165
0.00100984
0.001
0.001
0.001
0.001
0.001
0.00100967
0.001
0.001
0.001
0.001
0.001
0.001
0.001
0.001
0.00101227
0.00101287
0.00101258
0.001
0.001
0.001
0.001
0.00118132
0.001
0.001
0.00118123
0.001
0.001
0.001
0.00100996
0.0013532
0.001
0.00115048
0.001
0.001
0.001
0.001
0.00101
0.001
0.001
0.001
0.001
0.001
0.001
0.001
0.001
0.001
0.001
0.001
0.001
0.001
0.001
0.001
0.001
0.001
0.001
0.001
0.001
0.001
0.001
0.001
0.001
0.001
0.001
0.001
0.001
0.001
0.001
0.001
0.001
0.001
0.001
0.001
0.001
0.001
0.001
0.001
0.001
0.001
0.001
0.001
0.001
0.001
0.001
0.001
0.001
0.00113872
0.001
0.001
0.001
0.0011505
0.001
0.001
1.61639
1.60562
1.61963
1.59727
1.57641
1.60946
1.59515
1.573
1.59039
1.44219
1.46321
1.47604
1.49753
1.541
1.58696
1.62356
1.50987
1.38614
1.40582
1.38534
1.39133
1.38146
1.41596
1.31327
0.216163
0.309895
0.213775
0.256213
0.254239
0.161854
0.159865
0.165077
0.16738
0.167165
0.136813
0.0582035
0.0350286
0.001
0.001
0.062543
0.171471
0.001
0.001
0.00104332
0.001
0.001
0.00100999
0.001
0.001
0.00100155
0.001
0.00103556
0.001
0.001
0.001
0.001
0.00104767
0.001
0.00100853
0.001
0.00100507
0.320228
0.24602
0.222125
0.308449
0.176033
0.198899
0.33228
0.269274
0.309814
0.380747
0.384086
0.00110492
0.001
0.001
0.00115181
0.001
0.001
0.0012014
0.00119833
0.001
0.001
0.00100995
0.001
0.001
0.001
0.001
0.001
0.00394412
0.00393921
0.001
0.001
0.00393264
0.001
0.00200624
0.001
0.001
0.00100018
0.001
0.0034043
0.001
0.00110509
0.00354557
0.001
0.001
0.001
0.001
0.001
0.001
0.001
0.001
0.001
0.001
0.001
0.001
0.00101
0.001
0.001
0.001
0.001
0.001
0.00117847
0.001
0.001
0.001
0.00101
0.001
0.001
0.001
0.001
0.001
0.001
0.001
0.001
0.001
0.001
0.001
0.001
0.001
0.001
0.001
0.001
0.001
0.001
0.001
0.001
0.001
0.001
0.00104043
0.00104104
0.001
0.001
0.001
0.001
0.001
0.001
0.001
0.001
0.00160088
0.001
0.001
0.001
0.001
0.001
0.001
0.00160088
0.001
0.001
0.001
0.001
0.001
0.001
0.001
0.001
0.001
0.001
0.001
0.001
0.001
0.00101
0.00101
0.001
0.00101
0.001
0.001
0.001
0.001
0.001
0.001
0.001
1.15736
1.20585
1.15547
1.17688
1.18382
1.20886
1.18563
1.22169
1.24138
1.27777
1.27925
1.27991
1.31598
1.28462
1.38538
1.09245
1.09463
1.10155
1.1067
1.11006
1.10947
1.12068
1.13316
1.13074
1.07419
1.07736
1.08926
1.09216
1.09185
0.772562
0.847206
0.659298
0.650334
0.571275
0.661638
0.72773
0.661593
0.888081
0.897988
0.899454
0.886409
1.00669
0.975159
0.946886
0.976675
1.01778
1.01546
1.05052
1.06846
1.08446
1.09674
1.08962
1.05773
1.07143
1.07888
1.07027
1.08465
1.06964
0.190631
0.0847131
0.367442
0.377687
0.275071