/*--------------------------------*- C++ -*----------------------------------*\
  =========                 |
  \\      /  F ield         | OpenFOAM: The Open Source CFD Toolbox
   \\    /   O peration     | Website:  https://openfoam.org
    \\  /    A nd           | Version:  8
     \\/     M anipulation  |
\*---------------------------------------------------------------------------*/
FoamFile
{
    version     2.0;
    format      ascii;
    class       surfaceScalarField;
    location    "12240";
    object      phi;
}
// * * * * * * * * * * * * * * * * * * * * * * * * * * * * * * * * * * * * * //

dimensions      [0 3 -1 0 0 0 0];

internalField   nonuniform List<scalar> 
788991
(
-0.0239536
0.0153691
0.00251948
-0.00632701
0.00943107
-0.042622
0.013169
-0.0152986
-0.0625841
0.0335875
-0.0112692
0.0362528
0.0047363
-0.0443617
-0.0367242
-0.0125107
0.0392485
0.00636111
-0.00892875
0.0156307
0.0267347
-0.0136634
-0.0566018
0.0388878
0.00225077
0.0359834
-0.0132926
0.0480155
-0.0252405
0.0552538
0.0111098
0.0177391
0.0394468
0.00117542
0.0674524
-0.022891
-0.0284446
-0.0212227
-0.0261502
-0.0189534
-0.034767
0.0360593
0.0279672
-0.00614429
0.0494358
-0.012172
-0.0257654
0.0195117
-0.00251424
-0.0535102
-0.0234567
-0.0113393
-0.00410413
0.0165589
-0.00799282
0.0154868
-0.0158648
-0.0261671
0.0161752
0.00719264
0.0101212
0.0203776
-0.00752427
-0.027885
-0.00442652
-0.0312026
0.00815455
0.0159878
-0.0116693
-0.0199785
-0.0150823
0.0044895
0.0651912
0.0648995
0.0717413
0.0303937
-0.076542
-0.0480578
-0.0111761
0.0406108
0.0180369
0.013909
0.0205453
-0.04814
-0.00323177
-0.0342055
0.045769
-0.0307398
-0.0431562
-0.0109216
0.0154379
0.0125406
-0.0156339
-0.047571
0.0207831
-0.021897
-0.0215327
0.0324045
-0.0459462
-0.0705532
-0.0341068
-0.0438369
-0.0291154
-0.0429584
-0.0760643
-0.0420375
-0.0696912
0.0111667
-0.0168566
0.0405273
-0.0112162
-0.0494379
-0.00600694
-0.0141842
-0.0211655
0.00401834
-0.0028708
-0.00970272
-0.0190693
0.019002
0.0142374
-0.025723
0.0165765
0.00211008
-0.0163003
-0.0178825
0.00516593
-0.0128626
-0.0111188
0.0152634
0
0
0
0
0
0
0.0147941
0
0.0147814
0.00294681
0.0359354
0.0194645
0.0136412
0.0325678
1.13135e-05
-0.046141
0.0520894
-0.00207909
0.0553353
-0.00586578
0.00913574
-0.0368649
-0.0120461
-0.0156223
0.00972995
0.00248948
-0.0572579
-0.00338042
-0.0179049
0.00827749
-0.00843319
0.0156978
-0.0158374
-0.0445137
0.0294752
-0.014161
0.0349233
-0.00840073
-0.0493602
0.0126526
-0.0230308
0.0288675
-0.0203788
-0.04849
-0.0163235
-0.00672813
-0.0255715
-0.0224856
-0.0431645
-0.0275743
-0.0323877
0.0180741
-0.0306378
-0.0469574
0.0378666
-0.0173209
0.0498709
-0.0380928
-0.0403076
0.00276531
-0.000911406
-0.0277458
-0.0321098
-0.0213068
0.00901862
0.00833619
0.0362408
-0.0439142
-0.0309389
0.0279548
-0.0131539
-0.0209024
-0.0373502
-0.0518947
-0.00197966
0.00300298
0.0246306
0.00029285
-0.0364258
0.0492799
0.0120986
-0.0211775
0.0221649
0.00562902
0.0166987
0.0279963
-0.00204795
0.0201465
-0.00064262
0.0181044
-0.00980066
-0.0272336
0.00980042
0.0100104
-0.0675619
-0.00559272
0.00386741
-0.0369847
-0.0712534
-0.0100703
9.99228e-05
-0.0372797
-0.00972073
0.0136422
-0.0101567
0.0248285
-0.0153683
-0.0012616
-0.0144941
-0.0106511
0.00433309
-0.0103372
-0.0101096
-0.0254201
0.0153975
-0.0226877
-0.0475497
-0.0437213
-0.0281073
-0.0191292
0.0381903
-0.031936
-0.0460105
0.0341112
-0.0142328
-0.0383295
0.0229231
0.0179531
-0.0418545
-0.0214082
-0.018142
-0.0353379
0.0262606
-0.0570601
-0.0430926
-0.0154605
-0.0348453
-0.0707161
-0.00308424
-0.0221555
-0.0516201
-0.0177766
-0.0461688
-0.0601979
-0.0231274
-0.00585012
-0.0388678
-0.0463962
-0.0983203
-0.0787372
-0.0336239
0.0060417
-0.0354094
0.000340846
-0.0164664
-0.000513194
0.0444563
-0.00651092
0.0374643
-0.0395592
-0.00122272
-0.0104888
0.010034
-0.0133651
0.0246892
0.00994991
-0.00640481
-0.0534641
0.0470345
0.0371128
0.00684878
-0.0439437
-0.00759196
0.0184225
-0.0227598
-0.00673837
-0.0158156
-0.0129575
0.00350385
-0.0251299
0
0
-0.0240949
0
0.031485
0
0
0
0
0
0
0
0
-0.0447706
-0.0250877
-0.0235158
-0.0397935
-0.00513542
-0.0294676
-0.038946
-0.0498011
-0.0217341
-0.00111013
-0.042755
0.0386514
0.0398122
-0.0518654
-0.0674233
0.0307076
-0.0240448
-0.044086
-0.0109417
-0.0212663
-0.0281576
0.00761649
-0.00446808
-0.00539266
-0.00336247
-0.0125827
0.0268043
0.00926828
-0.0114813
0.0162971
0.00864143
-0.0086716
0.0139851
0
0
0
0
0
0
0
0
-0.00634508
0
0
0.0431988
0.0611813
0.0182138
0.0762896
0.0281962
0.0242164
0.0589781
-0.0180786
-0.0290378
0.0329381
0.0112935
-0.0266599
0.00741954
0.0186432
0.000819173
-0.0404114
-0.0024474
0.00792799
0.00659528
-0.0135424
0.0156036
0.0155978
-0.020456
-0.00938568
0.00278812
-0.0180649
0.0137765
0.0180179
-0.0037388
0.0216418
0.0157001
-0.00588796
-0.0229936
0.0167173
-0.0245293
0.0310754
-0.00154751
0.00782048
-0.0365732
-0.0234353
-0.0500333
0.0797592
-0.181528
0.00442689
-0.0127939
0.0147639
-0.0486805
0.0169963
0.0465925
-0.0425929
0.0396198
0.00678125
-0.0127069
-0.00371233
-0.0133196
-0.000150371
0.0251414
0.00370367
0.0252261
0.0181906
0.0138722
0.00709103
0.0123825
-0.00211118
0
0.0165516
0
0
-0.0173563
0.018319
-0.0018401
0.0102505
0.00331109
0.0386006
0.0313022
0.0213927
0.0446423
0.0202527
0.0116604
0.00589746
0.0325868
0.0215659
-0.0135695
0.0408432
-0.0307512
-0.0731141
0.0121437
-0.0347635
-0.0316544
-0.0557866
0.0151895
0.0158939
0.00457084
0.0277956
0.0128555
0.01789
0.0233265
0.00110296
-0.0134157
0.0142336
0.00631865
0.00517473
-0.00316315
-0.0271615
-0.0237231
-0.0486521
-0.0258973
-0.0942575
0.0102813
-0.0184135
-0.0537553
0.0151593
-0.0218165
-0.0501564
-0.020559
-0.0507234
-0.0870657
0.0336697
-0.0457448
-0.054028
0.0176798
-0.0230927
-0.0337946
0.00657963
-0.00221977
-0.053016
-0.0306728
0.0112372
0.00133556
-0.0649039
-0.0336931
0.0496862
-0.0410583
-0.0210675
0.0190862
0.0527808
0.00471148
0.129954
0.0571464
0.0335416
0.0883748
-0.0264404
-0.00739473
-0.0141951
-0.0404351
-0.0694071
0.0602065
-0.0208736
0.0344164
-0.0769395
-0.00486817
-0.0419537
-0.0443765
-0.00818992
-0.0115621
-0.017553
0.0268944
0.062066
0.0404743
0.0108995
0.0138265
-0.0269091
-0.0107497
0.0182721
-0.0146432
-0.0178678
-0.035623
0.00274488
-3.88286e-05
0.00434148
-0.0163489
0.0343009
-0.00206509
-0.0191202
0.000977171
-0.092809
-0.082161
0.00817291
-0.0178914
-0.0608623
0.0210002
-0.022226
0.00178566
-0.00450902
-0.00551227
0.00574742
-0.0150348
-0.00335035
-0.0115287
0
0
0
-0.031298
0
0
-0.00111478
0
0
0
0
0
0
0
0
0
0
0
0
0
0
0
0
-0.0437366
-0.0253546
-0.0147583
-0.01625
-0.02396
0.00629947
0.00190312
-0.0327381
-0.0199757
0.00790367
-0.0312093
-0.0313069
0.0147677
-0.0237865
0.0285587
0.000790413
-0.020358
-0.0166608
-0.00421105
-0.00627256
0.00692577
-0.0150765
-0.0117164
0.000798486
-0.0100894
-0.0115335
0.00160781
-0.0131605
-0.0199151
0.00137028
-0.00220638
-0.0128122
0.0141965
2.02133e-05
0
1.47674e-05
0
0
-5.9585e-06
1.26458e-05
-3.27842e-05
1.68549e-05
1.34785e-05
-1.86628e-06
0
0
0
0
0
0
0
0
0
0
0
0
0
0
0
0
0
0
0
0.0294229
0
-0.0963684
0.0284901
0.191751
-0.0415408
0.0545068
0.0188237
-0.0128413
0.0344184
0.0111386
0.00113189
0.0159435
0.0266462
0.00395799
-0.0157103
0.0279615
0.0156257
-0.026293
0.00747762
0.0216325
-0.00492183
-0.0109617
-0.0156675
0.00566839
0.000706308
0.00405095
-0.0173241
-0.0101593
-0.0145659
-0.0228792
-0.0229432
0.00726034
-0.00622776
-0.0182584
0.00331053
0.0104726
-0.0184123
0.027493
0.0188464
0
0
0.0327131
0.00341411
0.0205263
-0.00225476
0.0201944
0.0300036
-0.0485744
-0.00141015
0.0105194
0
0
0
0
-0.00270886
0.00491303
0
0.00684286
0
0
0
0
0
0
0
0
0.0422376
-0.014106
-0.020678
-0.0316992
0.00170631
0.00450052
-0.0235783
0.0210139
0.0246532
-0.000473246
0.0272376
0.00230993
0.0105187
0.0367461
0.0153977
-0.0146025
-0.0106517
-0.0496095
0.067637
0.0305011
0.0152611
-0.000406317
0.0309941
0.026356
0.00400309
0.00423868
0.00713153
0.0242692
0.00406666
0.0505162
0.057139
-0.0060171
0.0502814
-0.0708957
-0.0858562
0.0373122
-0.0653448
0.00356385
-0.0625978
0.0154146
0.0305921
0.0245744
0.0145023
-0.0550423
0.00927404
-0.0343474
-0.0168864
-0.043545
0
-0.0260133
-0.0113521
-0.00812864
-0.0242187
-0.0489594
-0.065104
-0.0159461
-0.0220862
-0.0215121
-0.0206938
-0.0115904
0.0304114
-0.0254577
-0.0667982
0.0370526
-0.00335565
-0.0691895
0.0106451
-0.0208797
-0.0292514
0.05897
-0.00121366
-0.0239999
-0.0296061
0.0184911
-0.0153988
0.0454986
0.0126024
-0.0254716
0.0424309
-0.022
0.0045777
-0.00513893
-0.0445921
0.0139646
-0.0383829
-0.0442652
-0.0297867
-0.0366847
-0.0517292
-0.0115069
0.054348
-0.0766262
-0.0547805
0.0528167
-0.0385293
0.00472376
-0.0268871
-0.0239519
0.0158493
-0.0327308
-0.0231414
-0.0225032
-0.0190568
-0.0183533
-0.0458576
0.0190404
-0.0171661
-0.0164989
-0.00135325
-0.00937723
0.00877443
0.0293193
-0.00172194
0.0113291
0.0152233
0.0132031
-0.00587637
-0.0403651
0.00374619
0.0328897
0.0129596
-0.0323475
-0.0349061
0.00668696
0.0232135
-0.00514046
-0.023411
0
0
0.0214214
0.0297727
0.0110538
0.0241553
0.00665682
0.01463
-0.0532725
0.0255968
-0.0163587
-0.027201
-0.0520745
0.00827948
0
0
0
0
0
0
0
0
0
0
0
0
0
0
0
0
0
0
0
0
0
0
0
0
0
0
0
0
0
0
0
0
0
-2.06227e-05
0
-1.01079e-05
0
-2.2559e-05
-1.08187e-07
-1.28858e-05
9.29022e-06
1.19087e-05
-4.81341e-05
0
0
1.47151e-05
0
0
0
0
0
0
0
0
0
0
0
0
0
0
0
0
0
-0.0234565
-0.00995235
-0.00461689
-0.00362869
-0.0248577
0.0235305
0.00836281
-0.00924103
0.000686447
-0.0223271
-0.020448
0.0157574
-0.00306465
-0.00864699
-0.00500254
-0.0141718
0.00107535
0.00930642
-0.0117319
0.00308482
-0.00942554
-0.0182173
-0.00984005
-0.00705579
-0.0157381
-0.0164019
0.00858854
-0.00832876
-0.00507679
-0.0123039
-0.0143338
0.00548729
0.00700939
0
9.49624e-06
0
0
0
0
0
0
0
9.05909e-06
0
0
0
5.27151e-05
-0.000137772
0
0
0
0
0
0
0
0
0
0
0
0
0
0
0
0
0
0
0
0
0
0
0
0
0
0
0
0
0
0
0
0
0
0
0
0.0508453
0.0577783
0.010331
0.0343123
0.118054
0.000331034
0.0445458
0.0496804
0.0226947
0.0243785
0.048494
0.0239149
-0.000348312
0.0410979
-0.0249845
-0.0108784
0.0435023
0.0327521
-0.0231378
0.0218499
-0.0399335
2.18001e-05
0
0
-5.75837e-05
-2.22281e-06
0
0
2.57456e-05
0
0
0
0
0
0
0
0
0
0
0
0
0
0
-0.00397466
0.00565516
-0.00410902
0.00159596
-0.00830781
-0.000232468
-0.00312617
-0.00337609
0.0196617
-0.0162264
-0.0134786
0.0185508
-0.032837
-0.0293689
0
0
0
0
-0.00958957
0
0
-0.0564736
0
0
0.0182535
0
0.0258685
-0.0227308
0.00890557
0.000433597
0
0
0
0
0
0
0
0
0
0
0
0
0
0
0
0
0
0
0.0393738
-0.0395021
0.00467927
0.0366095
-0.000553874
0.0346026
0.0153734
0.00663612
-0.0181512
0.0455828
-0.0421266
0.0466255
-0.00578863
0.0102464
0.00774093
-0.037699
0.00194769
0.0329502
-0.00471981
-0.0130959
-0.0181673
-0.112556
-0.0439464
0.0512224
0.00968742
0
0.0278275
0.0274253
0.0477605
-0.0360395
-0.101691
-0.065795
0.0389691
-0.00866778
-0.014001
0.00173013
0.0479035
-0.000741356
0.0674481
-0.083357
0.000258219
0.0673115
0.088852
-0.131369
0.0489211
0.0998939
0.056454
-0.119562
0.0581649
0.00301857
0.0649762
-0.0452162
0.0172927
-0.0428547
0.00351926
0
-0.0166292
0
0
-0.049235
0.0409021
-0.0255689
-0.0174829
-0.0143254
-0.0391953
-0.0236925
0.000976865
-0.0487857
-0.0408165
0.0308409
-0.038386
-0.0350712
-0.000923793
-0.0058076
-0.0373781
0.0020524
0.0278442
-0.0384307
-0.0139711
-0.0137524
-0.0562035
0.0455129
-0.0184149
-0.0312644
-0.0249116
-0.0114507
-0.041028
-0.052329
-0.0304365
0.00586321
-0.0524925
0.00182085
0.024223
0.0420623
-0.0431937
-0.0128984
-0.0550916
-0.023445
0.0604032
-0.0701071
0.0371319
-0.0063209
-0.0379665
-0.012776
0.0046765
-0.0163526
-0.00241388
0.018931
-0.032324
-0.00787841
-0.037807
-0.0114134
-0.0172216
-0.0711809
-0.0101098
-0.0403917
-0.0230565
0.0112772
-0.0519878
-0.018174
-0.0346174
-0.0546864
-0.00572949
-0.0179736
0.0465558
-0.05762
0.051397
-0.0527356
-0.0267682
0.00817605
-0.0514061
0.00668568
-0.0710588
-0.0160225
0.0581974
-0.0331476
0.0572136
-0.0229178
-0.00150319
0.0629208
-0.036531
0.0652316
0.0330228
0.020935
0.0672446
-0.0530486
0.0750513
0.0338743
0.0291656
-0.0723067
0.0311297
0.0817178
0.0564075
0.0244755
0.0834227
0.000995494
0.0814236
0.0795747
0.0492468
0.078488
0.0184346
0.0742088
-0.0855115
0.0747766
0.0707487
0.0757861
0.0244598
-0.0963306
0.0952675
-0.0782785
0.0120507
0.00065659
-0.0590202
0.0400578
0.00955703
0.0111802
-0.0154628
-0.044051
0.0156263
0.0562809
-0.0123066
0.0135582
-0.0134483
0
-0.0103253
0
-0.0397024
-0.0307941
0
-0.0256504
0
0
0.0332458
0
0.00723927
-0.056152
0.00904566
-0.0242401
-0.0242382
-0.00705233
0
0
0
0
0
0
0
0
0
0
0
0
0
0
0
0
0
0
0
0
2.64558e-05
7.70184e-05
0
0
0
0
0
0
0
0
0
0
0
0
0
-2.40508e-05
-8.8294e-05
0
0
0
0
0
0
0
0
0
0
0
0
-6.88717e-05
0
0
0
0
0
0
0
0
0
0
0
0
0
0
0
0
0
0
-3.07538e-05
7.05483e-06
0
-5.50992e-05
-1.98241e-05
0
1.19896e-06
7.36289e-05
0
0
0
0
0
0
0
0
0
0
0
0
0
0
0
0
0
0
0
0
0
0
0
0
0
0
0
0
0
0
-0.00225005
-0.0212273
0.027913
0.0116679
-0.0381569
-0.0318084
-0.0144874
0.00259703
-0.0188438
0.00302333
-0.00508008
0.0161475
-0.0160257
-0.00691529
0.010075
-0.0125678
0.00425345
-0.0170556
-0.012676
0.0016577
-0.009977
0.00956306
0.0179067
0.00512972
0.0114617
-0.00619229
-0.00250641
-0.0117814
0.00469397
0.0109574
-0.00684621
-0.010358
0.0143289
0
0
0
-0.000117136
0.000176407
0.000420911
0
0
0
0.000188858
0
0
8.7029e-05
0
-2.17446e-05
0
0
0
0
0
0
0
0
0
0
0
0
0
0
0
0
0
0
4.89565e-05
4.71137e-05
1.88888e-05
0
-4.63166e-05
0
0
0
0
0.0147637
0
-0.0780572
0.057183
-0.00899653
-0.0173986
0.0737245
0.0752746
0.0277311
0.0552426
0.0725908
0.0549557
0.0129221
0.0689557
-0.0521413
-0.00964845
0.0642081
-0.0571642
-0.0137017
0.0551574
0.0516437
-0.0254003
0.0474133
0.0302539
0.000238019
0
0
0.000258971
0
-3.68878e-05
0
-8.7787e-07
0
5.21564e-07
0
-1.13729e-06
-1.75629e-09
0
0
0
0
0
0
3.37249e-05
0
0
0
0
0
0
0
0
0
0
0
0
0
0
0
0.00422737
0
0.0105509
-0.0159068
-0.0167217
0.00543554
0.016178
0.00630014
0.00144213
-0.0150025
-0.0301958
0.00685237
0
0
0
0
-5.58417e-05
3.43924e-05
0
0
0
0
0
0
0
0
0
-0.00831778
0
0
-0.00150016
0.000658793
-0.000436879
0
0
0
0
0
0
0
0
0
0
0
0
0
0
0
-1.15011e-05
0
-1.18967e-05
0.0522363
0.0430299
-0.00282834
0.0365548
0.0350875
-0.0158589
0.0337304
0.0461457
-0.00916523
0.0273566
0.0392948
-0.00925711
0.0586328
0.0372745
0.0390015
0.064155
0.0340442
-0.0489373
0.0297303
0.064082
-0.0347327
0.0416272
0.076891
0.0390346
0.0269218
0.0821083
-0.0757766
-0.00423716
0.084304
-0.106523
-0.0153177
0.087161
0.108326
-0.0175545
0.0757654
0.0978609
0.0805418
0.107628
-0.0810243
-0.0192139
0.0995538
0.0762763
-0.0146211
-0.0895663
0.0175171
-0.0111166
-0.0176714
0.014065
0.00154937
0.0327035
-0.00956197
0.0505878
-0.0292677
0.027361
-0.0178159
0.0132266
-0.00325088
-0.0034558
0.0160282
0.0914423
0
0
-0.0312924
0.0467988
0.0343053
0.00912044
-0.00127737
0.0297362
-0.0124067
0.0338045
0.0275427
-0.186482
-0.0211807
0.00611309
0
0
0
-0.0346101
0
0
-0.124149
0
0
0
0
0
0
0
0
0
-0.014128
0
-0.0145996
0
-0.00965119
-0.00277207
-0.0147184
-0.0100629
-0.0330255
-0.0467927
-0.0269301
-0.0153509
-0.00708378
0.0121846
-0.0369683
-0.0539675
-0.0313928
-0.0311372
-0.0467473
0.0228476
0.0109659
-0.0169803
-0.0223685
0.0273041
-0.0323747
0.0112243
0.0425314
-0.0229245
-0.0353467
0.00613097
0.0532109
-0.0577296
-0.00488373
0.0607522
0.0465411
-0.0017562
0.0708891
0.0587027
-0.00978513
0.0581235
-0.0651675
0.0224259
-0.0139727
-0.0488889
-0.0444525
-0.0453189
-0.0212734
-0.0642722
-0.0357663
0.0401309
-0.0559176
-0.0742545
-0.00409971
-0.0487359
-0.0630905
0.000124709
-0.0552198
-0.0405595
0.0255176
-0.0756606
-0.0275566
0.0424726
-0.0592103
-0.0204724
-0.0739595
-0.0989043
-0.0369806
-0.0581193
-0.0562041
-0.0200342
0.0626356
-0.050343
-0.00340851
0.0668916
-0.0503061
0.0130126
0.0709668
-0.0573457
0.0217407
0.0760122
-0.0289442
0.0220931
0.0811338
0.00632924
0.048656
0.0746936
0.028592
0.0821051
-0.0701489
0.0296331
0.0966432
0.0703534
0.0165417
0.100688
0.0977017
0.0700635
0.0171571
0.0814503
0.10189
0.0832326
-0.0721454
-0.0116578
0.0770403
0.0889218
0.0665391
0.087664
-0.0303177
0
0
0.0114758
0.00936228
-0.00610366
-0.0151683
-0.0313516
0.0340563
0.091804
0.0111162
-0.0187656
0.0345418
0
-0.0128845
0
0
0
0
0
0.00518301
-0.00746238
0
0
0
0
0
0
-6.622e-05
0.000131865
0.000113905
0
5.87897e-05
0
0
0
0
0
0
0
0
0
0
-0.000144804
0.000411932
-0.000560329
0
0
0
-1.40164e-05
0
8.75597e-05
0
-2.98935e-05
0
0
0
0
0
0
0
0
4.82455e-06
-4.24404e-05
0
0
0
0
-0.000102108
0
0
0
0
0
0
0
0
-1.60834e-07
-9.31781e-07
0
0
0
0
0
0
0
0
0
0
0
0
0
0
0
-3.39269e-05
0
0
0
-5.60982e-05
-6.06869e-05
0
0
0
0
0
0
0
0
0
0
0
0
0
0
0
0
0
0
0
0
0
0
7.71499e-07
0
0
0
0
0.00474601
-0.0347398
0.0336725
0.0238552
-0.0166584
-0.0301562
-0.0101823
0.003548
-0.019905
-0.00810096
0.00271546
-0.00974471
-0.00896727
0.00442354
-0.0133342
-0.00296102
0.0160239
0.0111177
-0.00357626
-0.000355472
0.0113851
0.0202421
0.00693582
-0.00546176
-0.0209147
0.00443308
-0.0200843
-0.00941941
0.000523129
0.0180561
-0.01132
-0.00705915
0.0139634
-0.000323748
0
-0.000111705
8.6132e-06
-0.00058589
-0.000244342
0
0
0
0
0
0
0
0
0
0
0
0
0
0
0
0
0
0
0
0
0
0
0
0
-6.69929e-05
0
0
0
0
0
0
0
0
0
0
0
-0.022365
0
-0.0960371
0.033967
-0.00894178
-0.0274472
0.0398861
0.0382359
0.0267216
0.0324083
0.0417076
-0.0491373
-3.89019e-05
0.0416374
0.0394442
-0.02174
0.0440657
0.0467098
-0.0207397
-0.00476227
0.0422034
-0.0259673
0.031553
-0.0362534
0
0
0
0
0
0
0
0
0
0
3.68769e-07
0
0
0
0
0
0
0
0
-0.00637837
0
0
0
0
0
0
0
0
0
0
-0.00762798
0
0.00233567
0
0
0
0
0
0
0
0
0
0
-0.00531024
0
-0.0197195
-0.0012665
0.00352689
-0.0128212
-0.00238711
-0.00529671
0
0
0
-2.1474e-05
0
0
-0.0406767
0.00690005
-0.0157629
0.00424458
0
0
0
0
0
0
-1.46345e-05
-2.24647e-05
3.05032e-06
0
-7.99979e-06
0
-0.000655749
0
0
0
0
0
0
3.7213e-07
0
-1.27757e-05
0
0
0
0
0
0
0
0
0
0
0
0
0
0
0.0365889
0.0243139
0.071584
-0.0356088
0.0449926
-0.0753546
0.0327654
0.0550294
0.0173944
0.0295686
-0.0645629
0.0511896
-0.021914
-0.0214379
0.0328879
0.0568924
-0.00729904
0.0667242
0.0778567
-0.0601509
0.0667008
-0.0318802
0.0704939
-0.0521552
0.0593541
0.0743975
-0.0427646
0.0892307
-0.0500115
0.058135
-0.0929242
0.107531
-0.065574
-0.0657232
0.0569695
0.0927242
-0.0273634
0.0835227
0.109793
-0.0212386
0.0801067
-0.106326
0.000260345
0.0784938
0.079763
0.0518211
0.0197583
-0.0204153
0.0291372
0.0202296
-0.0323293
0.021887
0.0279054
0.0153316
-0.00184433
0.034089
-0.0291068
0.064013
0.0325358
0.0661243
0.0697105
0.00276447
0.0680983
0.0306581
0.0783717
0.03795
0.00548505
0.0791962
0.0786948
-0.0277895
0.0832664
0.122602
-0.0430603
0.0877796
0.144491
-0.0324347
0.0865785
0.127336
-0.0141379
0.0843096
0.0998463
0.0807601
-0.0296342
0.101604
0.0803997
-0.0184025
0.101522
-0.0166702
0.0111969
-0.0367313
-0.00348025
-0.0116907
-0.0280938
0.00683046
-0.00278626
0.00894521
-0.0448806
-0.0165119
0.0126667
0.00556555
0
-0.0112031
0.0232522
0.0172654
0.0135224
0.0772588
0.0566991
0.0220792
0.0803668
-0.0548066
0.0475577
0.0800328
0.0455396
0.0485506
0.0934574
0.0467083
0.027857
0.0927693
0.035151
0.0295081
0.0587737
0.0245505
0.0268939
0.0367876
0.0191402
0.0365072
0.0486685
0.0484451
0.0195499
0
1.59808e-05
2.50942e-05
0
0.0254334
0.048808
-0.0278801
0.0107048
0.0119792
-0.191711
-0.0352152
0.00835146
1.37829e-05
-0.0466176
-1.04417e-05
2.11711e-05
-1.33019e-05
-6.69545e-06
0
-4.30646e-05
0
0
0
0
0
0
0
0
0
0
0
0
0
-0.020831
4.94015e-05
7.34347e-05
-0.0216147
0.0110172
-0.03847
-0.0301003
-0.0113954
-0.0391395
-0.038842
-0.0196424
0.00864017
0.00140041
-0.0288921
-0.0240252
0.027454
-0.00758813
-0.0266508
0.055003
0.0421592
0.0419029
0.0367645
-0.00517309
0.0482213
0.0305165
0.000813141
0.0466329
-0.0231896
0.0279054
-0.0683107
-0.0520562
0.007658
-0.0646048
-0.0439567
-0.00403985
0.0666947
-0.0689125
-0.00821988
-0.0760724
-0.0202658
-0.0633766
-0.047288
-0.0674626
-0.056337
-0.022679
-0.0765182
-0.0483654
0.04112
-0.0666888
-0.0650829
-0.00344757
-0.068674
-0.0965291
0.0056259
-0.0863657
-0.0558872
0.0412877
-0.0586009
-0.0398894
-0.0929381
-0.104328
-0.037333
-0.0498028
-0.0742573
-0.0357039
0.0566866
-0.0765408
-0.0217714
0.0626429
-0.0616863
-0.0113936
0.0715504
-0.055958
0.00982201
-0.074693
-0.0602659
0.0148835
0.0843943
-0.0282675
0.0160315
-0.0728364
0.0051446
0.0382364
-0.0661187
0.0222088
0.06276
0.0601514
0.0213476
0.0726499
-0.0559331
0.00985332
0.0696447
-0.05362
-0.057747
0.0658663
0
-0.00693852
0.0302196
0
0
0
0
-0.0300433
0
0
-0.0369665
0
0
0
0
0
0
0
0
1.60707e-05
0
8.16575e-05
0
0.0107123
0
0
0.000146147
0
-0.000101073
0
-0.00017815
0
-6.56405e-05
0
0
0
0
0
0
0
0
3.71229e-05
5.26058e-05
-1.77499e-05
-6.6299e-05
0
-0.000153233
5.69233e-06
-5.37393e-05
7.19498e-06
0
0
0
0
0
0
0
0
0
0
0
0
-4.21175e-05
0
-0.000111849
0
0
0
0
0
0
0
0
0
0
0.00332081
0.00210875
0
0
0
0
0
0
0
0
0
0
0
0
0
0
0
0
0
0
0
4.83251e-05
-0.00011062
-0.000119506
0
0
0
-0.000140661
-7.01547e-05
0
0
0
0
0
0
0
0
0
0
0
0
0
0
0
0
0
0
0
0
0
0
0
0
0
0
0
9.47709e-06
0
-4.0979e-05
0
0
0
-9.44469e-06
0
1.66381e-05
0.00976233
0.0139774
-0.0570495
-0.0125572
0.0574549
-0.0258215
0.0792282
0.051225
0.0144468
-0.00634217
-0.0364981
0.0334291
0.012317
0.033313
-0.00357149
0.0119285
-0.00720745
-0.00340059
0.00285586
0.00395082
0.00120754
0.0181448
-0.00849796
0.00467291
0.00071092
-0.00683236
9.92745e-05
0.014666
0.00907603
0.0126613
0.00418113
-0.0458525
0.0122884
-0.03487
0.00343781
0.0179691
-0.0175741
-0.000153462
0
0
0
0
0
0
0
0
0
0
0
0
0
0
0
0
0
0
0
0
0
0
0
0
0
0
0
0
0
0
0
0
0
0
0
0
0
0
0
0
-0.0519077
0.10479
0.0101577
-0.0205164
-0.00919337
0.00821419
-0.00814922
-0.000868789
0.0135616
0.0202046
-0.0132571
0.0076397
0.0396695
-0.00251646
0.00826457
0.030961
-0.0159469
0.0146064
-0.0126662
-0.0156367
0.0122466
0.0116387
-0.00247314
0.0109369
0
0
9.37841e-06
7.23102e-07
0
0
0
0
0
0
0
0
0
0
0
0
0
0
0
0
0
0
0
0
0
0
0
0
0
0
0
0
0
0
0
0
0
0
0
0
0
0
0
0
0
0
0
0
0
0
0
0
0
0
0.0136598
-0.0464043
-0.00163452
-0.00494588
0.00997159
-0.0068928
-0.00506204
0
-0.00429568
0
0
0
0
0
0
0
-0.00301964
-0.0213035
0.00355205
0
0
0
0
0
0
0
0
0
0
0
0
0
0
0
0
0
0
0
0
0
0
0
0
0
0
0
0
0
0
0
0
0
0
0
0
-0.0212412
0.0521956
0.063445
-0.037146
0.0454304
0.0887574
-0.0323915
0.0234597
-0.0715948
-0.0698266
0.0117511
-0.0495102
-0.0114037
0.0739235
-0.0789505
-0.0245318
0.0683377
0.0870791
-0.0220495
0.0718831
-0.0854802
-0.00745119
0.0649128
-0.0635666
-0.0269569
0.0851911
-0.107087
-0.00374557
0.0867485
0.098027
-0.00840161
0.089232
-0.104313
0.0488794
-0.0204248
-0.0452415
0.0392385
0.00383886
0.0377632
0.0184986
-0.0131037
-0.0236985
-0.0216504
0.0152288
0.0550268
0.0605533
0.0288062
0.0497876
0.110175
0.0534561
-0.0405883
0.082724
0.0735629
-0.00156873
-0.0779224
0.0535518
-0.0129196
0.0989135
-0.037492
0.0772465
0.119593
-0.0584152
0.0791502
0.142478
-0.0480237
0.091667
0.138873
-0.0266968
0.0863067
-0.116222
-0.0256967
0.0759068
-0.105023
0.078413
-0.021405
-0.0989958
0.0943128
-0.00771197
0.0896395
0.0241387
-0.0770931
0.00864736
-0.00609079
-0.0420363
0.0525533
0.0327825
-0.0848405
-0.0429514
-0.039336
-0.00331935
0.0683967
-0.0356574
-0.0872451
0.0492299
0
0.00804398
0.0529363
0.0232996
0.0139811
0.0680267
-0.0427452
0.0301895
0.0778334
-0.0460405
0.0333764
0.0447873
0.0839141
0.0485132
0.0789472
0.0315388
0.043167
0.0801881
-0.0276701
0.0208671
0.0553522
0.0195724
0.0205
0.0405061
-0.0120611
0.0318002
0.0430211
0.0138046
0.02784
0.0478809
-0.0159927
0.0412621
0.0756176
0.0364999
0.0268453
0.0432331
0.0536652
0.0609521
0.0148448
-2.57084e-05
3.26192e-05
6.46556e-05
-6.42162e-05
-0.0356075
3.48362e-05
0
-0.154453
0
0
0
0
-0.000108325
0
0
0
0
0
0
0
0
0
0
0
0
0
0
0
3.76637e-05
3.13808e-05
0
-2.42834e-05
0
-0.00283761
0
0
-0.0598689
-0.0352611
-0.0587955
0.163669
0.0472205
0.0340369
-6.7907e-05
-0.00171626
0.00634628
0.0439371
-0.0529544
0.00294047
0.0443208
0.0277103
-0.0227917
0.0592778
0.00916733
0.0484731
0.0426423
-0.0135336
-0.0594274
0.0134787
-0.0456389
-0.0796098
-0.0553381
-0.00138873
0.0774472
-0.0677302
0.0461259
0.0827211
-0.0524814
-0.014027
-0.0706939
-0.0391376
0.0159426
0.0862708
-0.0290202
-0.0779134
-0.0532607
-0.0721525
-0.0649566
-0.017288
-0.088631
-0.0501491
-0.0429961
-0.0917771
-0.101422
-0.00786183
-0.0794133
-0.08251
0.0273488
-0.0514386
-0.023277
-0.079318
-0.0707298
0.0217322
-0.0811554
-0.0536845
0.039223
-0.0848419
-0.0416547
0.0490771
-0.0835173
-0.0309078
-0.0649005
-0.0654493
-0.0150879
0.0739737
-0.0602132
0.00263053
-0.0752485
-0.0583985
0.0127793
0.0711025
-0.0302172
0.00575697
0.0486734
-0.00684693
0.0146822
0.0460937
0.00903618
0.0337282
-0.0450407
0.0137023
0.0566127
-0.0419663
-0.0434566
0.0620769
0
0
0
0
0
0
0
0
0
0
0
0
0
0
0
0
0
0
0
0
0
0
-0.000137309
0
0
0
0
0
0
-1.50095e-06
0
0
0
0
0
0
0
0
-6.57409e-07
4.24541e-06
0
0
2.94404e-05
-2.07409e-05
-2.21012e-05
0
2.38669e-06
0
0
0
0
0
0
0
0
0
0
0
0
0
0
0
0
0
0.00339789
-0.00300927
-6.95907e-05
0
0
0
0
0
0
0
0
0.00509071
0
-0.00199579
0
-0.00233852
0
0
0
0
5.77808e-06
0
-3.06863e-05
0
0
0
0
0
0
0
0
0
0.00041144
9.2227e-05
0.000713204
0
-9.50899e-05
0
-0.00049645
0.000917885
-0.000877843
0
0.000142046
0
0
0
0
9.84384e-06
0
-6.36438e-05
0
-1.48628e-05
-2.30003e-05
0
0
0
0
0
0
0
0
0
0
0
0
0
0
0
0
0
0
0
0
0
-5.55585e-06
0
7.35289e-06
0
0
0
-4.33452e-05
0
0
0
0
0
0
0
0
0.0410273
0.0197479
0.0575515
0.0372592
0.0289193
0.0200642
0.0452979
0.0189003
0.0388168
0.0025349
0.0132407
-0.0463688
0.0516412
-0.0243537
0.0121991
0.00424623
0.00234832
0.00933088
-0.0126201
0.00831381
-0.00114882
0.00896213
0.0224017
-0.0105115
0.00189601
-0.000269171
-0.0119722
0.00542124
-0.0006128
-0.0159599
0.00755004
-0.0192541
-0.017528
0.0169118
-0.00851443
-0.0288277
0.0048921
0.0101783
-0.00512986
-0.000591315
0
0
0
0
0
0
0
0
0
0
0
4.42989e-06
0.0731044
-0.0627319
1.23535e-05
0
0
0
0
0
0
0
-7.91085e-06
0
0
0
0
-4.08603e-07
0
8.00006e-07
0
3.90495e-07
0
0
0
0
0
0
0.0229302
0.00418384
-0.00794551
-0.0107483
-0.0285028
0.0412491
0.0305373
-0.0459777
-0.0190161
0.0222424
0.0164428
0.00605364
-0.0150172
-0.0146852
-0.00593089
-0.0222096
-0.0195147
-0.0105985
2.02603e-05
0.00925468
-0.000527587
0.00542556
0.00954688
0.00313426
1.36619e-08
0
0
7.50313e-07
0
-7.89366e-06
0
0
0
0
2.3412e-10
0
-1.26883e-06
0
1.2717e-06
0
0
0
0
0
0
0
8.4475e-05
0
1.26982e-05
-5.77468e-05
3.16096e-05
4.31786e-05
0
0
0
0
0
0
0
0
0
0
0
0
0
0
0
0
-1.36497e-05
5.45254e-05
0
0
0
0
0
0
0
0
0
0
0
0
0
0
0
0
0
-1.95411e-05
0
2.59561e-05
0.00497046
0.0240269
0.0226897
-0.00631493
-0.0438992
-0.0207756
0
0
-0.0161339
0
0
0
0
1.29045e-05
0
-1.55765e-05
0
2.79058e-05
3.86697e-06
0
0
0
0
0
0
0
0
0
0
2.6899e-05
-1.374e-05
0
0
0
0
0
0
0
0
0
0
1.82109e-05
1.09294e-05
4.19967e-06
0
3.8716e-05
0
0
0
0
0
0
0
0
0
-8.00858e-06
0
2.7926e-05
-0.0405964
0.042146
-0.0617799
-0.0582594
0.0431435
-0.0633582
-0.0022237
0.0368797
0.0741369
0.0169197
0.0451231
0.0247115
0.0227997
-0.00873707
-0.00301589
-0.0583875
0.000116225
-0.0143368
-0.0546266
-0.0191971
-0.0146315
0.0826907
0.104762
-0.0054599
0.0812516
0.0844079
0.01401
0.0736039
0.0478716
-0.00330357
0.0678617
0.041005
-0.00474975
0.0907082
-0.0901488
-0.0173799
0.0950354
-0.12115
-0.0247833
0.0981325
0.121463
0.0204042
-0.0429687
-0.0764264
-0.00280268
-0.0259944
0.0470445
-0.0102247
-0.0351303
0.022395
-0.0347006
0.00951044
0.0621006
0.0558986
-0.0395924
0.0986964
0.0421162
-0.0441515
-0.0769429
0.0718616
-0.0356627
0.115333
0.0640382
-0.0463879
-0.12385
-0.0462779
0.074867
-0.122132
-0.0396937
0.0826243
-0.119612
-0.0211463
0.0816248
0.0974947
-0.0126477
0.0872442
0.0855993
-0.0127927
0.0720425
-0.0923427
0.0903858
0.00940044
0.0740629
0.0486259
0.00397491
-0.0956722
-0.0389424
-0.0358783
-0.0793785
0.0134267
-0.0708482
0.0478641
-0.040873
-0.0537349
0.00282363
-0.0391161
0.0063285
-0.0614361
0.0839881
0.0807795
-0.043759
0
0.0336612
-0.0258543
0.028695
0.0222857
0.0570729
0.0289535
0.0391379
0.0651113
-0.0267359
-0.0310118
0.0706893
0.0397043
0.0426126
0.0526799
0.0143822
0.0411049
0.0587883
-0.0142024
0.0383361
0.049643
0.00208752
0.0397787
0.0403783
0.00367839
0.0343386
0.0375135
0.00790188
0.0439655
0.051262
-0.00110289
0.0326315
0.0423957
-0.00949965
0.045657
0.032645
-0.00445858
0.0235493
0.0232027
0.00112876
-5.18271e-05
0
0
0
0
0
0
0
0
0
0
0
0
0
0
0
0
0
0
0
0
0
0
0
-9.26046e-06
0
-4.5906e-05
0
-2.46315e-05
0
0
0
0
0.00255926
0
0
0.0134953
0.0275115
0.00963303
0
0.0253296
-0.028569
0.01846
-0.00287137
-0.0127363
-0.010699
0.039157
0.0389128
0.00696629
-0.00487566
0.014403
0.0267832
-0.00168108
0.0480983
0.0480049
-0.0306948
-0.0536895
0.0341967
-0.0152311
0.0813327
0.117156
-0.0160165
0.0420324
-0.0969251
-0.0722974
0.0864449
-0.0602307
-0.00278531
0.0977124
-0.0477607
0.0382728
-0.113647
-0.0213573
-0.076723
-0.0759373
-0.0842413
-0.0717781
-0.0329337
-0.0714714
-0.0246662
-0.0631279
-0.0832351
-0.0963374
0.011822
-0.0819976
-0.0655136
0.0179338
-0.0866045
-0.0712372
0.0302224
-0.092203
-0.0668466
0.0420663
-0.0915257
-0.0558165
0.0536395
-0.0791774
-0.032726
0.06774
-0.062575
-0.0187692
0.0655191
-0.0514394
0.00298292
-0.054903
-0.0455382
0.000119923
0.0351214
-0.0289237
-0.0111981
0.0265386
-0.0104719
-0.000659044
0.0261292
0.0139442
0.0238853
-0.038674
-0.0292891
0.0626608
0
0.00948609
0.00654337
0
0
-7.13507e-07
7.49369e-07
0
0
0
0
0
0
0
0
0
2.74497e-05
-1.28936e-05
0.000151509
4.35787e-05
-0.000155845
-8.70367e-06
3.79428e-05
4.24678e-05
-3.65656e-05
0
1.62182e-05
-7.49391e-06
0
-0.00453105
-0.00365392
0
0
0
5.52828e-05
0
-3.30656e-06
4.85376e-06
1.91086e-05
4.82587e-05
0
3.67862e-05
0
0
0
0
0
0
0
0
0
0
0
-3.18016e-07
1.0338e-07
0
0
0
0
0
0
-0.000521192
0
-0.00506169
0
-0.0116224
0
0
0
0
0
0
0
0
0
0
0
0
0
0
0
0
0
0
0
0
-3.46374e-05
0
0
0
0
0
0
0
0
0
0
0
0
1.04121e-05
0
0
0
0
0
0
0
0
0
0
0
0
0
-7.65323e-05
0
0
0
0
0
0
0
0
0
0
0
0
0
0
0
0
0
0
0
0
0
0
0
0
0
0
0
0
0
0
0
0
0
0
0
0
0
0
0
0
0
0
0
0
0
0
0
0
0
-1.10416e-06
3.12664e-11
0
0
0
0
0
0
-6.76195e-05
0.0286561
-0.0142212
0.0166957
0.0126954
-0.00763234
-4.83839e-06
0.00733795
-0.0114418
0.041563
-0.0136199
0.0290404
0.0440576
-0.022641
0.00853189
0.0679511
-0.00818518
0.0520489
0.0279774
0.0206069
0.0625516
-0.0515448
-0.00884945
0.0118429
0.0135857
-0.00447727
0.0251699
0.00571965
0.0112252
0.0256683
-0.00613702
-0.00673399
-0.00315931
-0.0178882
0.00217835
-0.00660563
0.00419065
0.020477
-0.0455921
0.0113749
-0.00632733
0.00382139
0.0151319
0.00720557
0
0
0
0
0
0
0
-0.060623
-0.0694092
0
0
0
0
0
-0.000260918
-7.36508e-05
0
0
0
0
0
0
0
0
0