/*--------------------------------*- C++ -*----------------------------------*\
  =========                 |
  \\      /  F ield         | OpenFOAM: The Open Source CFD Toolbox
   \\    /   O peration     | Website:  https://openfoam.org
    \\  /    A nd           | Version:  8
     \\/     M anipulation  |
\*---------------------------------------------------------------------------*/
FoamFile
{
    version     2.0;
    format      ascii;
    class       volScalarField;
    location    "19620";
    object      alpha;
}
// * * * * * * * * * * * * * * * * * * * * * * * * * * * * * * * * * * * * * //

dimensions      [0 0 -1 0 0 0 0];

internalField   nonuniform List<scalar> 
526318
(
0.000161025
0.000271562
0.00018002
0.000323524
0.000157411
0.000194663
0.00013139
8.06638e-05
8.46291e-05
0.000222873
0.000261557
0.000210904
8.4319e-05
0.00032308
0.000127698
0.000173191
0.000128645
7.17603e-05
7.02905e-05
0.000187006
0.000303167
0.00032099
9.04952e-05
0.000161117
0.000216875
0.000139378
0.000184082
0.000153387
4.55866e-05
0.000144485
0.000150592
8.2231e-05
9.18966e-05
0.00029995
0.000141215
0.000197208
0.000342851
0.000209765
0.000352966
0.000122745
0.000191067
0.000243784
0.000222244
0.000317376
0.000293287
0.000187219
0.000140699
0.000203409
0.000272171
0.000334712
0.000167485
0.000224172
0.000270257
0.000216888
0.000226964
0.000298712
0.000209185
0.000376795
0.000200149
0.000194659
0.000108572
0.000106345
7.3566e-05
0.000112252
8.22473e-05
0.000161394
0.000107758
0.000189635
0.000166341
0.000143125
7.33371e-05
0.000229923
0.000114997
0.000268699
0.000271654
0.000299598
0.000267326
0.000319323
0.000217598
0.000185962
0.00016251
0.00023128
0.000299964
0.000320539
0.000142066
0.000153354
0.000283448
0.000148362
0.000193934
0.000166617
0.000236364
0.000214056
0.000175552
0.000185885
0.000208555
0.000156575
0.000217364
0.000234351
0.000146561
0.00017065
0.000307218
0.000995096
0.0006967
0.000627074
0.0002712
0.000218762
0.000191075
0.000415757
0.000190298
0.000228393
6.79039e-05
8.27972e-05
0.000171623
0.000197245
6.73732e-05
0.000121632
7.21416e-05
0.000153331
2.18671e-05
5.52117e-05
9.20691e-05
0.000123191
0.00019219
7.75325e-05
0.000137856
5.58266e-05
0.000108037
1.32311e-05
2.60365e-05
4.45452e-05
6.92791e-05
6.41076e-05
7.56448e-05
4.81864e-05
4.29664e-05
3.70105e-05
6.22713e-05
7.80382e-05
7.01936e-05
2.16683e-05
7.60914e-05
5.14605e-05
8.96749e-05
6.39707e-05
3.07536e-05
1.59885e-05
5.56083e-05
2.40942e-05
0.000147151
5.52157e-05
1.05309e-05
0.000131357
0.000113302
0.000354005
1.83213e-05
7.97078e-05
0.000143777
0.000203365
0.000383714
0.000174493
0.000307787
0.000181378
0.000169289
0.00023906
0.000147578
0.000142029
7.02205e-05
0.000182969
0.000166449
0.000225016
0.000320925
0.000177233
0.000225243
0.000316543
0.000276722
0.000299101
0.000294584
0.000172764
0.000200102
0.000207218
0.000175692
0.00018403
0.000111236
0.000207912
0.000159252
0.000201222
9.25428e-05
5.01437e-05
0.000112859
2.59732e-05
8.39426e-05
6.73342e-05
9.9885e-05
9.10324e-05
6.60177e-05
7.9079e-05
6.54953e-05
1.13262e-05
0.000139465
6.92427e-05
2.53795e-05
0.000445308
8.75375e-05
8.40479e-05
0.00011586
0.00021962
0.000300186
0.000191334
0.000162006
0.000205333
0.000291446
0.000223728
0.000183405
0.000122719
0.000234641
0.000233664
0.000112895
0.000342909
0.000374675
0.000288663
0.00026361
0.00033413
0.000222633
8.96726e-05
7.75106e-05
0.000382641
0.000281473
0.000104598
0.000137457
0.000380212
0.000947262
0.000238411
0.000429848
0.00254518
0.00201954
0.00126926
0.000279033
0.000362869
0.00142187
0.00011034
9.1745e-05
0.000136154
0.00010312
9.66106e-05
8.86226e-05
0.000161962
7.07147e-05
0.000183765
0.000143974
0.000180125
0.000182316
0.000213686
0.000156821
0.000203125
0.000173757
0.000134145
0.000120261
9.5806e-05
9.60943e-05
0.000121006
0.000185902
0.00408195
0.00560611
0.000843298
0.00189565
0.000444467
0.000780544
0.000673564
0.000313338
0.000182559
0.000311662
0.000197248
0.000304938
0.000238292
0.000116549
6.11525e-05
6.87311e-05
9.84133e-05
0.000106396
0.000315189
7.41175e-05
6.58536e-05
3.55281e-05
0.000125418
1.77072e-05
2.80563e-05
6.83343e-05
4.15393e-05
8.06366e-05
7.73171e-05
2.1469e-05
1.7687e-05
8.79173e-05
6.89033e-05
0.000161673
0.000278855
0.000324783
0.000243431
0.000346133
0.000318971
0.000343827
0.000239093
0.000177132
0.000303803
0.000201531
0.000256903
2.18112e-05
4.40384e-05
6.11277e-05
0.000219573
0.000125107
8.003e-05
0.000112735
0.000157975
0.000161348
0.00011855
0.000323008
0.000338115
0.000342458
0.000352823
0.000161215
0.000232771
0.000176122
0.000187013
0.00028728
0.000218077
0.000313683
0.000338023
0.000282779
0.000277929
0.000198084
0.000257152
0.000223711
0.000206409
0.000159145
0.000204694
0.000186334
0.000179129
0.00014911
0.000253087
0.000260157
0.000194506
0.000155672
0.000223171
6.28913e-05
0.000180035
0.000101277
7.29735e-05
4.6883e-05
0.000107454
7.04542e-05
8.77492e-05
6.33663e-05
3.66084e-05
2.63587e-05
0.000143998
4.79038e-05
8.08303e-05
8.12238e-05
0.000274921
0.000133763
3.64829e-05
0.000273777
0.000189535
0.000186376
0.000249238
0.00023493
0.000283672
0.000308019
0.000321453
0.000271827
0.000234726
0.00028297
0.000318888
0.000298251
0.00028487
0.000232591
0.00018299
0.000121461
0.000114202
0.000274371
0.000367545
8.43837e-05
0.000158415
0.000384387
0.000222131
0.000247697
0.000290366
0.000224242
0.000588005
6.82282e-05
0.000344608
0.000205773
0.000178369
0.000300734
0.000164015
9.43068e-05
0.000271535
0.000344044
0.000671487
0.000893693
0.000654416
0.000142157
0.000407286
0.000157474
0.0119103
0.00377249
0.00264993
0.0135093
0.116507
0.00488692
0.0044114
0.000156766
0.00186777
0.00163467
4.13329e-05
8.56781e-05
6.41929e-05
9.62128e-05
0.000146069
0.000136067
0.000199211
0.000140022
0.000190655
0.000102945
0.000167031
0.000246633
0.000220344
0.00015571
0.000140973
0.000138595
0.000153843
0.000156833
0.000115422
0.000132642
0.000165559
7.36828e-05
0
0.000454247
0.00047597
0
0
0
0
0.000305454
0.000624734
0.000238552
0.0124978
0
0
0
0.086869
0
0.00527635
0.00225661
0.00149305
0.00133476
0.000599745
0.00056003
0.000506653
0.000506741
0.00030896
0.000526263
0.00024469
0.000179478
0.000108644
0.000127109
3.03142e-05
8.21713e-05
0.000107827
2.91868e-05
0.000166671
0.000120822
0.000103266
8.3045e-05
0.000153733
8.11142e-05
5.90661e-05
0.000102988
9.74886e-05
6.658e-05
5.38158e-05
6.81635e-05
4.81243e-05
5.88819e-05
0.000102763
6.79805e-05
0.000201009
0.000229846
0.000280081
0.000260815
0.000275589
0.000357916
0.000309815
0.00032533
0.000122406
0.000195913
0.000154674
6.0541e-05
0.000103076
0.000163348
0.000114314
0.000107037
0.000154781
6.57089e-05
0.000136009
0.000256335
0.000318262
0.000303517
0.000287481
0.000311986
0.000275892
0.00025971
0.000258829
0.000351676
0.00030336
0.000342856
0.000314182
0.000371509
0.000402842
0.000256841
0.000206719
0.00017328
0.000331349
0.000260181
0.000278936
0.000303485
0.000259181
0.0002574
0.000231542
0.000340966
0.000254326
0.000208346
0.000239363
0.000156894
5.86965e-05
0.000138214
8.89481e-05
0.00021697
0.000108909
0.000288058
0.00028398
0.000306425
0.000247486
0.000173987
0.000284749
0.000126082
0.00021801
4.88767e-05
0.00015778
3.93156e-05
6.59701e-05
5.97741e-05
8.63127e-05
4.06083e-05
8.6271e-05
2.79952e-05
5.83171e-05
0.000102802
2.63373e-05
0.000169015
0.000223665
0.000104818
0.000177585
0.000151615
0.000273939
0.000244428
0.00019267
0.000278674
0.000200494
0.000233994
0.000248128
0.000237763
0.00020923
0.000230397
0.000262023
0.000231788
0.000206174
0.000242729
0.00023553
0.00021464
0.000350735
0.000207065
0.000213496
0.000410331
0.000622451
0.000402945
0.000223758
0.000404586
0.000191028
0.000208012
0.000235773
0.000310336
0.000263276
0.000203996
0.000223824
0.000221336
0.000232366
0.000251568
0.000228757
0.000268776
0.000320337
0.000268346
0.00157547
0.00059038
0.000121605
0.000203313
0.000339159
0.0526082
0
0.106426
0.0830684
0.033919
0
0.00414479
0.0145155
0.00334867
0.00157384
0
0
0
0
0
0
0
0
0
0
0.00656447
0
0
0.00237941
0.00262084
0.0069426
0
0
0
0
0
0
0
0
0
0
0
0
0
0
0.000156734
8.54086e-05
0.0001098
8.29217e-05
9.13422e-05
9.04093e-05
0.000252773
0.000139336
0.000186578
0.000209649
0.000177617
0.000155509
0.000149124
0.000128288
0.000186881
0.000198843
0.000149701
0.000117272
0.000138959
0.000244463
0.000118575
0.000138094
0
0
0
0
0
0
0
0
0
0
0
0
0
0
0
0
0
0
0
0
0
0
0
0
0.0455911
0.00520875
0.00141213
0.00293157
0.00102849
0.00116305
0.000512773
0.000436736
0.000404411
0.000460419
0.000203052
0.000302511
0.000170105
6.05332e-05
7.02325e-05
0.000148833
0.000150341
9.54716e-05
6.02307e-05
9.71456e-05
0.000176365
4.80123e-05
0.000114778
0.000133765
0.00242501
0
0
0
0
0
0
0
0
0
0
0
0
0
0
0
0
0.000178615
8.07755e-05
0.000112006
7.55205e-05
7.97092e-05
6.6562e-05
8.46048e-05
5.44364e-05
9.39535e-05
6.50411e-05
0.000121104
0.00012361
0.000229998
0.000182758
0.000280573
0.000206394
0.00034905
0.000316464
0.000398886
0.000376869
0.000138911
0.000197225
0.000207939
0.000200013
0.00013786
0.000135207
0.000159301
0.00013935
9.38795e-05
0.000205473
0.000271315
0.000155878
0.0002374
0.000256777
0.000235588
0.00023831
0.000243905
0.000278182
0.000241789
0.000226994
0.000220303
0.00021262
0.000334408
0.000332796
0.000323855
0.000283907
0.000355369
0.000395825
0.000357964
0.000369767
0.000428972
0.000402519
0.000183971
0.000387148
0.000386074
0.000228065
0.000189466
0.000248619
0.000321178
0.000248694
0.000224299
0.000240709
0.000229688
0.000149413
0.000268288
6.93403e-05
0.000166147
0.000161995
0.000256034
6.32476e-05
0.000165843
0.000270192
0.000344265
0.000303582
0.000327411
0.000353589
0.000351449
0.000176535
8.92606e-05
0.000152634
0.000116232
5.83677e-05
2.20102e-05
0.000106157
3.34872e-05
2.3377e-05
6.16261e-05
4.33697e-05
2.88389e-05
2.15901e-05
6.96425e-05
3.14927e-05
0.000103158
0.000159997
0.000180493
0.000114897
0.00021498
0.00022463
0.000147329
0.00022099
0.000202313
0.000220139
0.000214456
0.000233794
0.00018003
0.000211492
0.000215485
0.000210623
0.000214843
0.000206323
0.000198325
0.000219559
0.000204551
0.000193471
0.000201574
0.000193702
0.000202762
0.000210068
0.000206675
0.000222367
0.000201532
0.000202541
0.000193123
0.000198407
0.000202517
0.000212284
0.000187937
0.000212657
0.000220949
0.000236208
0.000229521
0.00020547
0.000223294
0.00023811
0.000228174
0.000224029
0.000211107
0.000248765
0.000221546
0.000222285
0.000233626
0.000240381
0.000218825
0.000221909
0.000212589
0.000208152
0.00021969
0.000208251
0.000204006
0.000192718
0.000200064
0.000188766
0.000192108
0.000311832
0.000300487
0.000118063
0.000272056
9.78562e-05
0.000143953
0.000338853
0.000257528
0.000121181
0.000209837
0.00026884
0.000324365
0.00039074
0.000279931
0.000281152
0.000200172
0.000254114
0.000240578
0.000199274
0.000285188
0.000258152
0.000323613
0.000283315
0.00139757
0.00109054
0.000566819
0.000644023
0.000364905
0.00043065
0
0
0
0
3.08185
0
0.0392134
0.00794269
0.00898703
0.00267471
0
0
0
0
0.00738938
0
0
0
0
0
0
0
0
0
0
0
0
0
0
0
0
0.000849124
0
0.000714338
0
0
0
0
0.0158399
0
0.0357151
0.0308049
0
0.00239938
0.0264316
0.0294124
0
0
0
0
0
0
0
0
0
0
0
0
0
0
0
0
0
0
0
0
6.53061e-05
2.17733e-05
5.33523e-05
0.000144533
0.000118027
0.000140779
0.00016699
8.61025e-05
0.000128882
0.000181507
0.00019454
0.000159401
0.000168484
0.000166589
0.000121951
0.000197838
0.000113663
0.000128438
0.0002186
0.000177191
0.000193369
0.000202068
0
0
0.0039128
0.00288414
0
0
0
0
0.00691849
0
0
0
0
0
0
0
0
0
0
0.103009
0.000996268
0.00268856
0.00126507
0.00107332
0.00069482
0.00121194
0.00048026
0.000466593
0.000374874
0.000358186
0.000254301
0.000257314
0.000267502
0.000134877
0.000172455
0.000137281
0.000109441
7.18061e-05
7.92894e-05
0.000158185
2.25258e-05
0.00010751
7.5208e-05
6.89153e-05
0
0
0
0
0
6.24302e-05
0
0
3.54782e-05
0
0
0
0
0
0
0
0
0
0
0
0
0
0
0
0.53939
5.48812
9.46061e-05
0.000137726
9.36297e-05
9.60255e-05
0.000114102
6.45496e-05
6.65045e-05
0.000129909
0.000139432
8.74088e-05
0.000139007
0.000143008
0.000250664
0.000252047
0.000315
0.000312967
0.0003371
0.000361929
0.000395258
0.00039088
0.000263617
0.000177199
0.000211532
0.000256686
0.000143386
0.000217021
0.000132875
0.000284597
0.000319002
0.000156052
0.000204068
0.000303179
0.000204159
0.000212985
0.000228736
0.000271291
0.000269431
0.000287654
0.000209391
0.000234193
0.000213863
0.000201659
0.000202716
0.00022069
0.000228587
0.000237654
0.000254008
0.000241815
0.000248898
0.00026207
0.000246718
0.000266633
0.000235453
0.000222038
0.000208061
0.000204004
0.000175547
0.000184613
0.000182971
0.000177188
0.000191154
0.000196409
0.000339954
0.000390726
0.000333461
0.000290304
0.000357267
0.000427787
0.000370287
0.000377119
0.000440498
0.000418499
0.000487978
0.000173415
0.000213062
0.000457361
0.000144746
0.000237291
0.000192088
0.000340667
0.000300833
0.00016877
0.000121698
0.000423395
0.00034525
0.000202687
0.000360034
0.000320462
0.000306442
0.000440908
0.000322341
0.000413114
0.000316209
0.000410794
0.0003173
0.000373675
0.000192845
0.000209513
0.000142621
7.38779e-05
3.40559e-05
6.79394e-05
6.47494e-05
1.07908e-05
1.34216e-05
6.74477e-05
3.58389e-05
3.28611e-05
8.11874e-05
7.09906e-05
6.79214e-05
7.92052e-05
0.000165432
0.000187589
0.000107234
8.7324e-05
0.000211123
0.000179801
0.000146006
0.000155524
0.000193154
0.00017058
0.000209126
0.00019574
0.000194544
0.000205602
0.000204037
0.000200232
0.000217437
0.000195545
0.000227669
0.000206157
0.000216445
0.000195488
0.000194351
0.000197052
0.000200112
0.000188355
0.000179728
0.000201396
0.000193563
0.000223075
0.000207828
0.000219751
0.000212901
0.000224157
0.000217105
0.000214321
0.000209021
0.000200404
0.000186086
0.000201452
0.000184813
0.000172146
0.000173479
0.000172923
0.000167404
0.000168221
0.000166756
0.000164623
0.000164066
0.000154577
0.000161751
0.000153041
0.000154481
0.000339658
0.000293284
0.000319359
0.000245482
0.000354672
0.000232528
0.00025853
0.000161523
0.000216307
0.000286689
0.000208613
0.000399589
0.000144677
0.00026466
0.00032578
0.00034363
0.000453286
0.000250002
0.000289661
0.000173567
0.000190098
0.000143444
0.000214527
0.000315911
0.000195852
0.00653809
0.00108435
0.00190614
8.23181e-05
0.000563529
0.00116318
0
0
0
0
6.56085
0
0.270109
0
0.0257222
3.87973
0
0.0100709
0
0
0
0
0
0
0
0
7.52661e-05
0
0
0
0
0
0
0
0
0
0
0
0
0
0
0
0
0
0
0
0
0
0
0
0
0
0
0
0
0
0
0
0
0
0.000111442
9.27308e-05
0.000156517
0.000201911
9.25761e-05
0.000153254
0.000177338
0.000118917
0.000137582
0.000217019
0.000137748
0.000100186
0.000221538
0.000217203
0.0001447
0.000197099
0.000119277
0.000179398
0.000130096
0.00016342
0.00020462
0.000207559
0.00233149
0
0.0001773
0
0
0
0
0
0
0
0
0
0
0
0
0
0
0
0
0.00914674
0.00190815
0.000381881
0.000503225
0.000861216
0.00062175
0.000418263
0.000374669
0.000423624
0.000220335
0.000299859
0.000135895
8.99789e-05
4.61879e-05
0.000166704
3.98184e-05
0.00012771
8.08059e-05
0.000169267
6.14309e-05
0.000108871
0.00017966
0.000164153
0.000105928
3.79856e-05
0
0
0
0
0
0
0
0
0
0
0
0
0
0
0
0
0
0
0
0
0
0
0.500105
0
0
0
0
0
0
0
0
0.000106266
0.000131212
6.3329e-05
0.000124334
0.000132567
6.03269e-05
7.49072e-05
0.000139322
0.000143643
0.000157974
0.000115153
0.000153868
0.000129001
0.000217341
0.000163223
0.000256196
0.000268695
0.000328545
0.00033114
0.000376071
0.00040091
0.000434201
0.00044294
0.000228833
0.000289895
0.000285781
0.00026758
0.000188855
0.000285508
0.000330418
0.000197435
0.000212738
0.000328946
0.000322569
0.000284797
6.97693e-05
0.000131032
9.24413e-05
0.00011552
0.000112686
0.000116114
0.000126479
0.000134814
0.000100734
0.000101512
0.000105596
0.000113534
8.04801e-05
0.000114406
0.000140853
0.000145214
0.000141234
0.000144525
0.000131942
0.000144598
0.000134724
0.000139968
0.000134105
0.000129758
0.000106573
0.000131713
0.000129907
0.00012621
0.000109467
0.000173214
0.000173051
0.000159038
0.000165472
0.00015557
0.000143596
0.000207966
0.000219338
0.000231925
0.000275704
0.000315693
0.000276633
0.000215215
0.00023184
0.000216534
0.000203524
0.000212676
0.000204965
0.000269481
0.000238133
0.000275251
0.000251349
0.00026904
0.000255856
0.000252158
0.000239501
0.000225424
0.000213918
0.000208996
0.000198346
0.000184953
0.000180687
0.000196121
0.000187138
0.000327894
0.000372815
0.000386261
0.000405255
0.000367853
0.000298314
0.000330472
0.000421303
0.00037987
0.000444248
0.000471965
0.000155683
0.000146033
0.000144278
0.000141014
0.000142317
0.000136318
0.000135249
0.000134314
0.000124514
0.000114564
0.000129094
0.00012123
0.000115155
0.000129379
0.000107279
0.000132073
0.000108501
9.12675e-05
0.000483411
0.000115737
0.000333925
0.00015502
0.000121661
0.000132844
0.000261515
7.85055e-05
0.000216625
0.000447042
0.000277353
0.000442262
0.000412905
0.000389589
0.000468572
0.000629459
0.000559968
0.000435832
0.000350021
0.0004847
0.000487558
0.000390453
0.000245505
0.00027206
0.000156767
0.000160109
7.69033e-05
0.000148235
4.09213e-05
7.71842e-05
5.39085e-05
1.35602e-06
5.31648e-05
1.74632e-05
2.619e-05
8.07817e-05
8.62231e-05
2.81616e-05
0.000133403
0.000126051
0.000150575
0.000167533
9.63168e-05
0.000186722
0.00012984
0.000170847
0.000161277
0.000135708
0.000167764
0.000141262
0.000181834
0.000186609
0.000176416
0.000177586
0.000177253
0.000163669
0.000200386
0.000201951
0.000210848
0.000197806
0.000185429
0.000197934
0.00018283
0.000188079
0.000181831
0.000181956
0.000181956
0.000198444
0.000197877
0.0002065
0.000211545
0.000200651
0.000210683
0.000212099
0.000202469
0.000207235
0.000193207
0.000204144
0.000197634
0.000178186
0.000166045
0.000183082
0.000160578
0.000168341
0.000155971
0.000153518
0.00023122
0.000282417
0.00032006
0.000235753
0.000165598
0.000318715
0.000294902
0.00014232
0.000177567
0.00030911
0.000160486
0.000455176
0.000398181
9.35825e-05
0.000160593
0.000439753
0.000557793
0.000673059
0.000211941
0.000386953
0.000232839
0.000148641
0.000208795
0.000508098
0.00118402
0.000397084
0.0046839
0.00822628
0.0153059
0.000505586
0.00258813
0.00133254
0.000781292
0
0
0
0
0
0
0
0
0.011033
0
0
0
0
0
0
0
0
0.204941
0
0
0
0
0
0
0
0
0
0
0
0
0.00212373
0
0
0
0
0.0132976
0
0
0
0
0
0
0
0
0
0
0
0
0
0
0
0
0
0
0
0.00201001
0
0
0
0
0.00220367
0.000101035
0.000179516
0.000102626
6.69417e-05
9.40575e-05
0.000105093
0.000118699
0.000212746
9.46337e-05
0.000152957
6.24505e-05
9.96033e-05
0.000127163
7.24607e-05
0.000208872
0.000115301
0.000204108
0.000242238
0.00018695
0.000137382
0.000154362
0.000218856
0.000221614
0.000189186
0.000189326
0
0
0
0
0
0
0
0
0
0
0
0
0
0.000336767
0.000307251
0.000412469
0
0
0.314184
0.363866
0.00180823
0.0127746
0.000202288
0.000594616
0.000334509
0.000692898
0.000434439
0.000273881
0.000297898
0.00023732
0.000276093
9.94971e-05
0.000104968
0.000179158
0.000252304
8.92731e-05
0.000213072
0.00011433
9.12141e-05
0.000265636
0.000277153
8.02916e-05
0.000294757
0
0.000975544
0
0
0
0
0
0
0
0
0
0
0
0
0
0
0
0
0
0
0
0
0
0
0
0
0
0
0
0
0
0
0
0
0
0
0
0.000130664
0.000185588
0.000169262
9.29782e-05
9.17423e-05
0.000102289
5.55472e-05
0.000144521
6.19286e-05
0.000120146
0.000135928
0.000115427
8.925e-05
0.000128596
0.000198185
0.000269348
0.000147553
0.00033456
0.000332338
0.000416
0.000400705
0.000422205
0.00045124
0.0004843
0.000469842
0.000333669
0.000352351
0.00039391
0.000350538
0.000339685
0.000208764
0.000419685
0.000297263
0.000334271
0.000468468
0.000409684
0.000473572
0.0001212
8.9533e-05
9.01832e-05
9.14851e-05
0.000152188
6.6381e-05
0.000178975
0.000153865
0.000138035
0.00013636
0.000145196
0.000133287
0.000134015
0.000125687
9.98454e-05
9.75327e-05
0.000167096
0.000174295
0.000164306
0.000152644
0.000140391
0.000150678
0.000219966
0.000235642
0.000285134
0.00023752
0.000294542
0.000328179
0.000247397
0.000228963
0.000219555
0.000267909
0.000232303
0.000220098
0.000220971
0.00026283
0.000272361
0.000258964
0.00027104
0.000269833
0.000268388
0.00026625
0.000259087
0.000248074
0.000234837
0.000212845
0.000223523
0.000196949
0.00020481
0.000176337
0.000182708
0.000190346
0.000184503
0.000401244
0.0004037
0.000372468
0.000333891
0.000430979
0.000399012
0.000346239
0.000331313
0.00040756
0.000442865
0.000492424
0.000444887
0.00015621
0.00016485
0.000158821
0.000148053
0.000147365
0.000145972
0.00014473
0.000139029
0.000135386
0.000137907
0.000125627
0.000144034
0.000127728
0.000111678
0.000127548
0.00011503
0.000109242
9.63396e-05
0.000132139
0.000155199
0.00014752
0.000145213
7.25243e-05
0.000139149
0.000100228
0.000388942
0.000372317
0.000102074
6.6861e-05
0.000456651
5.69382e-06
0.000564523
0.000306208
0.00045667
0.000613544
0.000500141
0.000465436
0.000517004
0.000593924
0.00067832
0.000416782
0.000325896
0.000522704
0.0002812
0.000440971
0.000345736
0.000294277
0.000127491
0.00023943
3.9011e-05
3.82344e-05
0.000131602
0.000168546
5.27133e-05
1.61168e-05
2.69565e-05
6.94667e-05
2.82379e-05
4.65021e-05
6.13197e-05
5.618e-05
0.000132544
6.72617e-05
9.09799e-05
0.000164824
0.000118193
0.000110019
3.0365e-05
2.44065e-05
0.000147494
0.000137592
0.000122252
0.000156055
0.000150507
0.000149863
0.000175487
0.000152751
0.000180414
0.000148094
0.000193967
0.000184784
0.000187052
0.000172404
0.000202737
0.000139395
0.0001903
0.000166632
0.00018085
0.000161312
0.00017225
0.000184196
0.000173543
0.000177241
0.000186208
0.000197337
0.000187143
0.000196672
0.000193409
0.000194561
0.000188467
0.000195158
0.000184508
0.000170573
0.00018556
0.000165892
0.000176516
0.000169348
0.000677609
0.000706641
0.000681962
0.00035828
0.000242599
0.000149355
0.000353026
0.000549828
0.000574858
0.000143043
0.000686957
0.000389853
0.000752076
5.90614e-05
0.000700995
0.000621419
9.32451e-05
0.00618912
0.00247917
0.000883442
0.00110903
0.000752671
0.00061338
0.0035987
0.0040055
0.00588523
0.0167069
0.00519707
0.00346762
0.00918257
0.0658988
0.0102343
0.0181696
0.00324743
0.00352716
0.0168528
0
0
0
0
0
0
0.288154
0
0
0.0649354
0
0
0
0
0
0.102476
0
0
0
0
0.00316571
0
0
0
0
0
0
0
0.00123407
0.004283
0
0
0.0104999
0.00656537
0
0
0
0
0.00520502
0
0.00675284
0
0
0
0
0
0
0
0
0
0
0
0
0
0
0
0
0
0.00344964
0
0
0
0
0
0
0
0
7.79904e-05
9.89514e-05
0.000177047
0.000145867
0.000115316
0.000102737
5.80888e-05
0.000140255
5.80012e-05
0.000125995
0.000231862
7.70753e-05
0.000126636
0.000245787
9.48446e-05
0.00011262
0.000162924
0.000151472
0.0001284
9.9015e-05
0.000216606
0.000232743
0.000165268
0.000235528
0.000219894
0.000201249
0.000239596
0
0
0
0
0
0
0
0.000376304
0.000271975
0.000259398
0
0
0
0
0.000378985
0.000448096
0.0271351
0.172629
0.00299683
0.00353421
0.000450353
0.00132612
9.53197e-05
0.000321604
0.000607403
0.000239498
0.000213883
3.22941e-05
0.000177805
7.81617e-05
8.61754e-05
9.11696e-05
7.48857e-05
0.000129545
0.000170414
0.00014642
0.000130242
0.000115437
0.000107131
0.000169041
1.90221e-05
0
0
0.000923183
0
0
0
0
0.00244123
0
0
0
0
0
0
0
0
0
0
0
0
0
0
0
0
0
0
0
0
0
0
0
0
0
0
0
0
0
0
0
0
0
0
0
0
0
0.000172628
0.000168186
0.000211543
0.00014241
0.000134237
8.97755e-05
9.54872e-05
9.49635e-05
0.000104547
8.40494e-05
0.000121256
5.21862e-05
0.000194296
0.000124869
0.000106343
9.08869e-05
0.000278731
0.000173358
0.00036851
0.000420853
0.000463438
0.000490865
0.000443163
0.000463875
0.000475125
0.00049606
0.000528819
0.00042533
0.000511474
0.000537066
0.000398228
0.000373082
0.000405215
0.000406569
0.000515472
0.000494918
0.000539689
0.000650943
0.000481017
7.75039e-05
0.000144576
0.000131172
0.000233109
0.000164097
0.000118853
0.000344547
0.000338176
0.000291711
0.000229193
0.000251488
0.000155597
0.000156244
0.00018762
0.000137794
0.000141
0.00013947
0.000133367
0.000139931
0.000122005
0.000153416
0.000134844
0.000163999
0.000170717
0.000153452
0.000160365
0.00014747
0.000141427
0.000227492
0.000243041
0.000283651
0.000258002
0.000334114
0.000291028
0.000258176
0.000256266
0.000235541
0.000258196
0.000235247
0.000230103
0.000281941
0.000274406
0.000290333
0.000287301
0.000273924
0.000281484
0.000255028
0.000265869
0.000237187
0.000228796
0.00021565
0.000210962
0.00019648
0.000204237
0.000176545
0.000169924
0.000178231
0.00018613
0.000421679
0.000415512
0.000368444
0.000344993
0.000370868
0.000404644
0.000343026
0.000346951
0.000428791
0.000427377
0.000428429
0.000491625
0.000168105
0.000169841
0.000159515
0.000155889
0.000157911
0.000151181
0.000155023
0.000153663
0.000158657
0.000141246
0.000142425
0.00013876
0.000137141
0.000130815
0.00012453
0.000143661
0.000119714
0.000112093
0.000130512
0.000103772
0.000124477
0.000146593
0.00014778
0.000114108
0.000124604
0.000575968
0.000499541
0.000240072
0.000552753
0.000215665
0.000312169
0.000870749
0.000701562
0.000703531
0.000726175
0.000785577
0.000600428
0.000889938
0.000791861
0.000462837
0.000960078
0.000241827
0.000762494
0.000324629
0.000420187
0.000410891
0.000143617
0.00012069
0.000309927
0.000128384
0.00017309
0.000208873
0.000362808
9.49202e-05
5.74054e-05
1.37297e-05
5.6301e-05
5.19874e-05
9.98663e-05
8.28567e-05
9.734e-05
7.04898e-05
8.88873e-05
0.000150932
5.74896e-05
0.000109848
0.000121714
8.18279e-05
8.47945e-05
0.000107081
0.000155157
0.000118117
6.95835e-05
0.000165558
0.000150445
0.000168093
0.000179435
0.000131184
0.000152048
0.000176504
0.000167671
0.000146057
0.000163775
0.000151793
0.000175852
0.000146489
0.000159945
0.000149865
0.000173447
0.000160388
0.000174784
0.000162818
0.000174755
0.000176331
0.000177337
0.000184618
0.000173774
0.000190148
0.000174055
0.000192563
0.000170381
0.000169869
0.000186474
0.000179568
0.0149488
0.0187393
0.0104604
0.0118633
0.000787085
0.000743541
0.00119285
0.000497162
0.000945519
0.000499262
0.000966797
0.00102134
0.000259468
0.00033813
0.00094736
0.00108826
0.000150671
0.000397909
0.00113552
0.0163213
0.0129714
0
0.0567097
0.0194911
0.167601
0.0424954
0.0181703
0.0820561
0.0255832
0
0
0
0
0
0
0.236806
0
0
0
0
0
0
0.607103
0
0
0
0
0
0
0
0
0
0
0
0
0
0
0
0
0
0
0
0
0
0
0
0
0
0
0
0
0
0
0
0
0
0
0
0
0
0
0
0
0
0
0
0
0
0
0
0
0
0
0
0
0
0
0
0
0
0
0
0
0
0
0
0
0
0
0
0
0
6.7984e-05
0
0
0
0
8.4679e-05
0.000106263
0.000100803
0.000116191
0.00022315
0.000133643
0.000100856
0.000108386
0.000159576
8.85185e-05
0.000157796
0.000121477
8.28409e-05
0.000121098
5.44605e-05
0.000211003
0.000162556
0.000191305
0.000126602
4.3856e-05
0.000147769
0.000222996
0.000214691
0.000207619
0.000216983
0.000233399
0.000250108
0.000248618
0.00021788
0
0
0
0
0.000386541
0.0002697
0.000272756
0
0
0.000282607
0.000470763
4.86928
0.0363248
0
0
0.000781184
0.000383163
0.0107599
0.00587535
0.00203249
0.00660029
0.000340333
0.000491682
0.000317262
0.000146336
0.000245681
0.000164643
0.000246444
0.000190912
0.000259927
0.000219609
0.000264793
0.000112417
3.99297e-05
0.000192371
0.000236833
9.27973e-05
0.000297971
0.000218433
0.000190272
0
0
0
0
0
0
0
0
0
0
0
0.0182634
0
0
0
0.0311727
0.0200592
0.0226879
0
0
0.0561443
0
0
0
0
0
0
0
0
0
0
0
0
0
0
0
0.00978304
0
0.00316288
0
0
0
0
0
0
0
0
0
1.21299
0.866351
0.0606504
0
0
0
0
0
0
0.000250303
0.000250069
0.000187123
0.000147699
0.00022731
0.000109663
0.00018161
8.07648e-05
0.000118932
6.09776e-05
0.000106757
8.23233e-05
0.000165377
0.000274819
0.000156246
0.000130364
7.38889e-05
0.000294746
0.000373282
0.000395956
0.000404802
0.000504595
0.000532719
0.000593485
0.000454495
0.000555164
0.000503907
0.000615177
0.000551087
0.000565252
0.000753998
0.000559724
0.000728871
0.000476258
0.000339732
0.000355012
0.000626861
0.000754972
0.000689605
0.000819547
0.000933327
0.00015662
5.87509e-05
0.000217371
0.000331468
0.000339151
0.000336155
0.000257737
0.00032067
0.00017878
0.000292603
0.000222194
7.94392e-05
0.000119977
0.000134387
0.000141383
0.000128391
0.000137776
0.000129955
0.00011795
0.000141759
0.000156225
0.000170027
0.000161392
0.000149333
0.00015933
0.000149789
0.000138328
0.00024666
0.000244797
0.000293342
0.000265721
0.000285664
0.000312758
0.000251771
0.00027588
0.000255638
0.000286183
0.000238917
0.000256943
0.000295516
0.000282302
0.000302106
0.000307017
0.000267083
0.000267432
0.000243621
0.00024611
0.000230836
0.000223171
0.000221248
0.000210854
0.000201477
0.000191461
0.000168116
0.000177518
0.000191104
0.000180055
0.000441309
0.000414927
0.000346672
0.000366637
0.000394123
0.000359489
0.000369836
0.000339026
0.000438647
0.000428915
0.000439424
0.000497639
0.000534441
0.000574613
0.000510811
0.00016525
0.000164393
0.000159611
0.000161675
0.000153535
0.000164647
0.000156295
0.000158766
0.000149306
0.000156086
0.000139822
0.000138808
0.000142599
0.000148406
0.000120991
0.000135775
0.000130516
0.000119106
0.000131878
0.000128732
0.000132776
0.000107236
0.000147762
0.000143584
0.000114017
0.000115068
0.00115279
0.000650349
0.000554836
0.000592576
0.000620869
0.000749717
0.000478766
0.00116238
0.000725349
0.000573941
0.000825241
0.00088487
0.000917812
0.00116383
0.0010787
0.000635671
0.00102199
0.000587877
0.000338676
2.75222e-05
0.000412729
0.000134246
0.000245891
0.000162341
5.27353e-05
0.00019243
0.000210698
0.000514943
0.00011368
0.000162492
7.74713e-05
8.99975e-05
2.2942e-05
9.56438e-05
1.5903e-05
1.32533e-05
5.02251e-05
0.000101579
4.13426e-05
0.000112348
7.53626e-05
0.000113334
4.70821e-05
8.70952e-05
0.000136124
0.000125014
9.57705e-05
8.31809e-05
0.00013044
0.000141579
0.000183704
0.000156209
0.000152899
0.000149519
0.000156305
0.000156618
0.000152926
0.000161426
0.000152189
0.000155289
0.000137185
0.000151157
0.000147855
0.000162819
0.000158512
0.000149761
0.000164337
0.000159426
0.000171242
0.000168232
0.000179297
0.000172766
0.000191134
0.000177913
0.000184175
0.000199387
0.00018767
0.000196943
0.0406286
0.132361
0.0248766
0.0404563
0.0342675
0.0227575
0.0412844
0.00478819
0.0970316
0.00182547
0.000825936
0.0178936
0.00257482
0.000376257
0.000925374
0.00102055
0.000841081
0.000572599
0.00197333
0.00124469
0.0019533
0
0
0
0
0
0.0138346
0
0
0
0
0
0
0
0
0.44192
0
0
0
0.0116608
0
0
0
0
0
0
0
0
0
0
0
0
0
0
0
0
0
0
0.00144706
0
0
0
0
0
0.00182348
0.00244826
0.00395024
0
0
0
0
0
0
0
0
0
0
0
0
0
0
0
0
0
0
0
0
0
0
0
0
0
0
0
0
0
0
0
0
0
0
0
0
0
0
0
0
0
0.00541117
0
0.00286133
0
0.0102126
0
0
0
0.000106221
0.000133831
0.000127708
0.000116307
0.00011002
9.43997e-05
4.99256e-05
7.57609e-05
0.000124908
0.000293774
9.93388e-05
0.000128517
0.000135921
9.89888e-05
0.000177586
0.000107554
0.00017788
0.000130309
0.000112121
9.72389e-05
0.00010348
0.000203529
0.000103744
0.000102279
0.000249917
0.000109149
0.000165161
0.00023585