/*--------------------------------*- C++ -*----------------------------------*\
  =========                 |
  \\      /  F ield         | OpenFOAM: The Open Source CFD Toolbox
   \\    /   O peration     | Website:  https://openfoam.org
    \\  /    A nd           | Version:  8
     \\/     M anipulation  |
\*---------------------------------------------------------------------------*/
FoamFile
{
    version     2.0;
    format      ascii;
    class       volScalarField;
    location    "19620";
    object      H;
}
// * * * * * * * * * * * * * * * * * * * * * * * * * * * * * * * * * * * * * //

dimensions      [0 1 0 0 0 0 0];

internalField   nonuniform List<scalar> 
526318
(
1.80259
1.76711
1.84376
1.75161
1.81836
1.77553
1.795
1.70514
1.76392
1.64561
1.6307
1.74891
1.70244
1.74644
1.68863
1.72316
1.69697
1.88981
1.81143
1.84031
1.85035
1.79478
1.56699
1.80338
1.68966
1.54587
1.81933
1.82079
1.81868
1.83646
1.86373
1.90691
1.89205
1.76923
1.79153
1.71574
1.74976
1.85708
1.77156
1.7002
1.77431
1.73867
1.4094
1.46463
1.37058
1.41827
1.39013
1.52162
1.70409
1.60037
1.68009
1.67186
1.63067
1.59627
1.08926
1.33718
1.33312
1.1351
1.86193
1.85754
1.87874
1.84046
1.787
1.9002
1.90714
1.8524
1.86141
1.84868
1.75224
1.72981
1.85744
1.63611
1.68743
1.5841
1.545
1.53693
1.6336
1.63583
1.53603
1.57274
1.65428
1.65949
1.61449
1.57117
1.60618
1.66236
1.67192
1.64187
1.59415
1.66719
1.56804
1.51717
1.51522
1.44635
1.44323
1.44769
1.44781
1.43897
1.43745
1.43935
0.878093
0.813507
0.904346
0.942102
1.00096
0.780925
1.35055
1.16332
1.47565
1.43937
1.47382
1.59518
1.8282
1.71831
1.82022
1.83281
1.91049
1.87592
1.91283
1.4387
1.44041
1.43996
1.44525
1.39777
1.43253
1.34896
1.39014
1.29877
1.35218
1.29768
1.29885
1.28879
1.26447
1.25422
1.28405
1.22501
1.27878
1.23109
1.25083
1.19626
1.20139
1.22403
1.25073
1.23863
1.1951
1.19697
1.21088
1.19931
1.19778
1.20222
1.21619
1.1931
1.20837
1.21444
1.20586
1.16852
1.20214
1.18719
1.18747
1.12116
1.21894
1.15733
1.21978
1.71833
1.79157
1.74731
1.73955
1.52766
1.60508
1.52821
1.52897
1.53709
1.53357
1.55123
1.53142
1.46722
1.43618
1.40233
1.34733
1.4062
1.44339
1.4454
1.44793
1.33029
1.38588
1.27137
1.27988
1.2898
1.28144
1.28399
1.28423
1.27695
1.27783
1.2745
1.26527
1.2474
1.26926
1.26085
1.23095
1.21471
1.24276
1.23736
1.21118
1.23217
1.21866
1.22741
1.18684
1.21137
1.23528
1.241
1.68223
1.68141
1.73713
1.69726
1.69717
1.68341
1.67584
1.59183
1.60141
1.35238
1.33288
1.3319
1.44616
1.58991
1.4609
1.51181
1.50038
1.44536
1.42546
0.92866
0.735184
1.07736
1.2727
0.521071
0.373983
0.662961
0.767506
0.728124
0.731786
1.91689
1.86938
1.92828
1.92769
1.89517
1.89817
1.79562
1.88486
1.71766
1.66882
1.6639
1.66837
1.67151
1.669
1.65217
1.64887
1.57161
1.63663
1.45211
1.50682
1.43829
1.44787
0.256367
0.169443
0.638484
0.417451
0.915355
0.857659
0.915866
1.06659
1.44995
1.2607
1.50258
1.50063
1.60607
1.70809
1.82003
1.83568
1.87202
1.85712
1.91124
1.94465
1.41474
1.4191
1.37617
1.34736
1.24459
1.28325
1.20779
1.2201
1.21103
1.20408
1.19601
1.20041
1.12789
1.15275
1.18145
1.21931
1.27323
1.24157
1.20236
1.19965
1.13759
1.13016
1.17712
1.23173
1.15399
1.19271
1.1977
1.16423
1.16449
1.13036
1.11877
1.0878
1.08956
1.09231
1.07856
1.20038
1.23639
1.19958
1.24082
1.6006
1.56265
1.45815
1.54839
1.47291
1.52445
1.53166
1.52397
1.52774
1.53041
1.44435
1.35377
1.28416
1.26942
1.34365
1.28638
1.27169
1.38709
1.27538
1.3219
1.26337
1.2642
1.27132
1.26392
1.27608
1.27078
1.27242
1.27778
1.27583
1.27213
1.28086
1.27741
1.28858
1.28772
1.29076
1.26831
1.28122
1.2636
1.23633
1.23904
1.26322
1.29764
1.28582
1.26223
1.24701
1.27058
1.31201
1.31137
1.3243
1.28386
1.31671
1.33395
1.37469
1.32389
1.33053
1.35662
1.3877
1.50517
1.60969
1.50523
1.54821
1.63966
1.68204
1.6033
1.46692
1.56701
1.4576
1.48406
1.21941
1.1675
1.19815
1.18603
1.30297
1.42144
1.35455
1.4242
1.42549
1.44181
1.43693
0.705318
0.835933
0.99216
0.840396
1.07538
0.964042
0.100077
0.246628
0.196421
0.116203
0.0226366
0.261519
0.486741
0.722265
0.608619
0.638041
1.94062
1.91115
1.93998
1.94704
1.92016
1.8843
1.82329
1.73911
1.65806
1.67715
1.65236
1.66334
1.63312
1.63479
1.61418
1.61548
1.56702
1.60626
1.53007
1.46959
1.41695
1.37677
0.000946338
0.00107017
0.00107017
0.000663073
0.000638375
0.000731205
0.000579057
0.00107017
0.00107017
0.00107017
0.0969048
0.000832895
0.000476595
0.00059717
0.0515409
4.06116e-05
0.151716
0.254533
0.260573
0.425906
0.883171
0.670684
0.982314
0.956339
1.15216
0.999847
1.36178
1.52152
1.53295
1.63053
1.84989
1.74228
1.85706
1.85428
1.87065
1.90001
1.94089
1.9545
1.33574
1.33408
1.28803
1.31574
1.25495
1.21765
1.20989
1.2101
1.20654
1.21
1.16293
1.15939
1.10584
1.11959
1.17239
1.14694
1.11733
1.16485
1.15797
1.17717
1.08922
1.08055
1.10367
1.11047
1.1162
1.07212
1.07525
1.07072
1.07597
1.05881
1.05863
1.35779
1.33144
1.33176
1.33086
1.35219
1.46059
1.41718
1.39758
1.27831
1.32058
1.30717
1.31074
1.20996
1.14727
1.32917
1.44924
1.33211
1.33313
1.30865
1.39889
1.37158
1.44343
1.4785
1.40679
1.38483
1.42204
1.29726
1.26706
1.26806
1.26819
1.18426
1.23944
1.16571
1.11735
1.09613
1.21582
1.21734
1.2601
1.26377
1.2626
1.26884
1.26565
1.26814
1.2651
1.27876
1.27084
1.28843
1.28253
1.29023
1.28728
1.31177
1.30056
1.3234
1.32931
1.27574
1.25765
1.32238
1.30553
1.29252
1.31246
1.29462
1.28212
1.33549
1.30991
1.41488
1.42412
1.37515
1.4161
1.4268
1.39379
1.48613
1.45643
1.52487
1.54508
1.57001
1.48025
1.48333
1.49953
1.44144
1.39099
1.38622
1.4681
1.33561
1.31078
1.36839
1.38331
1.06561
1.11183
1.20081
1.31605
1.35584
1.3866
1.29043
1.25857
1.21484
1.16691
0.522837
0.605714
0.883492
0.679777
0.994962
1.0633
0.0343985
0.000841003
0.0228957
0.0223287
0.161847
0.000475542
0.547399
0.306421
0.468919
0.465153
0.000766556
0.000551352
0.000138864
0.000388285
0.000831073
0.00101
0.000142328
0.000999779
0.000889111
0.000419839
0.00114037
0.000756019
0.000997804
0.00114022
0.00114021
0.00114022
0.000937072
0.000999494
0.0009727
0.000201819
9.59135e-05
0.000989075
0.000892979
0.0009482
0.00100959
0.000881287
0.00100965
0.000996543
2.65749e-05
0.000931251
1.9215
1.93015
1.94641
1.93858
1.91431
1.83554
1.67563
1.75292
1.63797
1.64496
1.61716
1.61717
1.60906
1.60914
1.60001
1.59907
1.54558
1.51757
1.41652
1.45859
1.31284
1.35451
0.000902499
0.000636742
0.000948563
0.000967574
0.000969466
0.000982262
0.000987141
0.000870723
0.00101
0.000970323
0.000677989
0.000965569
0.000971308
0.000759356
0.000380116
0.000991326
0.000690401
0.00100737
0.000803925
0.000839513
0.000369052
0.000975289
0.000843312
8.61926e-05
0.0326917
0.184574
0.348927
0.327723
0.386377
0.571543
1.02216
0.825064
1.04171
1.0383
1.33745
1.16936
1.54499
1.50136
1.56751
1.67493
1.78622
1.86349
1.87099
1.85917
1.89984
1.93402
1.91335
1.93712
0.00113219
0.000874213
0.000886173
0.000213011
0.000703741
0.000987943
0.00081396
0.000939355
0.000890554
0.000725685
0.000975785
0.00092383
0.000794854
2.99799e-07
0.000880516
0.00101
0.000170373
1.31511
1.31425
1.31474
1.28058
1.20297
1.23595
1.16434
1.15324
1.12292
1.11255
1.06952
1.06999
1.10057
1.09709
1.05589
1.09035
1.08513
1.1339
1.11521
1.11581
1.03938
1.01058
1.01041
1.05433
1.06085
1.05897
1.03575
1.03935
0.999678
0.99044
0.953492
0.958729
1.55739
1.52534
1.56485
1.5747
1.52376
1.48037
1.64907
1.6693
1.73273
1.74428
1.28892
1.33063
1.38111
1.46648
1.28594
1.23203
1.2679
1.26712
1.10658
1.15876
1.20378
1.09969
1.31685
1.31675
1.31529
1.3116
1.33445
1.31278
1.32402
1.33921
1.21987
1.21187
1.1125
1.19899
1.19134
1.14869
1.10081
1.12086
1.06443
1.08506
1.0628
1.14785
1.2124
1.14498
1.21575
1.26183
1.26163
1.2619
1.26802
1.27285
1.2851
1.28132
1.30013
1.29216
1.31575
1.30887
1.33071
1.32878
1.33061
1.32561
1.33952
1.33047
1.37012
1.34551
1.31319
1.31197
1.37654
1.34289
1.35224
1.39375
1.43425
1.43539
1.43377
1.43591
1.46732
1.52031
1.58158
1.6037
1.61147
1.59009
1.73319
1.66798
1.79541
1.83626
1.8263
1.86285
1.9202
1.7854
1.87163
1.89439
1.96916
2.01722
2.04403
2.06242
2.09362
2.03688
2.09316
2.04955
2.12831
2.12906
2.17959
2.14785
2.20957
2.2401
2.22687
2.17834
2.24314
2.26786
2.23474
2.23157
2.29678
2.27172
2.3056
2.24396
2.24668
2.30933
2.27843
2.23033
2.23133
2.26387
2.29403
1.2837
1.25597
1.4176
1.42836
1.38504
1.3886
1.40043
1.15212
1.29029
0.988119
1.01635
1.11006
1.10622
0.975627
1.05488
1.04655
1.21758
1.12207
1.12513
1.02756
1.03091
1.04073
1.05213
0.590775
0.445594
0.856413
0.638114
0.850706
0.805358
0.00101
0.000915334
0.000995857
0.000366318
0.00120606
9.72526e-07
0.17457
0.43094
0.314602
0.363448
0.000241111
0.00069126
0.000943677
0.000831092
0.00136346
0.000479099
0.00012748
0.000146108
0.000949
0.000431299
6.93167e-06
1.61879e-05
0.000990101
0.00093513
0.00100829
0.000626491
0.000911134
0.000410555
0.0010095
0.000958493
0.000954314
0.00101995
0.000714456
0.00101529
0.000974989
0.000913473
0.00101
0.00057983
0.00103742
0.000876916
0.00103728
0.00103853
0.000980031
0.00103809
0.00103667
0.00103777
0.000479902
0.000553174
0.000993933
0.000773625
0.000877713
0.00099375
0.000922247
0.000776475
0.0010078
0.000994205
0.000136415
0.000956593
0.000950381
0.000921886
0.000915695
0.000919934
0.000616217
0.00101
0.000623175
0.000968314
1.9061
1.91194
1.86591
1.8776
1.78405
1.86325
1.67663
1.62176
1.60657
1.60473
1.61477
1.60909
1.54386
1.55357
1.39545
1.35545
1.31375
1.49113
1.48904
1.43368
1.43728
1.43908
0.00081225
0.000371715
0.00113744
0.00113742
0.000962471
0.000414864
0.00093308
0.000410365
0.00113744
0.000902811
0.000161511
0.00100893
0.000972717
0.000941946
0.000297472
0.000985833
0.00069279
0.00091818
0.000785703
0.0220367
0.413306
0.238832
0.444668
0.447466
0.688001
0.485872
0.886072
1.03849
1.16561
1.04128
1.33701
1.49973
1.5378
1.56693
1.63569
1.7526
1.82707
1.79685
1.84661
1.78758
1.82346
1.86992
1.8221
1.82589
0.00101
0.000865295
0.00100993
0.000849207
0.000924318
0.00119131
0.000760188
0.000802073
0.00119131
0.000964874
0.000981161
0.000996251
8.84238e-08
1.51015e-05
0.00101
0.000411253
6.71976e-25
0.00072123
0.00101
0.000253336
0.000277025
0.000765241
0.00096459
0.000879022
0.00221158
0.00100888
1.28927
1.28874
1.21083
1.22535
1.10779
1.12533
1.06404
1.0691
1.06699
1.06413
1.03927
1.03821
1.01477
1.01402
0.989576
1.02843
1.1062
1.06784
1.10745
1.10681
0.92776
0.950422
0.992723
0.969198
0.977848
0.980592
0.926451
0.921763
0.907002
0.918038
0.927945
0.92501
1.77578
1.77871
1.6057
1.52202
1.50784
1.49515
1.7743
1.68906
1.93288
2.00705
1.90325
1.83004
2.01996
2.00225
2.06909
2.11674
2.14732
2.14807
2.17403
2.14971
2.20537
2.22864
2.22664
2.22666
2.2451
2.22972
2.23048
2.27695
2.2205
2.2145
1.33933
1.26738
1.41054
1.4826
1.26597
1.21327
1.26683
1.26706
1.09666
1.15
0.988171
1.15104
1.0391
1.31519
1.24998
1.30885
1.30188
1.31423
1.20656
1.10634
1.03031
1.01468
1.02754
1.06838
0.995405
0.976216
0.904589
0.995713
1.07871
1.06773
0.990656
1.08926
1.15536
1.10841
1.21082
1.1576
1.20383
1.25654
1.28898
1.26838
1.30405
1.3059
1.31564
1.30286
1.33817
1.34552
1.34752
1.3575
1.36342
1.3667
1.39853
1.41039
1.39816
1.39527
1.40086
1.39194
1.41249
1.4257
1.47508
1.46697
1.43589
1.46554
1.46265
1.49455
1.52872
1.59087
1.6215
1.62266
1.63357
1.70237
1.7835
1.85743
1.87029
1.99569
1.87003
1.9202
2.07021
2.09417
2.09516
2.13107
2.17997
2.2296
2.23853
2.24427
2.27152
2.30118
2.32726
2.32716
2.32748
2.32741
2.32731
2.31052
2.2447
2.30967
2.27861
2.23041
2.23067
2.26318
2.29504
2.30477
2.23137
2.29246
2.25233
1.0811
1.06396
1.14585
1.21544
1.10345
1.17256
1.29599
1.23399
1.27026
1.10942
1.00752
0.976703
0.9737
1.07313
1.07075
0.734868
0.840823
1.02636
0.919432
1.02589
1.02402
1.03164
1.02569
1.04028
1.05548
0.247684
0.409174
0.507962
0.679404
0.700451
0.706293
0.00086849
0.000172666
0.000348616
0.00101
0.00117038
5.8085e-05
0.0311387
0.000860662
0.167141
0.00118583
0.000449007
0.00136329
0.000928609
0.00101
0.000959935
0.000660221
0.000998234
0.000701989
0.000938544
0.000874495
0.00105177
0.0009427
0.000791252
0.000751098
0.000990039
7.57449e-05
0.00099613
0.000976554
0.000151024
0.000587286
0.000544652
0.000936558
0.00085509
0.000974931
0.000948236
0.00100379
0.000978339
0.000944855
0.000974885
0.00092222
0.000207016
0.000979907
0.000919067
0.00101
0.000732523
0.00100962
0.000641972
0.000367709
0.000916152
0.000960434
0.000965889
0.000892128
0.000577413
0.000479733
1.82913
1.82735
1.7919
1.81638
1.73166
1.80617
1.60953
1.67926
1.57058
1.57059
1.51222
1.49632
1.43836
1.4375
1.35248
1.24949
1.22627
1.39606
1.43683
1.44048
1.44394
1.4381
0.00113749
0.00096224
0.0011375
0.000814307
0.000973634
0.000973647
0.00094649
0.000972052
0.00100548
0.000830393
0.000135327
0.000443538
0.00093376
0.000997208
0.00060297
0.00100999
0.00098232
3.19617e-05
0.000908474
0.123853
0.298991
0.449661
0.513252
0.463701
0.670393
0.852298
1.00371
1.03731
1.23167
1.06637
1.3701
1.50607
1.47918
1.58954
1.76188
1.66224
1.72919
1.72962
1.73626
1.76069
1.80829
1.82121
1.81067
1.7786
0.000769413
0.000922585
0.000563688
0.000958878
0.000712787
0.000933944
0.000627141
0.000452485
0.00082127
0.000879841
0.000957505
0.000856862
0.000968979
5.82545e-24
0.000922039
0.000873917
0.00096514
0.000987798
0.000743529
0.00100999
0.000468733
1.29754e-10
0.00207432
0.000901385
0.00101
0.000860782
0.000668131
0.000489708
0.000816537
7.39358e-21
0.00098545
1.16519
1.16386
1.12734
1.10942
1.06841
1.0851
1.05144
1.05586
1.20923
1.15032
1.12936
0.982067
0.988772
0.920107
0.921357
0.991136
0.990186
0.981333
1.02129
1.0808
1.0345
1.07005
1.05507
0.951063
0.926731
0.941476
0.965328
0.884416
0.887782
0.888796
0.897354
0.916032
0.902719
0.86661
0.878539
2.34856
2.3582
2.38452
2.3653
2.40739
2.39401
2.41503
2.40872
2.46364
2.45185
2.41617
2.46863
2.43752
2.48557
2.32014
2.27195
2.29165
2.34104
2.32297
2.29222
2.29423
2.34726
2.35206
2.32695
2.30798
2.35923
2.34443
2.35157
2.37709
2.22945
2.23029
2.23113
2.22923
2.24832
2.27021
1.82241
1.76903
1.66416
1.56981
1.48258
1.55698
1.75808
1.74249
1.98002
2.00194
1.89038
1.97079
2.01012
2.05639
2.10698
2.14538
2.14613
2.14487
2.14394
2.1735
2.18668
2.2131
2.19939
2.20253
2.20634
2.21696
2.19344
2.19332
1.389
1.31791
1.26109
1.2512
1.30861
1.48166
1.46136
1.19017
1.24713
1.12049
1.0544
2.33739
2.3572
2.37357
2.38119
2.38487
2.39563
2.40025
2.42655
2.4121
2.42774
2.42815
2.47623
2.4978
2.52371
2.52256
2.52325
2.53866
2.55842
1.03072
0.974906
0.974552
1.23655
1.12277
1.29597
1.1985
1.11446
1.01586
1.01684
1.01796
1.01437
0.871284
0.938745
0.79235
0.818507
0.898937
0.817498
1.08618
1.01178
0.91208
1.10378
1.10752
1.10615
1.16097
1.12199
1.24518
1.19202
1.2806
1.24309
1.27921
1.30476
1.32827
1.35282
1.3781
1.36748
1.37785
1.37453
1.43246
1.41794
1.41384
1.40862
1.4613
1.43862
1.50774
1.4685
1.45119
1.49346
1.53893
1.52902
1.55322
1.5896
1.58876
1.53482
1.64355
1.67177
1.64339
1.6321
1.71499
1.79821
1.86992
1.93643
1.88489
1.9009
2.02938
2.0882
2.13128
2.11192
2.17957
2.20798
2.24948
2.26704
2.25952
2.27987
2.33818
2.31834
2.33021
2.33915
2.32955
2.32763
2.3287
2.32775
2.32908
2.32759
2.32688
1.05952
1.0549
1.0794
0.99687
1.01767
1.03343
0.973308
1.11316
1.02082
0.955063
0.970624
0.951779
0.850469
0.950547
0.975995
0.753314
0.743052
0.703583
0.810269
1.02529
0.915361
0.921238
0.917665
0.71164
0.599329
0.39976
0.422333
0.334526
0.166363
0.177761
0.702774
0.524748
0.681327
0.687359
0.000776109
0.00096702
0.000896738
0.000998449
0.000220913
0.000888291
0.00100984
0.000149046
0.157731
0.000749977
0.000398457
0.000668916
0.00101
0.000330569
0.000740386
8.12468e-21
1.37286e-13
0.00238897
0.000379096
0.000850418
0.000694792
0.000545923
0.000997667
0.0003892
0.00100993
0.000972649
0.000977525
0.000963111
0.000999516
0.000748998
0.00101225
0.000944786
0.000746723
0.000979382
0.000608982
0.00101288
0.00089779
0.000955844
0.000631827
0.000258775
0.0007219
0.000964465
0.000941166
0.000838222
0.00101
0.000334973
0.000769708
0.000685233
0.000978177
0.000925692
0.000935309
0.000876409
0.00091709
0.000695524
0.000567275
0.00217017
0.000161757
0.000674617
0.000835469
0.000886217
0.00217013
2.51876
2.48787
2.45546
2.55089
2.59853
2.5909
1.79184
1.79275
1.78515
1.78434
1.71901
1.77253
1.60225
1.52263
1.45572
1.47084
1.44432
1.44628
1.43447
1.43624
1.31526
1.23474
1.32518
1.40298
1.40778
0.00093523
0.000758066
0.000875173
0.000890082
0.000922295
0.0009764
0.000965395
0.000493094
0.000931051
0.000554111
0.00100943
0.000959595
0.000969088
1.0029
1.03516
1.06383
0.000790866
0.000495324
0.00508365
0.0120373
0.293734
0.174642
0.471028
0.50022
0.663411
0.526713
0.834133
1.20689
1.34513
1.45995
1.4623
1.76863
1.70003
1.71434
1.49485
1.59159
1.68166
1.73167
1.72628
1.7246
1.75372
1.7792
1.79414
0.000683653
0.00117604
0.000628389
0.000982796
0.000704864
0.000720222
0.00100904
0.000845157
0.000713278
0.000865554
0.000823186
0.000932446
0.000763197
0.000831138
0.000896425
0.000464554
0.000627663
0.00100504
0.000978863
0.000935387
0.000938185
0.000682923
0.000677014
0.000937995
0.000997599
0.000978674
0.000347723
0.000953032
0.000978459
0.000973622
0.00101
0.00100979
0.000838321
0.000978065
0.000644837
0.000954507
0.000811322
1.1647
1.2005
1.18905
1.12938
1.12859
1.10255
1.1216
0.992411
1.01845
0.929691
0.93105
1.1359
1.12249
0.882396
0.882257
0.884415
0.883473
0.941826
0.920875
0.958905
0.90526
1.02792
0.979999
1.02896
1.03788
0.871389
0.824795
0.848653
0.880165
0.854017
0.851188
0.795478
0.832602
0.816459
0.793705
0.774531
0.772198
2.3519
2.36497
2.38611
2.41051
2.41263
2.41582
2.43859
2.42967
2.2838
2.28249
2.26692
2.28776
2.32003
2.28278
2.32666
2.30446
2.21774
2.20504
2.20391
2.23573
2.26464
2.23788
1.82754
1.75158
1.64534
1.73329
1.58133
1.49426
1.7478
1.74627
1.98657
1.98907
2.0026
1.90304
1.97887
2.08964
2.03726
1.98132
2.02266
2.12364
2.13613
2.12763
2.13354
2.14174
2.16358
2.19001
2.1815
2.19069
2.19124
2.19251
2.19169
2.19119
2.19232
1.23418
1.23838
1.37683
1.4584
1.2376
1.31899
1.47342
1.48899
1.22726
1.17098
1.08235
1.14778
2.36816
2.32801
2.34486
2.3913
2.38842
2.39008
2.40163
2.42159
2.44565
2.45476
2.45516
2.45978
2.48477
2.52333
2.50251
2.52114
2.54095
2.59016
2.56439
2.39708
2.40685
2.42351
2.58554
2.59368
2.57836
0.977512
0.977064
0.976377
0.948202
1.04781
1.05772
0.863128
0.901263
0.9385
0.821414
0.856156
0.868862
0.787176
0.798029
0.795773
0.794578
0.828152
0.858697
0.96543
0.890455
0.89198
1.03354
1.11006
1.02743
1.18106
1.20921
1.14309
1.18249
1.24523
1.21168
1.33692
1.27574
1.34865
1.36391
1.36961
1.36027
1.40548
1.45359
1.48605
1.48836
1.49523
1.47873
1.50457
1.49009
1.53638
1.54223
1.56439
1.56466
1.54125
1.54216
1.66379
1.70778
1.60897
1.66876
1.71782
1.68072
1.78091
1.82608
1.92414
1.96278
1.93947
2.03211
2.08547
2.18406
2.17042
2.2294
2.20237
2.30026
2.3039
2.29708
2.32835
2.3564
2.35487
2.41165
2.37685
2.40335
2.36665
2.36474
2.4006
2.33215
2.36828
2.33103
0.435749
0.74829
0.436142
0.71657
0.989463
0.968441
0.979333
0.947473
0.976088
0.827605
0.720376
0.720569
0.615724
0.820702
0.689925
0.717715
0.846741
0.0972707
0.100272
0.481127
0.607194
0.602813
0.390474
0.275731
0.278059
0.0701114
0.0765359
0.0938718
0.161668
0.165472
0.059036
0.254158
0.148412
0.398272
0.201842
0.124943
0.0010004
0.000112849
0.00044385
0.000919656
6.75959e-17
0.000297927
0.0022451
3.27739e-06
0.00071897
0.0437102
0.0009581
0.000364482
0.00101
0.000172236
0.000997689
0.00222275
0.000972059
0.000134455
0.00096781
0.00100982
0.00136461
0.000348601
0.00100983
0.000979813
0.000465046
0.000983408
0.00101
0.000808151
0.00101225
0.0010124
0.000896998
0.000919138
0.00101241
0.00101247
0.000955402
0.000757285
0.000711032
0.000919589
0.00168277
6.2459e-05
0.00168268
0.000748391
0.00098702
0.000966821
0.00099923
0.00100984
0.00101
0.00100994
0.000799141
0.000805878
0.000827454
1.20946e-05
9.12481e-06
0
0.00090453
0.000799517
0.000430028
0.000831006
0.00136456
0.000898711
0.00100958
0.00100997
0.000712966
0.000998553
0.000946811
0.000914726
0.00101
2.46971
2.50168
2.49743
2.47912
2.50469
2.61001
2.61997
2.62733
2.6475
2.5936
1.71526
1.70124
1.62637
1.64841
1.58866
1.62382
1.53615
1.49547
1.4635
1.43198
1.41861
1.42288
1.3238
1.33276
1.20328
1.2444
1.24554
0.000529692
0.000965684
0.000913493
0.00101
0.000949844
0.000924031
0.000585991
1.03666
1.17786
1.03568
0.000588227
0.000217398
0.000904391
0.000979614
0.902498
0.738276
0.0682671
0.0153421
0.101611
0.207318
0.504497
0.35383
0.536972
0.540478
0.570707
1.57921
1.56282
1.61396
1.31785
1.46213
1.45756
1.49583
1.62639
1.69159
1.64383
1.55536
1.6356
1.67617
1.67051
1.59887
1.60592
0.000957717
0.000979709
0.00117607
0.00101
0.00063691
0.000823908
0.00101
0.00116973
0.000941828
0.000912449
0.000160682
0.000986054
0.000875008
0.000784345
0.000364681
0.000970585
0.000398113
0.000222877
0.000982444
0.00101
0.000771965
0.000895476
0.000833864
0.000976221
0.00092185
0.00100577
0
0
0
0.00065666
0.000798452
0.00101
0.00100563
0.000944429
0.000473953
0.000911195
0.000978965
0.000968087
0.00097325
0.000338297
0.00093345
0.000914242
0.000926795
0.000822171
0.000141411
1.18239
1.19272
1.20307
1.06941
1.09186
1.05029
1.05024
0.978984
0.969355
0.884476
0.89507
0.882578
0.884628
0.983778
0.978421
0.828565
0.830396
0.791491
0.771221
0.870825
0.864549
0.88935
0.944109
1.02329
0.988033
1.05412
1.00624
0.807972
0.779496
0.840024
0.8617
0.735625
0.735518
0.710388
0.732882
0.773725
0.75153
0.772134
0.777972
2.35245
2.30682
2.38195
2.35248
2.35218
2.41507
2.40018
2.45053
2.43821
2.46518
2.42451
2.38435
2.46441
2.41193
2.24973
2.24962
2.24128
2.2542
2.26808
2.27804
2.2771
2.28374
2.19267
2.19163
2.21507
2.19991
2.2315
2.23887
1.83066
1.75376
1.67087
1.74663
1.54207
1.6346
1.74847
1.75474
1.98044
1.97948
1.98237
1.91004
2.06819
2.1153
2.02637
1.97976
2.12019
2.12118
2.13266
2.12119
2.15743
2.1788
2.1876
2.18914
2.1899
2.18557
2.19117
2.19285
2.1902
2.1861
1.2326
1.22779
1.39483
1.4707
1.37245
1.29183
1.52603
1.46992
1.20559
1.22803
1.1991
1.11622
2.36737
2.40273
2.3866
2.4106
2.42895
2.41773
2.45409
2.465
2.44213
2.45606
2.44463
2.45367
2.461
2.48373
2.50377
2.52402
2.52148
2.57201
2.55038
2.60456
2.61187
2.4791
2.49055
2.6042
2.62257
0.715162
0.874465
0.745605
0.849016
0.773329
0.745353
0.707655
0.670209
0.694993
0.738144
0.622954
0.683865
0.683251
0.569732
0.629947
0.77433
0.890993
0.805989
0.901325
0.899057
0.89187
0.963699
1.10892
1.01357
1.19679
1.20142
1.16459
1.11437
1.23602
1.27575
1.33546
1.32587
1.34575
1.33516
1.45667
1.4018
1.50481
1.49375
1.52172
1.52696
1.5033
1.55871
1.60162
1.57462
1.56084
1.59066
1.64202
1.62245
1.60547
1.64979
1.73242
1.73086
1.72696
1.74494
1.8743
1.79209
1.96081
1.98599
1.9872
2.05424
2.13219
2.20645
2.21313
2.22683
2.27217
2.32195
2.35754
2.35738
2.39489
2.36983
2.42322
2.43714
2.43854
2.43852
2.43756
2.43815
2.40437
2.43726
2.40419
0.0875719
0.0778249
0.100251
0.0642647
0.37594
0.679017
0.377291
0.84632
0.712643
0.724617
0.57133
0.585067
0.588034
0.584066
0.586765
0.58736
0.584283
0.589335
0.587897
0.0993455
0.0912037
0.000463543
0.0266518
0.0722675
0.0198401
0.0699682
0.0706502
0.0375053
0.0493493
0.000849191
0.000783361
0.000555123
4.16334e-08
1.66427e-12
0.000768598
0.00211478
3.38888e-06
0.000959982
0.00100986
0.000887496
0.000962023
0.000983014
0.00188951
0.000988947
5.15522e-05
1.36216e-05
0.000607696
0.000224882
0.000988249
0.000479144
0.000826696
0.000961729
0.00100941
0.00031059
4.78878e-05
0.000987756
0.00100992
0.000817418
0.000560979
0.000632197
0.00101
0.000799183
0.000973816
0.000279366
0.000905419
0.000941315
0.000824467
0.0010008
0.000939674
0.000880492
0.000886752
0.00100949
0.00097168
0.000773375
0.000984106
0.000952799
0.000450342
0.00098992
0.000934564
0.000964099
0.000974876
0.000974485
0.00101
0.00099424
0.000905098
0.000464111
0
0
0
0
0
0
0
0
0
0
0
0
0
0
0
0
0
0
0
0.00099334
0.000875403
0.000937661
0.000812305
0.000919914
0.000434354
0.000930589
0.00106292
0.000325168
0.000811332
0.000881844
0.000885277
2.65042
2.64684
2.64959
2.62576
2.70336
2.67929
2.50597
2.51348
2.6046
2.54732
2.60697
2.68846
2.60894
2.51158
2.45232
1.56339
1.56705
1.58525
1.55743
1.57335
1.51004
1.5583
1.3339
1.38454
1.25603
1.25724
1.2018
1.20278
1.20166
4.53839e-05
0.000617054
0.000495047
0.000982711
1.01174
1.20433
1.03606
0.000948865
0.000967043
0.990926
0.881174
0.00102176
0.0406152
0.000267198
0.000851724
0.573901
0.725648
0.108126
0.106912
0.252887
0.109046
0.541526
0.40043
0.551647
1.57119
1.57047
1.57447
1.58742
1.57663
1.28807
1.40377
1.34664
1.47185
1.52506
1.55591
1.48442
1.56712
1.51556
1.5146
1.50872
0.000582969
0.000814101
0.000978153
0.000935235
0.000533183
0.000480247
0.000810168
0.00043611
0.000723261
0.000509306
0.000621338
0.0202115
0.00071849
5.15081e-05
0.000876413
0.116256
0.108445
0.0481783
0.000827697
0.000968623
0.058365
0.000985477
0.000740767
0.000908685
0.000621516
0.00100955
0.000627569
0.000973579
0.000348921
2.15212e-05
0
0
0
0
0
0.000884853
0.00107272
0.000978274
0.00107276
0.000658363
0.000551766
1.19589e-06
0.000506929
0.000804952
0.000407145
0.00093197
0.000953825
0.000420305
0.00300442
0.00709995
0.102214
0
0
0
0
0
0
1.17984
1.11029
1.09507
1.02625
1.0186
0.937091
0.923004
0.913647
0.913859
0.904434
0.915106
0.844716
0.857275
0.78033
0.764094
0.913546
0.918549
0.705219
0.700042
0.701763
0.709639
0.98347
1.04932
0.966048
0.862673
0.844815
0.921958
0.852386
0.935749
0.77246
0.746158
0.801897
0.761112
0.714116
0.71157
0.705974
0.727345
0.72172
0.695891
0.685216
0.670026
2.33143
2.31104
2.32185
2.3128
2.33742
2.31935
2.32203
2.40932
2.39301
2.42778
2.4952
2.43402
2.37981
2.2403
2.24066
2.26606
2.25528
2.2792
2.27979
2.30017
2.2877
2.19206
2.19904
2.22255
2.20795
2.22393
2.23017
1.87078
1.7922
1.71233
1.74908
1.69506
1.60244
1.78684
1.75023
1.98488
1.98382
1.94575
1.98965
2.07515
2.12213
1.98669
2.03226
2.1246
2.12145
2.14489
2.12469
2.16517
2.1854
2.18335
2.18385
2.18407
2.18354
2.18908
2.18691
2.18496
2.18401
1.22525
1.28548
1.46976
1.4481
1.37062
1.45341
1.47166
1.5464
1.21884
1.21621
1.2096
1.12767
0.962424
1.00656
1.08936
2.43576
2.43947
2.46584
2.45742
2.48158
2.49411
2.49452
2.49372
2.53122
2.51038
2.52191
2.48724
2.52047
2.52976
2.55415
2.57116
2.58631
2.58213
2.63449
2.63727
2.66001
2.63114
2.54991
2.55523
2.6788
2.6753
0.493042
0.558868
0.445341
0.668464
0.592808
0.671999
0.671524
0.660342
0.587877
0.523197
0.461538
0.455904
0.481
0.542912
0.712173
0.615193
0.595964
0.795535
0.949642
0.911136
0.763238
1.00353
1.04183
1.062
1.04816
1.14577
1.22005
1.08978
1.31415
1.25868
1.32901
1.33079
1.4199
1.3555
1.48002
1.51643
1.50979
1.51414
1.63938
1.6068
1.57365
1.63179
1.65258
1.6499
1.64089
1.63184
1.64764
1.64672
1.73138
1.76881
1.80646
1.76444
1.8059
1.83426
1.97247
1.90871
1.99871
1.98659
2.06925
2.14342
2.23229
2.22556
2.26234
2.29885
2.37581
2.36435
2.38796
2.39166
2.42027
2.43007
2.44949
2.44103
2.45221
2.4481
2.43759
2.44962
2.43561
2.4373
0.0315704
0.00395034
0.0573288
0.033093
0.0355038
0.0559029
0.0367802
0.217792
0.0274137
0.58656
0.595109
0.114965
0.33408
0.591432
0.581654
0.588566
0.580656
0.586299
0.586045
0.515023
0.427577
0.00084997
0.000542453
0.000935585
0.000452823
0.000757793
0.032459
0.000549317
0.000904062
0.000891831
0.000624923
0.00101
0.000209386
0.000613088
0.00100863
0.00189334
0.000976797
0.000918269
0.000999134
0.00358856
7.158e-05
0.000210438
0.00024578
0.00100974
0.00081637
6.39222e-09
0.000980809
0.00100983
0.000216105
0.000848872
0.00100647
0.000131712
0.00100976
0.000959372
0.00015285
0.000986414
0.000975827
0.000990657
0.00363128
0.000980885
0.000643427
0.00098777
0.000776699
0.000625833
0.00130973
0.00130966
0.00130968
0.000900202
0.000946957
0.000832782
0.000987787
0.000948013
0.000941776
0.000961192
0.000871734
0.000897996
0.000947049
0.000951887
0.000925848
1.67713e-05
0.000881191
0.00092376
0.0003855
0.000414352
0.00098456
0
0
0
0
0
0
0
0
0
0
0
0
0
0
0
0
0
0
0
0.000854909
0.000943785
0.00101
0.000948967
0.00161671
0.000639518
0.00106117
0.000886169
0.00104366
0.000887239
0.000708127
0.000991424
2.69157
2.71326
2.71042
2.67186
2.68452
2.67441
2.65996
2.56949
2.55178
2.58962
2.61519
2.59895
2.6178
2.66949
2.52767
2.55765
2.46603
2.48919
2.48926
1.56453
1.57203
1.46644
1.43301
1.53383
1.4555
1.46475
1.33985
1.36989
1.22862
1.20324
1.20268
1.201
1.17751
0.000850671
0.000533667
1.12114
1.23466
1.01178
0.00100506
0.000539665
0.963648
0.961508
0.00152866
0.000432266
0.695431
0.837731
0.0749968
0.138413
0.0833661
0.0375421
0.555695
0.570921
0.15874
0.191032
0.233343
0.334153
0.492367
1.53617
1.56633
1.54485
1.52904
1.29406
1.29234
1.31442
1.3854
1.51028
1.50061
1.45582
1.50405
1.50384
0.0281412
0.0265338
0.0265996
0.0426951
0.0602644
0.0874021
0.0948496
0.0864254
0.0893074
0.12599
0.140253
0.160833
0.155592
0.16797
0.214337
0.250417
0.205145
0.297772
0.25038
0.200737
0.238406
0.24671
0.25207
0.000995064
0.000836769
0.00107282
0.000570634
0.00039799
0.00101
0.000996671
3.7271e-05
0.000733696
0
0
0
0
0
0.000500823
0.000891535
0.000776104
0.000529397
0.0736572
0.109501
0.185578
0.211675
0.278621
0.148814
0.00307407
4.94946e-05
0.383312
0.254218
0.286632
0.325013
0
0
0
0
0
0
0
0
0
0
1.09733
1.01083
1.01487
0.954068
0.951593
0.927625
0.94455
0.915042
0.952031
0.882502
0.881511
0.790538
0.809432
0.715261
0.716892
0.688272
0.687843
0.836329
0.808205
0.695457
0.687143
0.690469
0.680484
0.909065
0.952101
0.792754
0.765028
0.835372
0.95344
1.01228
0.968508
0.695226
0.654601
0.721156
0.743209
0.646615
0.628322
0.62212
0.588688
0.6176
0.594601
0.617076
0.632785
2.29827
2.29591
2.39293
2.32168
2.35974
2.3542
2.37878
2.34599
2.375
2.43411
2.38762
2.46529
2.42543
2.49559
2.22192
2.24284
2.23948
2.26029
2.24208
2.26741
2.31311
2.26278
2.18839
2.19659
2.20504
2.21282
2.21243
2.21211
1.92462
1.84444
1.73111
1.74933
1.6515
1.74223
1.75594
1.81335
1.99146
1.99203
1.99182
1.96859
2.08122
2.12712
2.04809
2.0029
2.12723
2.12756
2.13359
2.15237
2.18205
2.17192
2.1823
2.18402
2.18452
2.18333
2.18513
2.18552
2.1846
2.18492
1.30494
1.21289
1.4776
1.48058
1.39376
1.48601
1.48287
1.58196
1.21
1.20889
1.189
1.17198
1.11131
1.20959
2.44891
2.46773
2.48736
2.52291
2.51717
2.53917
2.55248
2.56079
2.56815
2.55421
2.56579
2.58536
2.60242
2.61891
2.61711
2.62746
2.64975
2.67087
2.67987
2.67839
2.69422
2.56614
2.55637
2.71384
2.72223
0.307883
0.352925
0.332737
0.417826
0.536285
0.615948
0.513327
0.538941
0.446576
0.459903
0.457786
0.487185
0.584227
0.535846
0.607228
0.608596
0.608301
0.670568
0.739361
0.910983
0.837815
1.00063