/*--------------------------------*- C++ -*----------------------------------*\
  =========                 |
  \\      /  F ield         | OpenFOAM: The Open Source CFD Toolbox
   \\    /   O peration     | Website:  https://openfoam.org
    \\  /    A nd           | Version:  8
     \\/     M anipulation  |
\*---------------------------------------------------------------------------*/
FoamFile
{
    version     2.0;
    format      ascii;
    class       volScalarField;
    location    "19620";
    object      nut;
}
// * * * * * * * * * * * * * * * * * * * * * * * * * * * * * * * * * * * * * //

dimensions      [0 2 -1 0 0 0 0];

internalField   nonuniform List<scalar> 
526318
(
0.000361771
0.000583807
0.000424147
0.000681626
0.000359213
0.000423755
0.000291477
0.000160691
0.000181212
0.000410549
0.000472614
0.000442319
0.000167167
0.000675624
0.000248468
0.000351831
0.000253364
0.000178331
0.00015918
0.000438667
0.00071887
0.000712488
0.000149991
0.000361802
0.000422692
0.000223957
0.000421312
0.000351541
0.000104357
0.000337283
0.000363868
0.00020814
0.000228827
0.000645903
0.000312697
0.00039887
0.000722899
0.000503249
0.000762846
0.000241787
0.000413578
0.000506517
0.00029263
0.000454164
0.00036334
0.000249804
0.000179792
0.00031546
0.000541529
0.000579168
0.000322573
0.000427345
0.000488201
0.000373247
0.000170911
0.000350772
0.000244076
0.000310286
0.000481668
0.00046568
0.0002662
0.000249168
0.000162054
0.000282229
0.000208392
0.000384646
0.000259413
0.000449465
0.000351281
0.000293601
0.000175629
0.000417989
0.000223556
0.000455303
0.000436397
0.000475347
0.000484905
0.000580242
0.000345342
0.000310112
0.000302811
0.000434004
0.000530307
0.00053359
0.000248422
0.000288597
0.000540063
0.000271554
0.000333208
0.000315853
0.000391983
0.000330516
0.000270281
0.000258567
0.000289152
0.000218367
0.000303448
0.000322483
0.000201345
0.000235155
0.000145045
0.000398183
0.000350629
0.000344855
0.000170039
8.01128e-05
0.00022937
0.000361081
0.000276347
0.000314579
9.85045e-05
0.00014238
0.000397418
0.000398808
0.000154287
0.000282893
0.000183547
0.000375448
5.57795e-05
7.59307e-05
0.000127057
0.000169898
0.000267264
0.00010029
0.000187905
6.68323e-05
0.000137988
1.45834e-05
3.13333e-05
4.90232e-05
7.6384e-05
6.95106e-05
7.86994e-05
4.92608e-05
4.62194e-05
3.59505e-05
6.63745e-05
7.66095e-05
7.13235e-05
1.9992e-05
7.08489e-05
4.98923e-05
9.11193e-05
6.36483e-05
2.83139e-05
1.47751e-05
5.26769e-05
2.2334e-05
0.000136134
5.14974e-05
1.00721e-05
0.000120528
0.000107061
0.000337391
1.72154e-05
6.97685e-05
0.000133827
0.000184755
0.000348247
0.000139949
0.000295597
0.000155848
0.000163317
0.000483333
0.000326053
0.000297819
0.000145818
0.000286539
0.000290449
0.000352835
0.000503806
0.000281608
0.00035573
0.000513029
0.000435868
0.000429307
0.000404129
0.000224846
0.000238957
0.000271297
0.000243471
0.000255943
0.000155259
0.000241434
0.000202011
0.000211921
9.88524e-05
5.44697e-05
0.00012082
2.79327e-05
9.03167e-05
7.15656e-05
0.000106294
9.63403e-05
6.87844e-05
7.98884e-05
6.87283e-05
1.1711e-05
0.000136892
6.60511e-05
2.54324e-05
0.000441861
8.28684e-05
8.2682e-05
0.000111369
0.000213997
0.000272298
0.000181328
0.000160417
0.000205137
0.000563033
0.000430827
0.000380023
0.000242174
0.000461456
0.000452385
0.000216471
0.000586573
0.000652142
0.000347672
0.0003073
0.000388953
0.000310338
0.000152831
0.000110328
0.000585866
0.000425027
0.000145208
0.000185609
0.000202691
0.000304319
0.000175309
0.000453614
0.000388126
0.000149928
0.000326104
9.84316e-05
0.000114198
0.000452167
0.000282982
0.000222726
0.000353487
0.000267798
0.000241435
0.000222306
0.000360302
0.000174692
0.000371239
0.000273352
0.000339574
0.00034581
0.000407029
0.000297736
0.000377402
0.000321044
0.000223605
0.000218893
0.00013441
0.000146193
0.000166557
0.000259292
0.000133817
7.51814e-05
0.00019954
0.000178933
0.000229617
0.000350326
0.000348376
0.000225443
0.000255543
0.00032216
0.000298853
0.000459743
0.000416224
0.000232412
0.000140031
0.000160435
0.000238946
0.000254522
0.000802764
0.00019593
8.73348e-05
4.74815e-05
0.000156732
2.11414e-05
2.82077e-05
7.34047e-05
3.91328e-05
7.76422e-05
7.32479e-05
2.00919e-05
1.63096e-05
8.17194e-05
5.59653e-05
0.00013779
0.000250502
0.00031231
0.000257096
0.000346141
0.000297573
0.00031918
0.000197916
0.00014448
0.000270645
0.000198107
0.000219278
1.9994e-05
4.07646e-05
5.31224e-05
0.000191078
0.000102201
6.38738e-05
8.46593e-05
0.000119031
0.000122212
8.73936e-05
0.000300301
0.000335096
0.000317901
0.000352355
0.000279685
0.000383627
0.000249668
0.000301771
0.000416056
0.000340417
0.000494907
0.000526812
0.000443298
0.000437244
0.000275113
0.00031001
0.000240634
0.000216632
0.000188899
0.000221081
0.000196275
0.000227766
0.000158082
0.000289892
0.000270189
0.0002023
0.000163848
0.000231956
6.67472e-05
0.00018935
0.000106771
7.76703e-05
4.97331e-05
0.000113273
7.5392e-05
9.33383e-05
6.86814e-05
3.96254e-05
2.86837e-05
0.000150812
5.12601e-05
8.39716e-05
8.04597e-05
0.00027378
0.000138902
4.01481e-05
0.000295462
0.000196485
0.000188106
0.000261971
0.000264779
0.000319404
0.000354152
0.000345637
0.000308729
0.000274244
0.000352856
0.000366477
0.000346464
0.000345125
0.000295997
0.000278338
0.000212985
0.000173057
0.000440696
0.000670628
0.000162809
0.000275371
0.000551371
0.000367204
0.000350474
0.000427139
0.000215649
0.000514722
6.31849e-05
0.000311983
0.000228515
0.000239448
0.000363171
0.000220559
0.000127146
0.000375957
0.000471901
0.000197142
0.00037926
0.000402613
6.1026e-05
0.000298395
9.10506e-05
5.0737e-05
0.00011351
4.89702e-05
7.95871e-05
1.98904e-05
0.000167418
0.000579753
4.84941e-05
0.000398332
0.000386429
0.000108653
0.000218121
0.000168796
0.000255064
0.000375429
0.000335413
0.00045819
0.000290757
0.000356865
0.00019741
0.00031017
0.000464883
0.000399073
0.000282885
0.000249012
0.000245177
0.00025475
0.000273997
0.000181571
0.000191153
0.000220434
9.21472e-05
0
1.04119e-10
1.09097e-10
0
0
0
0
7.00129e-11
1.43196e-10
5.46784e-11
4.95411e-05
0
0
0
8.83302e-05
0
5.55314e-05
7.28549e-05
5.07613e-05
0.000131233
0.000286616
0.000147607
0.000305081
0.000287804
0.000262818
0.000329219
0.000298876
0.000278721
0.000171548
0.000229172
7.19767e-05
0.000171305
0.000258093
6.94975e-05
0.000405021
0.000304596
0.000271679
0.000221679
0.000180118
9.4807e-05
6.39567e-05
0.0001168
9.97805e-05
6.38398e-05
5.08932e-05
6.44701e-05
4.52415e-05
5.56815e-05
8.91807e-05
5.85981e-05
0.000156433
0.000183658
0.000247443
0.000219688
0.000219327
0.000311745
0.000266427
0.000289896
9.21767e-05
0.000145025
0.000119885
4.75399e-05
8.18845e-05
0.000118864
8.3675e-05
7.76708e-05
0.000113496
4.65383e-05
9.62892e-05
0.000311191
0.000370309
0.000353317
0.000334149
0.00037531
0.000392358
0.000345946
0.000334443
0.000374602
0.000346721
0.000383283
0.000353348
0.000351338
0.000339487
0.000297581
0.000289165
0.00020173
0.000386462
0.000291434
0.000361244
0.000376512
0.000359023
0.000375668
0.000303589
0.000432176
0.000341175
0.000229097
0.000250219
0.000164274
6.14573e-05
0.000124755
8.86266e-05
0.000189249
8.66812e-05
0.000219887
0.00027136
0.000293711
0.000255537
0.000180816
0.000295208
0.000132127
0.000227325
5.11859e-05
0.000164336
4.19154e-05
6.93816e-05
6.47674e-05
9.26238e-05
4.41323e-05
9.33203e-05
3.15319e-05
6.44813e-05
0.000118089
3.05432e-05
0.000179337
0.000230032
0.000120115
0.000197988
0.000165441
0.000308907
0.000267735
0.000206526
0.000326402
0.000225134
0.000310503
0.000334049
0.000296647
0.000278209
0.000311393
0.000336618
0.000342217
0.000291354
0.000378925
0.000378317
0.000356949
0.000512992
0.000304659
0.000320931
0.000568999
0.000798361
0.000513203
0.000322402
0.000474092
0.000215335
0.000256906
0.000298057
0.000222933
0.000207339
0.000189787
0.000253826
0.000267872
0.000295274
0.000273491
0.000235614
0.000256382
0.000279995
4.12225e-05
0.000332622
0.000282446
3.29916e-05
0.000125891
0.000242387
2.22077e-05
0
1.85938e-05
1.37883e-05
0.000411055
0
0.000702886
0.000700006
0.000405831
0.000187671
0
0
0
0
0
0
0
0
0
0
1.72671e-09
0
0
6.25697e-10
6.89176e-10
1.82567e-09
0
0
0
0
0
0
0
0
0
0
0
0
0
0
0.000403972
0.000222196
0.000291274
0.000217835
0.000233591
0.000211027
0.000483591
0.00029411
0.000340149
0.000386202
0.000314847
0.000275758
0.000261411
0.000225009
0.000324072
0.00034397
0.000240772
0.000180972
0.000185006
0.00034651
0.000133798
0.000166792
0
0
0
0
0
0
0
0
0
0
0
0
0
0
0
0
0
0
0
0
0
0
0
0
1.7078e-05
8.3857e-05
9.02506e-05
0.000163839
8.19366e-05
0.000216461
0.000336382
0.000180224
0.000276516
0.000312495
0.000238499
0.000265711
0.000273171
9.141e-05
0.00011635
0.000284866
0.000330636
0.000230275
0.000146622
0.00023311
0.000443336
0.000125562
0.000292793
0.000350762
6.28002e-10
0
0
0
0
0
0
0
0
0
0
0
0
0
0
0
0
0.000202349
9.13769e-05
0.000126809
8.07686e-05
7.44475e-05
6.59113e-05
7.36235e-05
4.63904e-05
7.55936e-05
5.12786e-05
8.76601e-05
8.9552e-05
0.000177187
0.000139799
0.000197543
0.000155789
0.000260762
0.000260077
0.000316148
0.000299071
9.44971e-05
0.000126247
0.000133064
0.000140356
9.80404e-05
9.58009e-05
0.000107582
9.47741e-05
5.8695e-05
0.000125943
0.000153126
8.90289e-05
0.000387923
0.000401133
0.000388972
0.000398904
0.000380156
0.000407246
0.000447307
0.000431143
0.000453632
0.000444132
0.000362689
0.0003867
0.000407956
0.000407257
0.000383443
0.000389306
0.000374575
0.000386483
0.000334323
0.000346628
0.00017194
0.000297622
0.000438616
0.00025939
0.000214732
0.000279815
0.000375613
0.000280571
0.000257795
0.000283648
0.000221121
0.000141782
0.00021154
6.42975e-05
0.000151912
0.000136911
0.000197245
5.06855e-05
0.000118816
0.000201791
0.000245776
0.000256141
0.000310922
0.000296616
0.000335948
0.000182878
9.24433e-05
0.000158049
0.00012168
6.15866e-05
2.37244e-05
0.000113675
3.70073e-05
2.54949e-05
6.98824e-05
4.86325e-05
3.35056e-05
2.50154e-05
8.09375e-05
3.62854e-05
0.000121624
0.000185832
0.000223585
0.000136818
0.000242724
0.000253153
0.000184315
0.000261949
0.000243459
0.000282756
0.000293203
0.000320138
0.000245872
0.000289819
0.00030941
0.000326756
0.000363017
0.000359243
0.000348982
0.00037526
0.000421432
0.000366847
0.000448285
0.000452376
0.000467931
0.000506068
0.000531731
0.000488638
0.000490454
0.000505993
0.000524701
0.000567999
0.000596495
0.000637554
0.000583088
0.000621691
0.000685146
0.000699892
0.000737936
0.000661043
0.000755884
0.000780801
0.000795629
0.000804696
0.000748673
0.00084102
0.000798165
0.000820004
0.000834733
0.000856357
0.000829705
0.00082161
0.000812805
0.000750516
0.000794142
0.000798971
0.00076023
0.000685747
0.000712499
0.000693705
0.000726569
0.000335334
0.000307984
0.000157472
0.000368362
0.000123931
0.000183059
0.000439191
0.000218686
0.000131595
0.000127893
0.00017427
0.000254613
0.000304239
0.000166079
0.000197525
0.000138237
0.000243601
0.000193193
0.000161
0.000189282
0.000172556
0.000220796
0.000197932
0.000279587
0.000118379
0.000253487
0.00015227
0.000160834
0.000168611
0
0
0
0
9.22942e-07
0
0.000560685
0.000800856
0.000458555
0.000186971
0
0
0
0
2.86256e-09
0
0
0
0
0
0
0
0
0
0
0
0
0
0
0
0
1.7538e-10
0
1.46086e-10
0
0
0
0
3.39424e-09
0
7.651e-09
6.61628e-09
0
5.14864e-10
5.6549e-09
6.30721e-09
0
0
0
0
0
0
0
0
0
0
0
0
0
0
0
0
0
0
0
0
0.00016544
5.55594e-05
0.000129048
0.000353942
0.000259026
0.000339173
0.000320129
0.00015357
0.000225145
0.000316662
0.000343659
0.000279577
0.000270149
0.000270962
0.000157047
0.000239249
0.000128511
0.000191013
0.00032407
0.000242025
0.000265502
0.000278359
0
0
1.0235e-09
7.544e-10
0
0
0
0
1.8097e-09
0
0
0
0
0
0
0
0
0
0
1.65845e-05
9.19923e-05
7.54999e-05
0.000136663
0.000117741
0.000193359
0.000158675
0.000231231
0.000316831
0.000326941
0.000244681
0.000298456
0.000387913
0.00042494
0.000223527
0.000313568
0.000289526
0.000252822
0.00015982
0.000187082
0.000348625
5.18365e-05
0.000260922
0.000172565
0.00015924
0
0
0
0
0
1.80525e-11
0
0
1.02589e-11
0
0
0
0
0
0
0
0
0
0
0
0
0
0
0
5.95774e-07
1.10801e-06
0.000102672
0.000149339
8.86893e-05
9.33393e-05
8.91355e-05
5.21664e-05
4.76062e-05
9.39548e-05
0.000100415
6.25865e-05
9.45477e-05
9.70791e-05
0.000161959
0.00016257
0.000192734
0.000208155
0.00026253
0.000261142
0.000308578
0.000304771
0.000140198
9.93025e-05
0.00013029
0.000150074
8.54514e-05
0.00013018
7.04486e-05
0.000149272
0.000161545
8.11402e-05
0.000108593
0.000160216
0.000443362
0.00046416
0.000399391
0.000421769
0.000410492
0.000430293
0.000453905
0.000456282
0.000558103
0.000570991
0.000511578
0.000511546
0.000656171
0.000669423
0.000768185
0.000768244
0.000815615
0.000859496
0.00083051
0.000875979
0.000817612
0.000788837
0.000737638
0.00072332
0.000633573
0.000656472
0.000651108
0.000659361
0.000673638
0.000688152
0.000400633
0.000408569
0.000439682
0.000426413
0.000372646
0.000406961
0.000386822
0.000394122
0.000336666
0.0003545
0.000297551
0.000147215
0.000144998
0.000518007
0.000146679
0.000266357
0.000213
0.000385344
0.000282721
0.000131504
8.12522e-05
0.000273408
0.000229138
0.000146374
0.000223004
0.000190377
0.00015434
0.000273266
0.000237663
0.00029793
0.00019387
0.000309352
0.000271621
0.000292267
0.000182654
0.000179983
0.000133418
7.58305e-05
3.69573e-05
7.11533e-05
7.20258e-05
1.20378e-05
1.52159e-05
7.48749e-05
4.21627e-05
3.9119e-05
9.69572e-05
8.61622e-05
8.3182e-05
9.75206e-05
0.000214025
0.000247294
0.000138711
0.000112512
0.000274282
0.000230288
0.000193051
0.000209866
0.000280538
0.00024491
0.000286612
0.000280383
0.00027749
0.000307252
0.00032027
0.000342594
0.000387822
0.000349257
0.000412516
0.000408641
0.000474508
0.000467943
0.000472259
0.000551101
0.00048607
0.000484548
0.000544221
0.000625178
0.00060145
0.0007192
0.000703663
0.000781369
0.000763516
0.000808391
0.000803728
0.000815992
0.000815499
0.000781824
0.000726243
0.000786076
0.00072112
0.000661269
0.00062591
0.000663711
0.000623899
0.000598586
0.000593567
0.000604577
0.0006211
0.000590575
0.000576141
0.000577976
0.000561496
0.00025166
0.00021
0.000268371
0.000234415
0.000274826
0.000205623
0.000283944
0.000159566
0.000227511
0.000224726
0.000132717
0.000237622
8.54186e-05
0.000193019
0.000236403
0.000110317
0.000194868
0.000165517
0.000151121
0.000114821
0.000125207
9.60024e-05
0.000141846
0.000215393
0.000137755
0.000198324
9.79807e-05
0.00027469
2.22951e-05
0.000163122
0.000342664
0
0
0
0
1.84068e-06
0
9.21001e-05
0
0.000334923
1.12219e-06
0
3.90029e-09
0
0
0
0
0
0
0
0
1.66157e-11
0
0
0
0
0
0
0
0
0
0
0
0
0
0
0
0
0
0
0
0
0
0
0
0
0
0
0
0
0
0
0
0
0
0.000257777
0.000213916
0.000345811
0.000459995
0.000190627
0.000345191
0.000310839
0.000228811
0.000229166
0.000361354
0.000211182
0.00015003
0.00030454
0.000298514
0.000174198
0.000199863
0.000116134
0.000231344
0.000178579
0.00022541
0.000284088
0.000285223
6.09927e-10
0
4.63827e-11
0
0
0
0
0
0
0
0
0
0
0
0
0
0
0
0
6.19249e-05
8.72902e-05
4.22668e-05
7.42202e-05
0.000101957
0.000163574
0.000185128
0.000236358
0.000287013
0.000216497
0.000215692
0.000168318
0.000136509
6.75436e-05
0.000284731
8.49771e-05
0.000240306
0.000165724
0.000347087
0.000126927
0.000232042
0.000406092
0.000376507
0.000240111
8.27963e-05
0
0
0
0
0
0
0
0
0
0
0
0
0
0
0
0
0
0
0
0
0
0
4.80805e-07
0
0
0
0
0
0
0
0
9.2625e-05
0.00011408
5.13862e-05
9.74393e-05
9.57414e-05
4.50622e-05
5.22586e-05
9.80797e-05
0.000135699
0.000133903
9.38047e-05
9.25832e-05
7.87879e-05
0.000113584
8.55291e-05
0.000157285
0.00016459
0.000197398
0.000216926
0.00027852
0.00027004
0.000314647
0.000311352
0.000128429
0.000153823
0.000156916
0.000155114
9.05634e-05
0.000138068
0.000160152
9.77107e-05
0.000110099
0.000164874
0.000148019
0.000134618
0.000277703
0.000526393
0.000380218
0.000466819
0.00047303
0.000481611
0.000534388
0.000566805
0.000444711
0.000443382
0.000446682
0.000503294
0.000347173
0.000514842
0.000545966
0.000537816
0.000532961
0.000571166
0.000512739
0.000545917
0.000509518
0.000556362
0.000535321
0.000506335
0.000408398
0.000529352
0.00051494
0.000503262
0.000447077
0.000615812
0.000615737
0.000566329
0.000588146
0.000563236
0.000530888
0.000477721
0.000472391
0.000437537
0.000458325
0.000463691
0.00045178
0.000457296
0.000483159
0.000595249
0.000573023
0.000528876
0.000557812
0.000765444
0.000710562
0.000865744
0.000822134
0.000880671
0.000836515
0.000823614
0.000805915
0.000768432
0.000748478
0.00072144
0.00068679
0.00064288
0.000634599
0.000673064
0.000642163
0.000418146
0.000424267
0.000399557
0.000412126
0.00041227
0.000437585
0.000470393
0.000384474
0.000383637
0.000355723
0.000331278
0.000613137
0.000585784
0.00058752
0.000578208
0.000585518
0.000566313
0.000564272
0.000573709
0.000524955
0.000489918
0.00055224
0.000541049
0.00052393
0.000601637
0.00049844
0.000613902
0.000511058
0.000437291
0.00032294
6.85144e-05
0.000197619
0.00015367
9.79433e-05
0.000145724
0.000242233
6.21432e-05
0.00014027
0.000290024
0.000180368
0.000285416
0.000191655
0.000212601
0.000177126
0.000255183
0.000278132
0.000176249
0.000261981
0.00031112
0.000249931
0.000302669
0.000191695
0.0002118
0.0001356
0.000128592
7.74028e-05
0.000135717
4.37484e-05
7.74097e-05
5.75186e-05
1.51066e-06
6.15388e-05
2.10371e-05
3.28155e-05
9.95768e-05
0.000108077
3.51214e-05
0.000181906
0.000168092
0.000199645
0.000220299
0.000137103
0.000256887
0.000197774
0.000245793
0.000226132
0.000202495
0.000267174
0.000221797
0.000295435
0.000318762
0.000301061
0.000281195
0.000325491
0.000311828
0.000367927
0.000365244
0.00042456
0.000441334
0.000450348
0.000518579
0.000451788
0.000473338
0.0005273
0.000561399
0.000586813
0.000627432
0.000669856
0.000718923
0.000766798
0.000739542
0.000770958
0.000791469
0.000797987
0.000801842
0.000755856
0.000805279
0.00077273
0.000695485
0.000648745
0.000714671
0.00062755
0.000657047
0.000608346
0.000108909
0.000162471
0.000208569
0.000198995
0.000153285
0.000111286
0.000188102
0.000232741
9.31035e-05
0.000100558
0.0001813
9.01999e-05
0.00020056
0.000223256
5.55701e-05
5.43852e-05
0.000144641
0.000162992
0.000267078
0.000139985
0.000199943
0.000121934
7.72316e-05
6.25023e-05
0.000104821
0.000101612
3.84073e-05
0.000273786
0.00010563
0.000227947
0.000147301
0.000400451
0.000363104
0.000217194
0
0
0
0
0
0
0
0
0.000126374
0
0
0
0
0
0
0
0
2.67662e-07
0
0
0
0
0
0
0
0
0
0
0
0
4.315e-10
0
0
0
0
2.70542e-09
0
0
0
0
0
0
0
0
0
0
0
0
0
0
0
0
0
0
0
2.13151e-09
0
0
0
0
2.3368e-09
0.000467345
0.000809253
0.000450454
0.000318631
0.000466151
0.000517443
0.000262958
0.000471998
0.000208164
0.000336466
0.000126302
0.000215453
0.000221009
0.000112789
0.000294854
0.000166326
0.000283172
0.000337569
0.000255412
0.000188427
0.000174913
0.000216258
0.000255236
0.000246535
0.000248638
0
0
0
0
0
0
0
0
0
0
0
0
0
0.000212071
0.000207249
0.000295191
0
0
2.11442e-06
1.58565e-05
7.95286e-05
0.000182522
2.47616e-05
8.29169e-05
8.60277e-05
0.000108067
0.000183588
0.00025754
0.000354775
0.000337627
0.000393297
0.000213656
0.000207392
0.00036051
0.000376975
0.000152958
0.000411432
0.000235445
0.000186518
0.000541586
0.000585765
0.000175414
0.000654484
0
2.74313e-10
0
0
0
0
0
0
0
0
0
0
0
0
0
0
0
0
0
0
0
0
0
0
0
0
0
0
0
0
0
0
0
0
0
0
0
0.000113796
0.000172583
0.000154141
7.57303e-05
7.4618e-05
7.90863e-05
4.45756e-05
8.89518e-05
4.03223e-05
6.4212e-05
7.28621e-05
9.51989e-05
7.17411e-05
6.13661e-05
9.45646e-05
0.000129194
7.06002e-05
0.000183883
0.00017396
0.000237744
0.000202133
0.000280474
0.000270317
0.000322423
0.000318664
0.000154933
0.000145259
0.000172718
0.000166327
0.000151023
9.21516e-05
0.000159954
0.00012509
0.000134785
0.000177664
0.000147342
0.000169227
0.000483793
0.000361635
0.000371384
0.000385354
0.000642814
0.000280932
0.000771986
0.00065878
0.000517068
0.000510106
0.000535175
0.000501027
0.000519404
0.00047037
0.000389674
0.000372486
0.000587312
0.000605014
0.000569689
0.000545955
0.000516302
0.000540054
0.00050835
0.000496729
0.000524809
0.00048937
0.000497516
0.000490261
0.000518987
0.000479458
0.000607976
0.000743855
0.000654568
0.000555297
0.000606729
0.000812128
0.000796478
0.000712996
0.000780409
0.000863363
0.000869782
0.000855373
0.000837384
0.000808445
0.000782328
0.000727975
0.000758051
0.000674085
0.000701329
0.000604614
0.000625914
0.000651748
0.000632482
0.000396114
0.000401472
0.000466031
0.000473272
0.000428012
0.000454932
0.000501781
0.000491201
0.000397474
0.000390157
0.000365796
0.000375284
0.000632915
0.000643644
0.00062987
0.000612679
0.000608205
0.000603385
0.000604537
0.000591215
0.000588158
0.000604128
0.000550395
0.000633592
0.000574109
0.000518999
0.000582398
0.000533787
0.000515651
0.000473723
0.000636156
0.000645587
0.000619057
0.000618616
0.000355447
0.000686412
0.000488706
0.000231686
0.000221538
6.06561e-05
3.72809e-05
0.000316149
4.02553e-06
0.000256785
0.000152987
0.000248993
0.000250692
0.000223532
0.000214723
0.000192655
0.000227926
0.000258774
0.000158499
0.000135542
0.000235168
0.000163086
0.000214621
0.000168933
0.000197817
0.000100067
0.000158882
3.50092e-05
3.61194e-05
0.000110034
0.00015164
5.30698e-05
1.52852e-05
3.16368e-05
7.36872e-05
3.37913e-05
5.70165e-05
7.58883e-05
6.84569e-05
0.000173399
9.45933e-05
0.00013437
0.000244149
0.000176847
0.000160593
4.60439e-05
3.6237e-05
0.00023402
0.000220106
0.000201745
0.000257576
0.00024044
0.000239727
0.000330868
0.000304873
0.000316434
0.000281087
0.000392009
0.000356189
0.00040876
0.00039777
0.000523849
0.000376039
0.000500229
0.000484617
0.000556349
0.00054845
0.000577781
0.000654782
0.000600947
0.000674347
0.000710785
0.000748488
0.000730853
0.000788268
0.000774206
0.000819977
0.00076971
0.000816379
0.000746501
0.000688966
0.000774325
0.000650245
0.000715326
0.000663103
7.01304e-05
0.000235837
7.06484e-05
0.000108954
0.000148359
8.71838e-05
0.000211209
0.000306145
0.000341395
5.93892e-05
0.000211309
0.000119883
0.000164601
2.40829e-05
0.000196366
0.000189492
4.06913e-05
2.47752e-05
1.06305e-05
0.00011336
0.00023541
0.000157263
4.99881e-05
0.000138068
0.000156673
1.16644e-05
3.98854e-05
1.93346e-05
4.17685e-05
0.000116269
8.96943e-05
0.000329137
0.000181833
0.000276173
6.87662e-05
0.000116317
0
0
0
0
0
0
3.28927e-07
0
0
4.61416e-05
0
0
0
0
0
1.14439e-07
0
0
0
0
1.2286e-09
0
0
0
0
0
0
0
2.50737e-10
8.70487e-10
0
0
2.13407e-09
1.33457e-09
0
0
0
0
2.84019e-09
0
3.68434e-09
0
0
0
0
0
0
0
0
0
0
0
0
0
0
0
0
0
1.3387e-09
0
0
0
0
0
0
0
0
0.000344881
0.000452503
0.00080555
0.00065234
0.000527828
0.00051414
0.000292497
0.000711527
0.00029884
0.000621914
0.000466513
0.000152533
0.000226752
0.000453386
0.000161779
0.000201413
0.000258522
0.000226587
0.000183315
0.000135001
0.00028898
0.00031275
0.000189917
0.000274641
0.000205468
0.000202257
0.000241213
0
0
0
0
0
0
0
0.000254621
0.000242665
0.000175149
0
0
0
0
0.000189941
0.000145264
5.06101e-05
1.26885e-05
1.32337e-05
7.30735e-05
6.39649e-05
8.73726e-05
1.55094e-05
5.30348e-05
0.000112835
0.000403915
0.00035251
5.70801e-05
0.000202378
0.000111291
0.000122082
0.000136455
0.000134311
0.000253226
0.000312779
0.000238626
0.000236396
0.000220865
0.000203363
0.000292687
3.32191e-05
0
0
2.59605e-10
0
0
0
0
6.78502e-10
0
0
0
0
0
0
0
0
0
0
0
0
0
0
0
0
0
0
0
0
0
0
0
0
0
0
0
0
0
0
0
0
0
0
0
0
0
0.000155333
0.000154182
0.000197613
0.000103077
0.00010162
6.24739e-05
6.64482e-05
5.6756e-05
6.1147e-05
4.03062e-05
5.96836e-05
2.49141e-05
9.32332e-05
7.54177e-05
6.34728e-05
3.78456e-05
0.000116609
6.53746e-05
0.000131325
0.000195142
0.000211558
0.000238284
0.000244845
0.00030519
0.000289712
0.000347986
0.000335491
0.000167632
0.000186559
0.000230322
0.000180483
0.00012007
0.000130311
0.000121282
0.000164536
0.000177596
0.000181873
0.000232573
0.000174666
0.000309337
0.000553543
0.000537313
0.000930826
0.000654858
0.000501474
0.0014402
0.00147498
0.00126597
0.00101273
0.00107578
0.000639453
0.000688593
0.000789702
0.000499618
0.000511205
0.000501558
0.000485629
0.000516324
0.000454383
0.000571045
0.000504537
0.000562345
0.000584795
0.00053792
0.000553873
0.000525331
0.000507409
0.000527658
0.000513617
0.000539817
0.000540508
0.000534353
0.000528112
0.000542097
0.000542238
0.000647836
0.000709411
0.000648376
0.000585088
0.000851874
0.000870543
0.000839233
0.000789622
0.000873351
0.000898398
0.000823543
0.000848571
0.000785337
0.000773924
0.000735801
0.000720934
0.000671884
0.000695414
0.000604484
0.000582763
0.000609641
0.000634093
0.000415155
0.000405596
0.0004742
0.000498048
0.000460832
0.000440983
0.000536407
0.000500267
0.000402366
0.000417366
0.000397334
0.000390439
0.000680689
0.000710137
0.000657305
0.000656416
0.000675984
0.000640664
0.000678568
0.000679132
0.000687143
0.000619338
0.000618229
0.00060711
0.000603887
0.000587683
0.000569494
0.000668321
0.000555645
0.000543149
0.000620912
0.000516605
0.000623604
0.000655908
0.000667819
0.000568103
0.000629844
0.000174269
0.000233765
7.95098e-05
0.000242652
7.73212e-05
0.000103342
0.000257514
0.000184557
0.000200092
0.000235302
0.000176251
0.000164923
0.000244003
0.000146503
0.000106425
0.00034513
0.00011784
0.000299072
0.000162196
0.000208815
0.000200651
8.29677e-05
9.44675e-05
0.00019967
0.00011855
0.000161251
0.000181897
0.000287047
9.40388e-05
6.08991e-05
1.60805e-05
6.48897e-05
6.19051e-05
0.000116889
0.000117122
0.000126675
0.000106897
0.000132689
0.00023461
8.99959e-05
0.000166238
0.000199332
0.000142055
0.000141928
0.00017586
0.000265333
0.000216486
0.000124238
0.000289036
0.000278494
0.000346018
0.000368577
0.000268197
0.000317879
0.000430847
0.000371371
0.000393088
0.000453197
0.000420626
0.000523543
0.000472749
0.000555948
0.000524288
0.000615024
0.000594151
0.000678536
0.00065329
0.000701041
0.000732031
0.000719584
0.000786207
0.000749341
0.000820892
0.000751463
0.000830629
0.000735315
0.000711302
0.000804208
0.000751788
4.79087e-05
4.65515e-05
4.48429e-05
1.93852e-05
5.90937e-05
0.000201015
9.02798e-05
0.000216659
0.000283939
0.000155463
0.000179851
0.000200067
5.13957e-05
6.59573e-05
0.000186848
0.00021494
2.94381e-05
7.92091e-05
0.000224702
6.86957e-05
4.53692e-05
0
1.37603e-05
4.13616e-05
2.14619e-05
8.36294e-05
3.64064e-05
4.17979e-05
2.35838e-05
0
0
0
0
0
0
2.37454e-07
0
0
0
0
0
0
4.76874e-07
0
0
0
0
0
0
0
0
0
0
0
0
0
0
0
0
0
0
0
0
0
0
0
0
0
0
0
0
0
0
0
0
0
0
0
0
0
0
0
0
0
0
0
0
0
0
0
0
0
0
0
0
0
0
0
0
0
0
0
0
0
0
0
0
0
0
0
0
0
1.53548e-11
0
0
0
0
0.000438252
0.000547646
0.000521076
0.000590927
0.00120457
0.000707672
0.000461298
0.000499795
0.000794009
0.000420103
0.000786755
0.000646623
0.000413255
0.000556206
0.000236874
0.000347863
0.000269279
0.000325487
0.000207006
7.33169e-05
0.000225595
0.000364527
0.000250955
0.000263073
0.000222473
0.000239786
0.000233068
0.000232106
0.00020298
0
0
0
0
0.000248138
0.000252639
0.000184281
0
0
0.000173384
0.000223925
1.01095e-06
2.19941e-05
0
0
0.000146715
0.0001197
5.43003e-05
2.89118e-05
6.47667e-05
3.38552e-05
5.6384e-05
4.23822e-05
5.47454e-05
0.000243217
0.000408718
0.000275323
0.00041951
0.000320404
0.000281399
0.000286759
0.000315583
0.000162574
6.23848e-05
0.000314009
0.000349007
0.000153915
0.000459094
0.00033641
0.000290071
0
0
0
0
0
0
0
0
0
0
0
2.44021e-06
0
0
0
0.000184346
0.000101697
1.96509e-05
0
0
7.43346e-05
0
0
0
0
0
0
0
0
0
0
0
0
0
0
0
2.01249e-09
0
6.50692e-10
0
0
0
0
0
0
0
0
0
2.60498e-06
1.20746e-05
0.000271483
0
0
0
0
0
0
0.000224153
0.000196324
0.000142554
9.77708e-05
0.000148063
5.96169e-05
9.55467e-05
4.15544e-05
6.1223e-05
3.06904e-05
5.512e-05
3.57382e-05
7.41209e-05
0.000100467
5.45899e-05
6.70692e-05
3.84648e-05
8.65584e-05
0.00010785
0.000115001
0.000120504
0.000304636
0.000370008
0.000344676
0.000206503
0.000241045
0.000264436
0.000272358
0.000298688
0.000202132
0.00025015
0.000217067
0.000252439
0.000143711
0.000101705
0.000104489
0.000196833
0.000233088
0.000196817
0.000226101
0.00024534
0.000615986
0.000225596
0.000845754
0.00127871
0.00133541
0.00130944
0.000993449
0.00134065
0.00074121
0.00125552
0.00100934
0.000342361
0.000490511
0.000482803
0.00050812
0.000472837
0.00050218
0.000484881
0.00044011
0.000539051
0.000587299
0.000582719
0.000556902
0.000527332
0.000554671
0.000529637
0.0004921
0.000599589
0.000542262
0.0005887
0.000558317
0.000560869
0.000543647
0.000554052
0.00058054
0.000706556
0.000790092
0.000632477
0.000713842
0.000899427
0.000901946
0.000836709
0.000893171
0.000855466
0.000853899
0.000796572
0.000788357
0.000770225
0.000759804
0.000751664
0.000716701
0.000684974
0.000650568
0.000574441
0.000605283
0.000650311
0.00061214
0.000428878
0.00044739
0.0004997
0.000511713
0.000488364
0.000505795
0.000534592
0.000545527
0.000421482
0.000410191
0.000415308
0.00040403
0.000307831
0.000364717
0.000384757
0.000711689
0.000710323
0.000705923
0.000709812
0.000688447
0.000746408
0.0007088
0.000719529
0.000698857
0.000717552
0.000649217
0.000625594
0.000661264
0.000693825
0.000577419
0.000657343
0.000640054
0.000582177
0.000673181
0.000658666
0.000691812
0.000545744
0.000702747
0.000685942
0.000603303
0.00060734
0.000155836
0.000115426
6.0165e-05
0.000155029
0.000125121
0.000198248
0.00012647
0.000295997
0.000143423
8.8252e-05
9.66883e-05
0.000100944
0.000117653
0.000193813
0.000323477
0.000138827
0.000208402
0.00022408
0.000189455
1.40758e-05
0.000143808
8.4654e-05
0.000168134
0.000115784
3.65426e-05
0.000161523
0.000202874
0.000388046
0.000128571
0.000167384
8.98008e-05
0.000104642
3.06739e-05
0.000115681
2.32731e-05
2.04458e-05
7.67214e-05
0.000156216
7.54743e-05
0.000196415
0.000125966
0.000204865
8.74892e-05
0.000161262
0.000249097
0.000226078
0.000176777
0.000153388
0.000268127
0.000304909
0.000414
0.000334597
0.000344398
0.000348289
0.000426205
0.000397619
0.000429028
0.00044701
0.000460375
0.000506941
0.000488983
0.000535347
0.0005425
0.000618612
0.000646768
0.000604602
0.000677928
0.000659849
0.000727312
0.000720792
0.000781602
0.000747561
0.00083524
0.000774706
0.000794473
0.000869389
0.000808074
0.000849373
1.4156e-05
5.10789e-07
3.16837e-05
1.56934e-05
1.54937e-05
2.75332e-05
2.01971e-05
0.00011018
2.51392e-05
0.000359804
0.00016771
0.000102998
0.000150028
7.54652e-05
0.00017901
0.000202545
0.000162104
0.000112754
0.000387929
0.000185032
0.000194095
0
0
0
0
0
5.13016e-06
0
0
0
0
0
0
0
0
3.48666e-07
0
0
0
3.67691e-08
0
0
0
0
0
0
0
0
0
0
0
0
0
0
0
0
0
0
4.68128e-09
0
0
0
0
0
6.47467e-10
8.69206e-10
1.4025e-09
0
0
0
0
0
0
0
0
0
0
0
0
0
0
0
0
0
0
0
0
0
0
0
0
0
0
0
0
0
0
0
0
0
0
0
0
0
0
0
0
0
3.03213e-09
0
6.43954e-10
0
2.21703e-09
0
0
0
0.000567991
0.000728003
0.000693466