/*--------------------------------*- C++ -*----------------------------------*\
  =========                 |
  \\      /  F ield         | OpenFOAM: The Open Source CFD Toolbox
   \\    /   O peration     | Website:  https://openfoam.org
    \\  /    A nd           | Version:  8
     \\/     M anipulation  |
\*---------------------------------------------------------------------------*/
FoamFile
{
    version     2.0;
    format      ascii;
    class       surfaceScalarField;
    location    "4620";
    object      phi;
}
// * * * * * * * * * * * * * * * * * * * * * * * * * * * * * * * * * * * * * //

dimensions      [0 3 -1 0 0 0 0];

internalField   nonuniform List<scalar> 
788991
(
-0.0856789
-0.00416862
-0.0613737
-0.0726102
0.00259973
-0.0664263
-0.0255232
0.0285503
-0.0686786
0.0750858
-0.0490182
0.0991818
-0.0327837
-0.104681
-0.0842853
-0.0925731
0.0803001
-0.0180485
-0.128273
0.0763188
0.0296921
0.0454509
-0.0654823
0.0333461
-0.0427652
0.0296498
-0.0845739
0.088163
0.107356
0.0454375
-0.0168482
0.0628137
0.0814928
-0.00508604
0.0675366
0.0136601
-0.0267613
-0.0393101
-0.0776658
0.0113942
-0.0289729
0.0312279
0.0129623
-0.0543292
0.0662484
-0.0283238
-0.0556004
0.0623728
-0.00744867
-0.0822249
-0.101633
0.0670641
-0.0812953
0.013486
0.0542135
-0.00407096
0.13242
-0.230738
-0.0176811
0.0552885
0.0419959
-0.0459956
-0.0844811
-0.00219883
-0.0359814
0.0662958
-0.0553275
-0.0785471
0.0452187
-0.028652
-0.112788
0.0417729
0.229473
-0.150856
-0.0599618
-0.235792
0.0596883
-0.0674479
-0.0200496
0.0648575
0.0666261
-0.0894058
0.0396506
-0.0212796
-0.0252752
-0.00864776
0.0728739
-0.0450412
-0.0585916
0.0280752
0.0724601
0.025708
-0.0458937
-0.0447361
-0.0400055
0.0453558
0.0286597
0.0235792
-0.0230807
0.0367703
0.0142089
0.0241747
0.0066623
0.00133601
0.0300223
0.00378955
0.0204065
-0.00999079
0.012612
-0.0191809
0.00477877
0.0119305
0.00527268
0.00529416
0.00957046
-0.013628
-0.00241269
0.00392572
0.0106363
-0.00828948
-0.0183923
-0.00698221
-0.00885144
-0.0117061
0.0232947
0.00933749
0.00559607
0.0161718
0.00330291
-0.0120095
0
0
0
0
0
0
-0.05442
-0.000529985
0.0437294
-0.0265603
0.175099
-0.0478417
-0.068453
0.110037
0.207751
0.0163867
0.0498557
0.157425
0.0101576
0.0247568
0.0511859
-0.00665193
0.0112066
0.0176096
-0.00456559
-0.0088664
0.0127165
-0.00209884
0.0145405
-0.0265946
0.0140331
-0.0200171
0.0177422
0.0299357
-0.0352366
0.0174175
-0.0393402
0.0199003
0.0573423
-0.0251606
0.0223637
-0.065162
0.0146523
0.0505697
0.00470785
0.0257763
0.0418288
-0.000714045
0.0295979
0.0260506
0.02199
-0.0357559
0.0247146
0.0458062
-0.014298
0.0120333
-0.0252727
0.0618963
0.0674345
0.0194945
0.0117862
0.0399048
0.0701967
0.049601
-0.00370132
-0.0129118
-0.0475784
0.0616909
0.0511662
-0.0159219
0.0112835
0.00519368
0.0517964
0.0488582
0.024459
-0.000716311
0.00277315
0.0144775
0.0322207
-0.0579832
0.0399753
0.00817659
-0.00662639
0.0642377
0.0589347
-0.0127652
0.0485921
0.0442516
0.0613038
0.011609
0.0425048
0.0196321
0.00628222
-0.00540909
0.0102104
0.0178504
0.0155238
0.0123602
0.0180444
-0.00974063
0.00580174
0.0131382
0.000587421
-0.0274686
-0.00937019
0.0152496
0.00393658
-0.0428147
0.0135135
0.00746441
-0.0126173
0.0263379
-0.00386691
0.0157719
-0.0364392
0.00868271
0.0365627
0.0461217
0.00374823
0.0368831
-0.0182922
0.0189464
0.0123025
-0.0235086
0.0315714
0.0464621
-0.0393053
0.0407288
0.0603676
0.0307481
0.0278324
0.0455419
-0.01444
0.0100264
0.0282811
0.00285953
0.0265619
0.0498724
-0.00910336
0.0125141
-0.00646333
-0.0128785
0.00809536
0.0406619
0.0205564
0.0140136
-0.0610792
-0.0243994
-0.0227343
0.00438569
-0.0256969
0.00228992
-0.0525602
0.0500548
-0.0640713
-0.00765768
-0.0592584
-0.0776457
0.036874
-0.0660945
-0.0716719
-0.0701824
0.00655347
-0.0318005
0.0872608
-0.127216
0.137866
0.0451701
-0.0126734
-0.0200498
-0.0446801
0.0253013
-0.0319088
-0.0814903
-0.0297124
0.0298387
-0.0214288
-0.0257692
0.00399968
-0.102267
0
0
-0.00352177
0.0372356
0.0695484
0
0
0
0
0
0
0
0
-0.0330119
-0.0846935
0.0464393
0.0113541
-0.0777189
0.0710927
-0.0923463
-0.0339227
0.0623392
-0.0596979
-0.0235097
-0.0467532
-0.0231058
0.00204285
0.0384627
-0.00862451
0.0194412
0.0256282
-0.0011621
0.0109664
0.0176822
0.00433671
0.0183287
-0.00380774
0.00463122
0.015106
-0.00267891
-0.0139081
0.0108315
-0.00486017
-0.00174118
-0.00106168
-0.0133923
0
0
0
0
0
0
0
0
-0.00178213
0
0.0355366
-0.0998949
0.0508682
-0.164521
0.158282
-0.0425133
-0.0540531
0.121931
0.195052
0.0406432
0.0634046
0.16668
0.0492345
0.0251694
0.116755
-0.0673187
-0.0621108
0.0926324
0.10048
-0.00747633
-0.00297268
-0.0212446
-0.0200083
0.00781965
0.0355706
-0.0385497
0.025708
-0.0357214
-0.0322449
0.00324754
-0.06894
-0.0214823
0.0286929
0.0221272
-0.00607855
0.00359435
-0.041664
0.0426875
-0.050076
0.0597797
0.0619006
-0.0144866
0.0143771
-0.0472908
-0.0327259
-0.0223062
0.0111429
-0.013409
-0.0242574
0.0498023
0.0397118
-0.0125955
-0.0155339
0.0122614
0.00635203
0.00545586
0.0274652
0.0324362
0.0332403
-0.0204616
0.0250807
-0.0246429
0.0294215
0.00931879
0.0116088
0.0172358
0.00407469
0.0134299
-0.00772344
0.00140704
-0.0936646
-0.00481958
-0.0200869
-0.00431739
-0.00365672
-0.0315563
-0.0362599
0.0330337
0.0400402
-0.0479335
0.0224242
-0.011631
-0.0336308
0.0093813
0.0105193
-0.0140504
0.0233588
0.024911
-0.0237046
0.0213215
0.0209048
0.0124031
0.016837
0.0303554
0.0136464
-0.0731942
0.0199903
0.0107438
0.0186616
-0.0586749
-0.036773
-0.00912111
-0.00274822
0.0441986
0.0104439
0.0377656
0.0420465
0.00312476
0.0367801
-0.0196557
0.0210971
0.0162504
-0.0137293
0.0435319
0.0458824
0.0432232
0.0401079
0.0791703
-0.0272104
0.0164757
0.04377
-0.0144783
0.0127923
0.0115726
-0.0252289
0.0192238
0.0605935
0.0105093
0.0218389
0.0655441
0.00625771
-0.00335644
0.0235888
-0.00125866
0.0425904
0.069187
-0.0101491
0.0347829
-0.0138169
-0.0177501
0.021112
0.0100382
0.00350959
0.0156625
0.0220507
-0.0104583
0.0261507
-0.0418273
0.0181527
0.0249216
0.0239526
0.0505674
-0.0276698
0.0861244
-0.0186111
-0.00183355
0.0561844
0.0496397
-0.00599228
-0.0410137
-0.0236653
0.0520325
-0.0169316
-0.0471054
-0.0490469
0.0104483
-0.0636261
0.0380133
0.00593007
-0.0190552
-0.0254716
-0.0264113
0.0127705
-0.0101037
0.122139
0.0967156
0.00522826
-0.00525279
0.000568887
0.145633
0.169857
-0.0881974
0.129811
-0.148882
-0.049885
0.0723659
-0.0427644
-0.00428659
0.020674
-0.00325498
-0.027637
0
0
-0.00672733
0
0
0.0369539
0
-0.0626036
0
0
0
0
0
0
0
0
0
0
0
0
0
0
-0.00679701
-0.101753
0.0813056
0.0418552
-0.0925117
0.100228
-0.0747165
-0.0139801
0.0651003
-0.0387373
-0.00224068
0.0454693
-0.0165337
0.0204215
-0.0360051
-0.00169455
0.0263264
0.0252964
0.00099989
0.0329458
-0.013269
0.00323028
0.0245061
0.0140076
-0.00207415
0.0202103
-0.0110504
0.00412871
0.011509
0.0108817
0.0121979
0.00569935
0.0059305
4.54293e-05
0
7.09449e-05
0
0
3.65243e-05
7.30309e-05
-0.000105888
3.73993e-06
0.000114655
0
-6.89988e-05
0
0
0
0
6.45973e-05
0
0
-4.28639e-06
0
0
0
0
0
0
0
0
0
0
-0.164832
0.0237889
-0.148218
-0.0985926
-0.0189314
0.0668832
0.0919831
-0.054006
0.0459176
0.0906351
0.143993
-0.0643328
0.0554895
0.152599
0.0836298
-0.0089422
0.141699
0.104771
-0.0628897
0.0971207
0.1086
0.00563745
-0.00454589
0.00867107
-0.010434
0.0344259
-0.00621432
-0.0352261
0.0136053
0.00639657
-0.0435236
0.0507336
-0.0429739
-0.04027
0.000688234
-0.0201097
-0.0460288
-0.0172378
0.0225017
-0.0479161
0.0159355
0.00408216
0.0618943
-0.00615654
0.0235606
0.0134327
-0.0121789
-0.0133169
-0.0626103
0.073161
-0.0307706
0.0465115
0.0153981
0.0031907
-0.0105384
-0.010682
0.0484145
0.0375493
-0.0172926
-0.029747
-0.0140266
-0.0436402
-0.0345503
0.0252685
-0.0261086
-0.0422413
-0.00913595
-0.0656733
-0.0184192
-0.0118539
-0.0499509
-0.00295267
0.0060023
0.0564953
-0.101557
-0.0414029
0.0182466
-0.0107341
0.00667247
0.00787752
-0.0310533
-0.0159526
0.000128163
-0.0125568
0.0143804
-0.022389
-0.0337109
-0.0301559
-0.00608601
-0.0217562
-0.0230232
-0.0191153
-0.0038771
0.00308089
-0.040406
0.00231143
-0.0106808
-0.00842537
0.0109384
0.0245114
-0.0232935
0.0146432
0.024194
-0.0222124
0.0232162
0.0313142
0.0202734
0.0458644
0.0551692
0.0332845
-0.141773
0.105349
-0.0445872
-0.0266004
-0.113889
0.138018
-0.195173
-0.0534597
0.0844098
0.0168484
0.0236772
0.00393765
0.0456549
0.0412016
-0.00271391
0.0566083
0.0591963
-0.00401006
0.0334606
0.073073
-0.00998334
0.021594
0.0482595
-0.0162039
0.0434555
0.0416018
-0.0105661
0.028609
0.0460165
0.0198255
0.0257688
0.0408993
-0.0319748
0.0436143
0.0763866
-0.0249908
0.0393643
0.063622
-0.00297201
0.065719
0.0388312
-0.000726243
0.0325558
0.0295425
0.00392415
0.0331165
0.0367661
0.00323798
0.0262044
0.0281457
-0.00440093
0.026493
0.00177324
-0.0142019
0.0185989
0.0239886
-0.00967536
0.0633972
-0.00583892
-0.0189154
0.06567
-0.0143038
0.0624137
0.0746985
0.0170534
-0.0242993
0.0635071
0.000764379
-0.0196386
0.0142784
0.0167263
0.0245034
-0.0123903
-0.0475235
-0.00598521
-0.0247347
-0.0634959
-0.0246233
-0.0995294
0.0329408
-0.0300361
0.00558865
-0.0323023
0.00583939
0.134014
0.118919
-0.0665598
0.0416159
-0.0414398
0.0307548
-0.0764072
-0.0288727
-0.00411285
-0.0265128
0.015824
0.0235876
-0.0280462
-0.0064487
0
0
0
0
0
0
-0.00341536
0.000308524
-0.0164497
0
0
0
0
0
0
0
0
0
0
0
0
0
0
0
0
0
0
0
0
0
0
0
0
-7.71548e-06
0
-9.27709e-06
0
-1.88346e-06
-7.43667e-06
5.12493e-06
0
-4.83619e-06
2.07986e-06
1.73894e-06
0
9.36741e-08
0
0
0
0
0
0
0
0
0
0
0
0
0
0
0
0
0
0.00806637
-0.0778054
-0.0788531
0.047973
-0.0670718
0.0894529
-0.0393497
0.00336725
0.0534635
-0.0228042
0.0184927
-0.0410515
-0.00244203
0.0318616
-0.0344053
0.00595123
0.0397355
0.0195586
0.00754901
0.033092
-0.0204042
0.00684443
0.0273444
-0.0150583
0.00554509
0.0146436
0.0218655
0.0118044
0.0165416
-0.021075
0.0267756
-0.0110522
0.00653677
0
0
0
0
0
0
0
0
0
0
0
0
0
0
0
0
0
0
0
0
0
0
0
0
0
0
0
0
0
0
0
0
0
0
0
0
0
0
0
0.000164924
0.000218898
0
0
0
-0.00624831
0
-0.0056935
0.0141372
-0.0288282
0.00869962
-0.110471
0.00167276
-0.0286975
-0.118078
-0.0499653
-0.0427128
0.0449495
-0.0613385
0.0362144
0.0717919
0.0875315
0.0590359
0.0354181
0.1289
-0.0757446
-0.0167168
0.106977
0.0829157
-0.0435033
0.065954
-0.0743587
0
0
0
9.23835e-07
0
0
0
0
0
0
0
0
0
0
0
0
0
0
0
0
0
0
0.00651109
0.0151882
0.00115013
-0.00717729
0.0174275
-0.0189555
-0.00298892
0.0161012
-0.0323948
-0.011669
0.00898093
-0.0232791
0.0112261
-0.0156435
-0.00730519
-0.023552
0.0195116
0.00882531
-0.0474082
-0.00908661
-0.00803814
-0.0209408
-0.00698318
-0.0514613
0.00117088
-0.00423881
0.0271372
-0.0521645
-0.0411043
0.0561872
-0.102649
-0.0347118
-0.0268091
-0.0728527
-0.0535841
0.0619849
-0.0262361
-0.0445526
-0.0186699
0.00387688
0.00482073
-0.0276831
-0.0351589
-0.00889846
0
0.0100712
0
0
-0.0734977
0.127085
0.00858955
-0.0779463
0.0148261
-0.0765345
-0.0983541
-0.0398605
0.0826974
-0.0727683
0.0987388
-0.0583672
0.074603
-0.107077
-0.04343
0.00634237
-0.121008
-0.079275
0.0424977
-0.0373997
-0.00521793
-0.00913626
-0.0784407
-0.0538782
-0.0196389
0.0529102
0.0197292
0.103423
-0.0300712
0.00922491
-0.0121789
0.00730241
-0.0124409
-0.0264441
-0.022481
-0.00769022
-0.0416185
-0.00304694
-0.00289216
0.00159884
-0.00039733
0.0278159
-0.00271915
-0.00322515
0.0156429
0.0132312
0.0114072
0.0173339
0.0834227
0.0785141
0.0533209
-0.0629704
-0.267475
0.16399
-0.230598
-0.0483133
-0.031126
-0.00831956
-0.0247356
0.0159658
-0.0337936
0.0439428
-0.0433708
0.0139199
0.037266
0.0281131
-0.000369266
0.0236768
0.00877969
-0.0113439
0.0207083
0.034969
0.0174828
0.0113246
0.0478429
-0.0174311
0.0142511
0.0347131
0.034483
0.0383868
0.0469743
-0.0412729
0.0165414
0.0367758
0.0451749
0.0120301
0.0640646
0.030112
0.0226337
0.0118348
-0.000261528
0.0379823
0.00979936
0.00527921
0.00807031
-0.00538258
0.0254665
0.00808352
0.0152699
0.0239408
0.00961264
0.0204463
0.00131621
0.0125102
0.0481471
-0.0366593
0.0182705
0.0402312
-0.0207582
0.0406881
0.0129294
-0.062919
0.0511885
0.0178604
-0.0693522
0.112756
0.0195656
-0.0678422
0.114046
0.0560076
0.0640381
0.0992781
0.0133514
0.0158595
-0.0632011
0.053185
-0.0654117
0.0916989
-0.031823
0.0346895
0.0633748
0.0298522
0.0990767
0.0329343
-0.0525652
0.0298873
-0.041195
0.00173535
0.000885181
-0.0360237
0.0356987
-0.0261667
-0.00636603
-0.0075179
-0.0321657
0.049847
-0.0266332
0.0139848
0.0116294
0.0334945
-0.0345448
-0.0395348
-0.000766713
0.00324431
-0.0475553
0.0180151
-0.0429567
-0.0176898
-0.0180441
-0.041814
0.00611839
-0.0506288
0.0263268
-0.0501418
-0.0473001
-0.0422564
0.0126432
0.0137172
-0.019023
0.0220717
0.011459
-0.0163987
0.0490998
-0.00137165
0.0117674
-0.0179799
0.0174851
0.0665671
-0.00418687
-0.0189225
-0.134052
0.0454776
-0.0560992
-0.065334
-0.0670477
-0.0171923
-0.0321198
-0.0296727
0.0449218
-0.0464995
-0.0413382
0.0894416
-0.0361842
0.00393071
0.0515326
0.0174075
-0.111114
0.0608695
-0.115659
-0.0548681
0.0252787
-0.0779986
-0.0178497
0.0814956
0
-9.51346e-05
1.43878e-06
-0.00686056
0
0
0
0
0
0
0
0
0
0
0
0
4.05583e-05
0.000104745
0
0
0
-9.3925e-05
0
0
0
0
0
0
0
0
0
-2.76886e-05
-0.000144239
0
0
0
0
0
0
0
0
0
0
0
0
-3.55058e-07
0
0
0
0
0
5.69714e-05
0.00060819
0
0
0
0.000439998
0
0
0
-0.000140449
0
-0.000185396
-9.02816e-05
1.28259e-05
-0.000160631
-0.00117295
-0.000189768
-0.000101581
-0.000153787
-0.000139111
-0.000368312
-0.000136825
-6.37978e-05
-9.16695e-05
0
-9.37669e-05
-0.000141303
0
-6.45655e-06
0
0
0
0
0
0
0
0
0
0
0
0
0
0
0
0
-0.00012094
0
5.57599e-05
0
-6.53554e-05
0
0.0192012
-0.0346809
0.0580032
0.031033
-0.0253953
-0.0495737
-0.0103826
0.0194729
-0.0386738
0.000423583
0.0306161
0.0283019
0.0134497
0.043451
0.0165044
0.00948023
0.0312527
-0.0203559
0.00373212
0.016068
-0.0298789
-0.00613897
-0.0232995
0.00322462
0.00107542
0.000614737
0.0128213
-0.0227287
-0.00105079
0.0144656
-0.0211952
-0.0215289
-0.000330454
0
0
0
0.000123386
4.2343e-05
7.49262e-05
0
0
0
0
0
0
0.000125517
0
0
0
0
0
0
0
0
0
0
0
0
0
0
0
0
0
-5.39832e-05
0
0
6.27746e-05
6.95056e-05
4.26717e-05
0
-5.95303e-05
0
-0.0427197
0
0.144685
-0.0210022
0.0383446
-0.0836827
-0.0959305
-0.00304188
0.0220054
-0.102031
-0.0630291
0.01704
0.0175288
-0.0635814
0.00659155
0.0587393
0.0194924
-0.0209743
0.0186337
0.0740869
-0.0363846
-0.0123198
0.0424126
0.0334707
-0.0133009
0.0177036
0.0197708
4.16075e-05
0
0
2.97123e-05
0
1.00727e-05
0
-9.40868e-07
0
-3.01414e-08
0
3.07269e-06
-1.97761e-06
0
0
0
0
0
0
-5.05883e-05
0
0
0
0
0
0
0
0
0
0
0
0
0
0
0
0.00398384
0.0498207
-0.0172567
-0.0350852
0.0089713
-0.00279046
0.00974428
-0.0166095
-0.0220772
-0.000496338
-0.00142377
-0.0216118
-0.00480488
-0.00767802
-0.000265082
-0.0346011
-0.00480111
-0.00756498
-0.00526663
-0.0210829
-0.00135474
-0.060158
-0.0498674
-0.0141108
0.0259382
-0.0173747
0.0203182
-0.0529963
0.00734811
0.0386786
-0.0306182
-0.0336955
-0.00208294
-0.00978655
0
0
-0.00545489
0
0
-0.00640106
-0.0166242
0
0
0
0
0
0
0
-2.57085e-05
0
-2.33253e-05
-0.0648039
-0.0800878
-0.0106927
-0.0759625
-0.116079
-0.0165915
-0.0874728
-0.109636
-0.0453888
-0.0866116
-0.0449883
-0.0645492
-0.0462529
-0.0494503
0.0230835
-0.0640148
-0.0799844
-0.0198884
-0.0289675
-0.0293719
-0.00570423
-0.0357784
-0.0281687
0.00572982
-0.044567
-0.0268422
0.000982951
-0.042456
-0.04845
0.00433393
-0.0365495
-0.0479442
-0.00644619
-0.0339036
-0.0461973
-0.00458135
-0.0296569
-0.0330242
0.0214551
-0.00765614
-0.0097945
-0.0480748
-0.0305679
-0.00772453
-0.137554
-0.0843161
-0.0348169
-0.105458
-0.0774869
0.0317472
-0.0465728
-0.0479227
-0.00845547
-0.0918336
-0.022285
-0.0427254
-0.0312507
-0.0887405
-0.0652805
0.00188096
0
0.0682403
-0.12471
-0.0185332
-0.00557472
0.071165
0.052004
-0.0262174
0.0123842
0.0124494
0.0264234
-0.023735
-0.00161849
-0.0201835
-0.0175126
-0.0171081
0.00498935
-0.0142438
-0.00374193
0.0225212
-0.214285
-0.0547291
0
-0.0214241
0
0
-0.0146612
0
-0.0953606
-0.0279171
-0.0013238
-0.00188243
-0.00424953
0.00415898
0.00319678
0.00513261
-0.00544372
-0.0352983
0.00507671
-0.00102575
0.024606
0.017384
0.0339497
-0.0284239
0.0365486
0.0825375
0.0221556
0.0142377
0.0423953
-0.0311543
-0.000240337
-0.00458256
0.0596277
0.0139406
0.0805898
-0.0601134
0.014856
0.0645095
0.0269634
0.0417505
0.0472143
0.0112425
0.0511336
0.0155193
-0.00979479
0.038802
0.0351095
-0.00929698
0.0511401
0.025905
0.0128298
0.0270005
0.0126266
0.00652046
0.0202929
0.0561164
-0.0445858
0.0209275
0.0531177
0.0277783
0.0816912
0.0384951
-0.055989
0.0791401
0.0267079
0.0730847
0.0825959
-0.00456375
-0.0601335
0.107001
-0.00289039
-0.0544327
0.0578988
0.0418742
0.071526
0.0986319
0.037775
0.0605081
0.0412682
0.00453267
-0.0496532
0.0350638
0.00264846
-0.039392
0.0407541
0.00700467
-0.0325469
0.0351016
-0.00381149
-0.0464972
0.0157298
-0.0173533
-0.0443261
-0.00452676
-0.0364636
-0.0440826
0.0101481
-0.00659626
0.0157806
-0.00177421
-0.0441245
-0.0302044
0.0148998
-0.00972519
0.0169781
-0.00291674
0.0136279
-0.00570265
0.0109947
0.00699931
-0.00131031
-0.0144079
0.00501997
0.0138352
0.0060973
0.021023
-0.0595598
-0.0347297
0.0320965
0.0240026
0.0234587
-0.0843408
0.0265658
-0.0183228
-0.014909
-0.0408678
0.0850866
0.0143458
-0.00898777
-0.0177053
-0.0122302
-0.0729454
0
-0.0256297
0
0.00682158
-0.0208335
0.0120454
-0.110129
0
0
-0.0347243
0
-0.0764299
0.00496144
0.0491306
0.00376841
0.0134412
0.00975744
0.0167689
-0.00293812
-0.00283343
0.00474096
0
0
0
0
0
0
7.44119e-05
6.18218e-05
8.30267e-05
0
0
0
-4.22569e-05
0
0.000130119
0
-5.73956e-05
0
0
0
0
0
0
0
0
-8.75156e-06
-6.22912e-05
0
0
0
0
-0.000188077
0
0
0
0
0
0
0
0
-1.33335e-06
-3.17857e-06
0
0
0
0
-6.42933e-05
-2.69255e-05
0
0
0
-9.25519e-05
0
0
0
0
0
-8.49124e-05
0
0
-0.000177426
0
0
0
0
0
0
0
0
-0.000149256
0
8.4286e-05
-5.93547e-05
0
6.03166e-06
0
-5.32295e-05
0
0
0
0
0
0
0
0
1.84704e-06
0
0
0
0
0.0143955
-0.00151423
0.0275018
-0.00383899
0.00439465
-0.00400286
0.0130899
0.0202757
-0.0133558
0.017738
0.027019
-0.0014567
0.0161603
0.0282573
-0.00803033
0.011359
0.0119146
0.0195396
0.00124325
0.00739057
0.0223261
-0.0390611
-0.0597161
0.00223709
0.00364388
-0.0164447
-0.0174002
0.016048
-0.00485325
0.0128797
-0.0115187
-0.0158702
-0.00575324
-6.7594e-05
0
-9.93807e-06
0
-3.56168e-05
-1.49917e-05
0
0
0
0
0
0
0
0
0
0
0
0
0
0
0
0
0
0
0
0
0
0
0
0
-9.53898e-05
0
0
0
0
0
0
0
0
-0.0280588
0.0522608
0
-0.035206
0.0744728
0.00390363
-0.0818206
-0.0253443
0.01781
-0.0767397
-0.0671325
0.00061201
0.0052378
-0.0647971
0.0133954
0.0475822
-0.024369
-0.0125126
0.00551485
0.0213727
-0.00301035
-0.00421154
0.00409358
-0.00671256
0.00637859
-0.00634496
0.000787586
0
0
0
0
0
0
0
0
0
0
2.19538e-06
0
0
0
0
0
0
0
0
-0.00572755
0
0
0
-7.5306e-05
0
0
0
0.000516734
0
-0.000515049
0.0159248
-0.00100431
-0.00289062
0
0
0
0
0
0
0
0
0
0
-0.00431109
0
-0.0043736
-0.010857
-0.0246133
-0.0398131
-0.0217472
-9.80002e-05
-0.0191466
-0.028378
-0.0354231
-0.0113134
0.0393643
-0.00437349
-0.0564522
-0.0389509
-0.0241852
0.0139236
-0.023588
-0.0207085
0
0
0
0
-0.00160335
0.000336939
-0.0004197
-0.110401
-0.0019938
0.0432856
0.0119806
0.012856
-0.118025
0.00716992
-0.0312802
-0.0127764
0
-2.42667e-06
0
-0.000464802
0
0
0
-5.82641e-05
2.02561e-05
0
0
0
0
0
0
0
0
0
0.0076361
-0.00895591
0.00360558
-0.003662
-0.00495171
-0.0110832
0.00126859
0.0190206
0.0233839
0.012986
-0.0311923
0.0130545
-0.0140341
-0.0117148
0.0224024
-0.00744783
0.00203937
0.00331872
0.0100455
6.067e-05
0.019036
0.0207004
-0.0112697
-0.00537297
0.00724876
0.00694959
0.02982
-0.026419
0.00894539
-0.00315188
0.0219162
-0.0161285
0.0010107
0.0303402
0.00863048
-0.0340759
-0.00707341
-0.014469
-0.0148139
-0.0133569
-0.00688272
0.00910342
-0.00686263
0.00442044
0.00824088
-0.0726404
-0.0749236
0.00140711
-0.0744868
-0.11367
-0.032277
-0.0817721
-0.11809
0.0376021
-0.101335
-0.0573979
-0.0487985
-0.0402982
-0.0505877
0.0291772
-0.0678226
-0.0706197
0.00351298
-0.0318691
-0.0285247
0.0222353
-0.0166107
-0.0203856
-0.0141389
-0.0261707
-0.0390466
-0.0202296
-0.0354641
-0.0420314
-0.020908
-0.0492557
-0.0525405
-0.00282418
-0.0528684
-0.0523774
0.00428701
-0.034109
-0.0157951
-0.00101106
-0.04735
-0.0400508
0.00653125
-0.053987
-0.0751762
-0.0335421
-0.0764024
0.000441737
-0.090504
0.00962432
-0.101051
-0.05402
0.00477648
0.0331781
-0.0383829
0.0558875
-0.00238285
0.0184993
0.0226746
-0.011579
0.00927219
-0.0108863
-0.00252893
-0.0249415
-0.0151738
0.00285698
-0.0308527
-0.0296242
0.0115501
-0.0135475
-0.0144404
0.0156154
-0.0100312
0.00896844
0.0163558
-0.00640965
0.0118662
0.0193628
-0.0108885
0.00913212
0.0141842
0.0147187
-0.0171385
-0.00326174
0.0203457
-0.0481428
0.000589867
-0.00196978
-0.1422
-0.00835672
0.09861
-0.00431543
0.0201683
-0.0125991
0.0649212
0.00338293
-0.0372267
-0.0292117
-0.0547781
-0.0231503
0.00772929
0.0195055
-3.18656e-05
0
0.00137374
0
0
0
0
0
0
0
0.0532307
0
0.00524144
0.0143504
0.00555465
0.0370066
-0.0326169
0.00562845
0.0456247
0.00296928
0.031945
-0.00301653
0.0261968
0.00501055
-0.00452608
0.00557625
0.0339716
-0.0130528
-0.0055542
0.0512015
0.0285485
0.0470359
0.0603046
0.036141
0.0564767
0.0934523
-0.04428
0.0405728
0.0558575
-0.036017
0.0374062
0.0372665
-0.0284817
0.0586533
0.014275
0.0153291
0.0735688
0.0189401
0.00396838
0.0201655
0.0412782
-0.014156
0.029084
0.00459026
0.00216113
0.0504357
0.0220694
0.0028355
0.0315674
0.0842217
-0.0330388
0.0168563
0.0717562
0.0262178
0.0724189
0.0535592
0.0737719
0.0489271
-0.0298346
-0.0891674
0.0848324
-0.0176674
-0.0542408
0.0564278
0.043229
0.0808193
0.0905092
0.0264498
0.064832
0.0540966
0.00959475
-0.0551584
0.045348
0.00504342
-0.0423195
0.03612
0.00886102
-0.0397892
0.0230643
-0.00591173
0.0483592
0.0203492
-0.0292978
-0.047066
0.00857216
-0.0243949
0.038237
0.0207176
-0.00242178
0.0103521
0.00155048
-0.0228443
-0.0279626
0.0284262
0.0665263
-0.0170557
0.0125099
-0.019767
0.0122974
0.00273805
0.0257875
-0.0393265
-0.0719355
-0.102254
0.0581671
-0.0664331
0.0217716
-0.0220259
0.0546629
0
0.0202774
-0.0767859
-0.066674
0.01249
-0.148934
-0.107068
0
0
0
0
-0.000987504
0
-0.000516651
-0.0233531
-0.139261
0
0
-7.71741e-05
0
0.0423325
0
-0.0843048
-0.0291254
0.053301
0
-0.0413427
0
0
0
0
0
0
8.46267e-05
0.00011361
-3.52722e-05
0.000103898
0
6.76379e-05
1.26022e-05
4.30512e-05
2.27199e-05
0
0
0
0
0
0
0
0
0
0
0
0
-9.01739e-05
0
-0.000243865
0
0
0
0
0
0
0
0
0
0
0.00327925
0.00207516
0
0
0
0
0
0
-3.74337e-05
0
0
0
0
0
0
0
0
0
0
0
0
-3.7325e-05
-1.21869e-05
0
0
0
0
0
0
0
0
0
0
0
0
0
0
0
0
0
0
0
0
0
0
0
0
0
0
0
0
0
0
0
0
0
0.000551076
0
-0.000857847
0
0
0
0.000177082
0
0.00264587
0.0210922
0.0162573
-0.0126023
0.00558886
0.00577766
-0.02707
0.00258441
-0.0146007
-0.00268084
0.0174363
0.00208629
-0.0148066
0.0140436
-0.00909518
0.0342036
0.0103766
0.0101868
0.0269223
0.0168859
-0.0171265
0.0227101
0.00873243
0.00835958
0.0155775
0.009608
0.00615448
-0.00341206
0.0139062
-0.015741
-0.0292427
-0.0175983
-0.00586318
-0.0062594
-0.0147794
0.0214224
0.0106897
0.00400878
7.74689e-06
0
0
0
0
0
0
0
0
0
0
0
0
0
0
0
0
0
0
0
0
-0.00421538
0.029603
0.0182627
0
0
0
0
0
0
0
0
0
0
0
0
0
0
0
0
0
-0.0454959
0.00510503
0.00488221
-0.0804967
-0.0203541
-0.00671335
-0.00435616
0.00944562
-0.0209226
-0.0118644
-0.0556487
-0.0711484
-0.0110734
0.00136837
-0.0638201
-0.0227517
0.0270487
-0.0369491
0.0314637
-0.0051334
-0.0155072
-0.00859868
0.00921387
-0.0134914
0
0
1.88578e-05
-3.00424e-06
0
0
0
0
0
0
0
0
0
0
0
0
0
0
0
0
0
0
0
0
0
0
0
0
5.75533e-06
-0.000106199
0
0
0
0
0.000131273
5.06649e-05
0.00064815
0
0
0
0
0
0
4.56771e-05
-1.74222e-05
0
0
0
0
0
0
0.000109671
-8.83332e-05
3.2942e-05
0.0735043
0.00116128
-0.00270936
-0.00521662
-0.0281206
0.00719801
0.00349553
0.00181687
-0.00270713
0.0072281
-0.0182346
-0.0614806
0.0209012
0
0
0
0.0280545
0.0404444
-0.0193971
0
0
0
-3.79742e-05
0
0
0
0
0
-0.0587997
0
0
-0.0318876
0
-0.00162855
-0.069368
-0.0168487
0.0364254
0
0
0
0
0
0
0
0
0
0
0
0
0
0
0
0
0
0
0.00095704
-0.0114082
-0.0273498
-0.00622655
-0.00863785
-0.00203153
0.00745757
0.0159801
-0.0187576
0.0160841
0.026764
-0.0517212
-0.010772
0.00314337
-0.014547
0.00532038
0.00784591
0.0207915
0.0165917
0.00918123
-0.00851019
0.0154746
0.00838462
0.030717
0.00088278
-0.0268065
0.0111206
0.000298224
-0.0151178
-0.0179851
-0.00863313
-0.0103247
0.00763553
-0.0813212
-0.0677393
0.00633384
-0.0963285
-0.120941
0.039488
-0.088644
-0.100889
-0.00803991
-0.105472
-0.076698
0.0323817
-0.0479669
-0.0659467
0.0327693
-0.0091094
-0.0730655
-0.0231877
-0.0199907
-0.0376159
-0.00534575
0.00662823
-0.0265107
-0.0354078
0.0235369
-0.00218601
-0.0173101
-0.0176582
-0.0138034
-0.031108
-0.0245066
-0.0315373
-0.0375497
-0.0248192
-0.0555689
-0.0461068
0.0175779
-0.0526664
-0.0547063
0.00217239
-0.0317476
-0.0120162
0.00416534
-0.0544518
-0.0386632
0.00840429
-0.0259713
-0.0301738
0.036384
-0.0658049
-0.0775691
0.0344848
-0.030103
-0.115245
-0.0207809
-0.0822322
-0.0827147
-0.0264579
-0.0962536
-0.03332
-0.0962403
0.0592106
-0.00468369
-0.0451655
-0.0232692
0.00756645
-0.0328056
0.00575104
-0.0311145
-0.0257306
-0.0101286
-0.0250287
0.0113553
-0.0211217
-0.0162447
-0.00832122
0.0177046
-0.00838481
0.0152499
-0.0269194
-0.01757
0.0251627
0.0241388
-0.0250989
0.0055541
-0.0229777
-0.0115815
-0.00629364
0.0180089
-0.0125766
0.00827514
-0.0134363
-0.0229964
0.0081126
-0.0147934
0.0200461
-0.0119934
0.0291987
0.0178614
0.0410672
-0.00136677
-0.000407768
-3.47005e-05
-0.000120324
-0.00447546
-0.0010195
0.0180913
0.00552767
-0.00901855
-0.0400542
-0.0404934
0
0.0100643
0
0
0
0
0
-0.000105591
0
4.0226e-05
0
-1.88973e-05
-2.33818e-05
0
0
0
0.00530122
3.56666e-05
2.95741e-05
0
-0.134962
0.0534948
-0.0148668
-0.21293
-0.0167417
0.00631262
0.00501162
-0.0223711
0.0367182
0.0326739
-0.0192905
0.0288785
-0.0345111
-0.0479568
0.0236836
0.0648757
-0.0175197
-0.00546463
0.0522728
0.0105613
0.00147949
0.0355029
-0.0203097
0.0326978
0.0527434
0.0414747
0.0361176
0.0878349
0.0225577
0.0516467
0.0318346
-0.0085311
0.0579456
0.0353806
-0.0124828
0.0267397
0.0226249
0.010821
0.0288412
0.0212882
0.00939504
0.0754484
0.0359178
-0.0169689
0.0672182
0.0900745
-0.0525219
0.0694462
0.0867303
-0.0477631
0.0732744
0.00467745
-0.0622804
0.0661838
0.0170117
-0.0701506
0.0620943
-0.00914987
0.0864153
0.0495057
-0.0698338
0.0762631
0.00926865
-0.0637186
0.053508
0.0138137
-0.047756
0.0361387
0.0137668
0.0451223
0.0208596
-0.0026714
-0.042399
0.0114857
-0.0315132
0.0524749
0.0158601
-0.0311278
-0.0379308
0.0171393
-0.00303976
-0.0176373
0.0101962
-0.00733255
-0.0138857
0.0433554
0.0673122
-0.0325796
-0.016189
-0.0859574
0.0394061
-0.0359565
0.0624913
-0.0322224
0
0
0
-0.00764471
0
0
-5.15825e-05
0
1.29087e-05
0.00573701
2.35235e-05
-0.000257491
0
0
0
0
0
0
0
0
0
-0.000311273
0
0
0
0
0
0
-1.0103e-05
0
0
0
0
0
0
0
0
0
0
0
0
6.14177e-05
1.49847e-06
-7.23224e-06
0
3.90699e-05
0
0
0
0
0
0
0
0
0
0
0
0
0
0
0
0
0
0.00195304
-0.00157459
-0.000106858
0
0
0
0
0
0
0
0
0.00172697
0
-0.00167609
0
-0.00531
0
0
3.35868e-05
-5.92609e-05
7.50917e-06
0
-3.48296e-05
0
0
0
0
0
0
0
0
0
-5.43718e-05
1.71301e-05
-9.19133e-05
0
7.00106e-06
0
-0.000240236
-3.12334e-05
-2.59715e-05
0
-0.000214398
0
0
0
0
1.40995e-05
0
-7.75589e-05
0
-3.48903e-05
-3.82702e-05
0
0
0
-6.05699e-05
-8.64104e-05
-1.35109e-06
8.03946e-05
1.99506e-05
0
-2.01803e-05
0
0
0
0
0
-6.30104e-05
0
0
0
0
0
-9.60629e-06
0
1.05052e-05
0
0
0
0.00141347
0
0
0
0
0
0
0
0
0.0306029
0.00581552
-0.0233374
-0.00934817
0.0398588
0.0331584
-0.0189638
0.0186609
0.0163923
0.0216191
-0.00799396
-0.0238502
0.0125873
0.00335615
-0.00354922
0.0257534
-0.022527
-0.015622
0.02189
0.0269784
0.027122
0.00181995
0.0308685
0.0291013
0.00753634
-0.0416527
0.0273903
0.00867781
-0.0277213
0.0109945
0.00926524
0.0289055
-0.00480997
0.0209276
0.039361
0.0237003
0.0127237
0.00706276
0.00642967
-0.00231604
0
0
0
0
0
0
0
0
0
0
0
0.0105408
-0.0146797
-0.0369588
0.0168737
0
0
0
0
0
0
0
-0.0108463
0
0
0
0
-1.55822e-06
0
3.05387e-06
0
1.49217e-06
0
0
0
0
0
0
-0.00228026
-0.000957808
0.0216519
0.0228462
-0.0352548
0.0223868
-0.00147572
-0.0586144
-0.0426914
-0.00664188
-0.00975527
0.0216327
0.0180317
-0.027537
-0.0630041
0.0218331
0.00529671
-0.0587291
-0.0341808
0.00286169
-0.0386932
0.0220826
0.0193548
-0.0238026
1.13159e-06
0
0
4.91277e-06
7.00144e-05
-1.58196e-05
9.11484e-05
8.25838e-05
-2.11933e-05
2.30861e-05
6.32493e-07
0.000105502
-1.3258e-05
0
1.39178e-05
0
0
7.89981e-05
-7.04092e-05
0
0
0
0.000185339
0.000114369
0.000361098
0.000207935
0.00012808
3.05282e-05
0.000253592
0.000184715
0
-0.000140095
8.13516e-05
1.21472e-05
0
0
2.11638e-05
-3.31994e-05
0
0
0
0
0
0
0
0
0
0
0
2.83026e-05
0
4.24688e-05
0
0
0
0
0
0
0
0
0
0
0
0
0
0
0.0351926
-0.00287567
-0.00823514
-0.0120468
-0.0810719
-0.0429192
0.0430864
-0.0215404
-0.0538271
-0.0162242
-0.0109421
0.00339359
0
0
0
0
-3.60473e-05
-2.2612e-05
1.77107e-05
-0.0652083
-0.049873
0
0
-2.13196e-05
0
0
0
0
0
0
0
0
0
0
0.0188545
0
-0.0174765
-0.0283679
-0.115145
0.00235442
0
0
0
-7.62968e-05
0
8.31869e-05
0
0
0
0
0
0
0
0
0
-7.69871e-05
0
5.20767e-05
-0.003909
-0.00418623
0.031254
0.00799255
-0.0542338
0.00151947
-0.039278
0.00874042
-0.00435884
-0.0266
0.0137909
0.0479487
0.0227207
0.0300104
0.0441531
0.0364411
0.0263817
0.0166193
0.00282452
0.00220215
-0.00768992
0.00700798
0.0139921
-0.00595171
0.00339023
0.0219868
0.0246079
0.0209075
0.0173006
0.0210439
0.0222371
-0.0205788
0.000411134
-0.0233782
0.0243132
0.0164793
-0.0218754
0.029747
0.00596875
-0.0126778
-0.0214096
-0.0693266
-0.0519553
-0.010334
-0.0933308
-0.108044
0.0134254
-0.0630245
-0.059802
-0.0331704
-0.101866
-0.0739923
0.013612
-0.0396283
-0.0436364
0.00815894
-0.0606314
-0.0314709
-0.00508313
-0.0177569
-0.0142548
0.00272664
-0.0242206
-0.0312507
-0.00822911
-0.00958691
-0.0102407
-0.00442477
-0.0129539
-0.00690703
0.0065403
-0.0395792
-0.0282059
-0.00366315
-0.0526724
-0.0566172
-0.0196978
-0.0399587
-0.0414925
0.0210834
-0.034537
-0.0161844
0.00684697
-0.0137349
-0.0153358
0.022601
-0.115314
-0.0251251
-0.048675
-0.0723455
-0.0857576
0.0189472
-0.0959022
-0.0778777
0.0233151
-0.0662739
-0.10046
0.016576
-0.0369561
-0.0663414
0.0269071
-0.00476839
-0.0739857
0.0187628
-0.0387447
0.0186663
-0.0536904
-0.0233959
-0.0171936
0.0132463
-0.0233049
-0.0172333
-0.0111721
-0.00217658
-0.012504
0.0214739
0.0335294
-0.00426325
0.0121576
-0.0289718
-0.00941057
0.0201439
0.03144
-0.0324215
0.00887013
0.0255858
-0.0325529
-0.00991091
0.0284336
-0.0153475
-0.00284495
-0.0250386
-0.00896058
0.0119517
-0.0202102