/*--------------------------------*- C++ -*----------------------------------*\
  =========                 |
  \\      /  F ield         | OpenFOAM: The Open Source CFD Toolbox
   \\    /   O peration     | Website:  https://openfoam.org
    \\  /    A nd           | Version:  8
     \\/     M anipulation  |
\*---------------------------------------------------------------------------*/
FoamFile
{
    version     2.0;
    format      ascii;
    class       volScalarField;
    location    "21660";
    object      H;
}
// * * * * * * * * * * * * * * * * * * * * * * * * * * * * * * * * * * * * * //

dimensions      [0 1 0 0 0 0 0];

internalField   nonuniform List<scalar> 
526318
(
1.76942
1.74202
1.81523
1.73009
1.80649
1.73577
1.78345
1.67835
1.74403
1.62468
1.59969
1.73753
1.67111
1.72661
1.67953
1.71156
1.66547
1.86725
1.78916
1.82353
1.83138
1.77931
1.53595
1.77709
1.66366
1.52684
1.79471
1.79641
1.79133
1.81665
1.82881
1.89529
1.87208
1.75088
1.75566
1.68632
1.70742
1.8039
1.74487
1.70255
1.75939
1.70631
1.38901
1.43604
1.34163
1.39649
1.36275
1.50873
1.66695
1.57811
1.65853
1.65034
1.61133
1.57658
1.06647
1.31124
1.30885
1.1088
1.82932
1.84158
1.86227
1.82459
1.75747
1.88441
1.88116
1.82634
1.82309
1.8246
1.72283
1.7114
1.83301
1.61748
1.66599
1.56407
1.51781
1.51528
1.60581
1.61244
1.51341
1.5592
1.63264
1.63141
1.58882
1.55252
1.5755
1.6445
1.65256
1.62621
1.57232
1.63727
1.54489
1.49497
1.49539
1.42626
1.41923
1.42044
1.42113
1.42291
1.41853
1.41422
0.854385
0.797469
0.880714
0.91782
0.981157
0.755961
1.32789
1.13602
1.46119
1.41528
1.45555
1.57966
1.79201
1.69209
1.80357
1.81191
1.88117
1.84192
1.89127
1.41729
1.41209
1.41746
1.41634
1.37337
1.41956
1.32469
1.37372
1.27964
1.32674
1.28002
1.27806
1.26764
1.24379
1.23213
1.26268
1.2006
1.25533
1.20778
1.22699
1.17007
1.17634
1.19667
1.22521
1.21308
1.16819
1.17127
1.18395
1.17169
1.16715
1.17627
1.19072
1.18131
1.19157
1.1767
1.18651
1.14172
1.17527
1.1937
1.13846
1.10816
1.17276
1.13332
1.19805
1.6902
1.78202
1.72082
1.71161
1.51082
1.57799
1.50836
1.5106
1.51014
1.5155
1.53037
1.51229
1.44693
1.41124
1.38164
1.32025
1.37954
1.42457
1.42163
1.42044
1.31077
1.36624
1.2484
1.26082
1.2687
1.26208
1.26241
1.26214
1.25214
1.25156
1.24836
1.23804
1.21987
1.24395
1.23641
1.21031
1.18928
1.21496
1.19066
1.18954
1.2121
1.20681
1.19876
1.16953
1.18283
1.22085
1.21178
1.65966
1.67967
1.70967
1.65894
1.67657
1.65463
1.65532
1.56041
1.56647
1.32906
1.30884
1.30405
1.42598
1.5902
1.43166
1.47957
1.47483
1.43024
1.39492
0.903211
0.713914
1.05423
1.24447
0.50936
0.348943
0.640459
0.740822
0.708515
0.711525
1.88328
1.85425
1.90584
1.89501
1.87314
1.86774
1.77081
1.85895
1.69631
1.64349
1.64508
1.64777
1.64603
1.64782
1.63192
1.63268
1.54944
1.60794
1.43601
1.48611
1.40892
1.43142
0.232114
0.153105
0.617928
0.387563
0.895789
0.832058
0.891151
1.0455
1.42599
1.23801
1.46374
1.47726
1.58741
1.69178
1.81106
1.81097
1.86822
1.82679
1.89096
1.92655
1.39729
1.39352
1.35693
1.32517
1.2235
1.26088
1.18552
1.1958
1.18646
1.17997
1.1688
1.17419
1.10183
1.12883
1.15873
1.19568
1.25278
1.21813
1.1805
1.17722
1.11421
1.10464
1.15492
1.20978
1.13299
1.16883
1.17361
1.13634
1.13206
1.11
1.10356
1.06401
1.06048
1.06607
1.05299
1.17601
1.21164
1.17721
1.21829
1.57502
1.52836
1.43335
1.52685
1.44612
1.49644
1.50499
1.50255
1.50782
1.50836
1.41754
1.3364
1.26417
1.24436
1.32164
1.26074
1.25017
1.3598
1.24759
1.3026
1.24069
1.24185
1.25186
1.24238
1.25678
1.24905
1.24621
1.25247
1.25129
1.2454
1.25919
1.25014
1.26592
1.2612
1.26548
1.24321
1.25749
1.24058
1.21555
1.21402
1.23993
1.27073
1.26144
1.24206
1.22232
1.24611
1.29102
1.28771
1.30152
1.25968
1.29413
1.31338
1.35133
1.30251
1.30599
1.33301
1.36458
1.4708
1.57805
1.48979
1.54823
1.61473
1.66154
1.58083
1.43972
1.55418
1.43856
1.46536
1.2009
1.14138
1.17691
1.16046
1.28305
1.39692
1.32887
1.4082
1.40034
1.41341
1.4058
0.675533
0.812662
0.964233
0.821527
1.04656
0.949172
0.0761057
0.229083
0.168198
0.0895097
0.000491341
0.234263
0.461513
0.703408
0.589291
0.610266
1.91863
1.8925
1.92432
1.92133
1.90224
1.87412
1.79764
1.70976
1.64275
1.65617
1.63054
1.639
1.61662
1.6058
1.58916
1.59719
1.54276
1.58446
1.5079
1.45189
1.3967
1.35359
0.000948433
0.00107071
0.00107071
0.000663073
0.000651403
0.000731205
0.000572061
0.00107071
0.0010707
0.0010707
0.0705265
0.000481955
0.000524906
0.000489037
0.0334736
1.05192e-05
0.125844
0.2342
0.236834
0.401944
0.862108
0.643124
0.956915
0.934123
1.1264
0.976576
1.34285
1.49722
1.5146
1.61129
1.81656
1.71713
1.83373
1.84408
1.85136
1.8619
1.91928
1.94112
1.31522
1.31055
1.26749
1.29284
1.23149
1.19573
1.1858
1.18646
1.18088
1.186
1.13598
1.13193
1.08265
1.09123
1.14983
1.11985
1.09691
1.14219
1.13557
1.15336
1.06405
1.05366
1.07581
1.08553
1.09296
1.04181
1.05184
1.0434
1.05521
1.03565
1.03231
1.33192
1.3093
1.3095
1.30778
1.33031
1.43659
1.39288
1.37212
1.25577
1.29645
1.28493
1.28705
1.18538
1.12472
1.30568
1.42197
1.30947
1.31195
1.28998
1.37639
1.34938
1.42678
1.46087
1.38212
1.36267
1.40205
1.27711
1.24534
1.24548
1.24683
1.16403
1.21318
1.13962
1.08876
1.07644
1.19422
1.19143
1.24267
1.24229
1.24289
1.24401
1.23726
1.24785
1.24003
1.2547
1.24337
1.26525
1.25648
1.26431
1.26547
1.29011
1.27515
1.29748
1.30608
1.25623
1.23217
1.30101
1.28119
1.27532
1.28683
1.27063
1.2634
1.31245
1.29183
1.39113
1.40093
1.35223
1.39412
1.39977
1.36998
1.46239
1.43042
1.50008
1.52275
1.54359
1.46394
1.45914
1.47391
1.40057
1.37455
1.34737
1.44547
1.30814
1.28066
1.34114
1.3618
1.04519
1.08879
1.17424
1.29919
1.32646
1.36393
1.26732
1.22973
1.19201
1.13904
0.501248
0.587509
0.848529
0.67138
0.980884
1.03221
0.0120448
0.00088041
0.00204389
0.00195679
0.133813
0.000153951
0.519545
0.293851
0.456642
0.440837
0.000766556
0.000551352
0.000138864
0.000388285
0.000449225
0.00101
0.000142314
0.000999779
0.000874823
0.000393403
0.00112668
0.000803882
0.00109835
0.000990908
0.00112656
0.00112656
0.00095233
0.000999494
0.0009727
0.000201819
9.59135e-05
0.000989075
0.000892979
0.0009482
0.00100959
0.000881287
0.00100965
0.000996543
2.65749e-05
0.000931251
1.89091
1.9094
1.91781
1.91382
1.89011
1.81681
1.65399
1.7309
1.61907
1.6108
1.5918
1.59361
1.5942
1.58589
1.57564
1.58015
1.51912
1.50035
1.39155
1.44077
1.29171
1.33309
0.000970665
0.000636742
0.000948563
0.000967574
0.000969466
0.000982262
0.000990643
0.000870723
0.00101
0.000973499
0.000677989
0.000965569
0.000971308
0.000759356
0.000380116
0.000991326
0.000690401
0.00100737
0.000803925
0.000839513
0.000369052
0.000975289
0.000682834
0.000849784
0.0167901
0.161662
0.327325
0.300447
0.365346
0.547185
0.999067
0.800243
1.01849
1.0155
1.31342
1.14577
1.52075
1.47786
1.55127
1.64669
1.76009
1.83409
1.84247
1.83752
1.8785
1.90343
1.89649
1.90001
0.00112342
0.000872207
0.000886173
0.000208359
0.000730351
0.000987943
0.00081396
0.000939857
0.000890554
0.000725685
0.000975785
0.00092383
0.000794854
2.99799e-07
0.000880516
0.00101
0.000170373
1.29345
1.29136
1.29278
1.25784
1.17866
1.21334
1.13834
1.13046
1.09514
1.08815
1.04188
1.04374
1.07288
1.07295
1.03392
1.0654
1.06301
1.10948
1.09009
1.0929
1.01305
0.985752
0.98764
1.02661
1.03804
1.03162
1.00789
1.01747
0.975518
0.963981
0.928687
0.933747
1.53173
1.50101
1.54063
1.55182
1.49898
1.457
1.62486
1.64453
1.71005
1.7196
1.26688
1.30684
1.35981
1.44083
1.26276
1.20873
1.24506
1.24368
1.08313
1.13501
1.18743
1.07405
1.29099
1.28645
1.28957
1.29518
1.31439
1.29095
1.30391
1.31869
1.19799
1.19084
1.09148
1.17622
1.16904
1.12679
1.08086
1.09521
1.03779
1.05835
1.04155
1.12757
1.18872
1.12545
1.18774
1.24183
1.24129
1.24241
1.23811
1.24592
1.2647
1.25634
1.27369
1.27015
1.29009
1.28419
1.30698
1.30553
1.30689
1.30553
1.31703
1.30903
1.34834
1.32336
1.29268
1.28907
1.35953
1.32164
1.33265
1.37006
1.40924
1.41255
1.40978
1.41271
1.43972
1.49832
1.55562
1.5803
1.58436
1.56739
1.70913
1.64292
1.77134
1.81026
1.80298
1.84129
1.89718
1.76176
1.84702
1.87104
1.9451
1.99444
2.02018
2.04129
2.07067
2.01438
2.07016
2.02713
2.10847
2.10872
2.15673
2.12381
2.18794
2.21684
2.20736
2.1538
2.22157
2.24398
2.21171
2.20621
2.27343
2.2503
2.28133
2.22159
2.22057
2.28613
2.25339
2.20657
2.20577
2.23837
2.27102
1.26233
1.22867
1.39132
1.40152
1.36752
1.37343
1.37967
1.13463
1.26794
0.96596
0.991554
1.09056
1.0783
0.952267
1.03126
1.02017
1.19483
1.09867
1.09771
1.00542
1.00279
1.01406
1.03276
0.556826
0.438048
0.823334
0.625258
0.826781
0.781979
0.000916407
0.000103571
0.000950228
0.000257836
0.000521575
8.81157e-07
0.157168
0.40388
0.306998
0.335188
0.000225671
0.00069126
0.000943677
0.000831092
0.00141524
0.000458584
0.00012748
0.000146108
0.000949
0.000431299
6.93167e-06
1.61879e-05
0.000990101
0.00093513
0.00100829
0.000594986
0.000911134
0.000410555
0.0010095
0.000977785
0.000959587
0.00101937
0.000715322
0.00101486
0.000974989
0.000909851
0.00101
0.00057983
0.00109307
0.000825713
0.00109288
0.00109315
0.000986209
0.00109273
0.00109282
0.00109274
0.000490462
0.000523582
0.000993933
0.000773625
0.000877713
0.00099375
0.000922247
0.000776475
0.0010078
0.000994205
0.000136415
0.000956593
0.000950381
0.000921886
0.000915695
0.000919934
0.000616213
0.00101
0.000623175
0.000968314
1.88052
1.87483
1.8456
1.85529
1.76207
1.83819
1.65514
1.59871
1.59062
1.58526
1.59213
1.58301
1.52324
1.52601
1.37294
1.33537
1.28982
1.46612
1.46887
1.41321
1.41723
1.41344
0.00081225
0.000360382
0.00112603
0.00112634
0.000962471
0.000414864
0.00093308
0.000410365
0.00112601
0.000871107
0.000161511
0.00100893
0.000972717
0.000941946
0.000297472
0.000985833
0.000574986
0.00091818
0.000743398
0.00233545
0.390274
0.218944
0.423343
0.421873
0.663345
0.464505
0.864588
1.01608
1.1442
1.01891
1.31531
1.47181
1.51812
1.53559
1.61566
1.73941
1.80344
1.78688
1.83433
1.75547
1.80154
1.85248
1.80363
1.79016
0.00101
0.000865295
0.00100993
0.000849207
0.000924318
0.00119061
0.000760425
0.00080233
0.0011906
0.000964874
0.000981161
0.000996251
2.93849e-10
1.51015e-05
0.00101
0.000411253
1.07263e-38
0.00072123
0.00101
0.000253336
0.000277025
0.000765241
0.00096459
0.000879022
0.00221045
0.00101088
1.26581
1.26669
1.18683
1.20393
1.08183
1.10402
1.04192
1.04156
1.0396
1.03997
1.01403
1.01281
0.989479
0.990836
0.96653
1.00499
1.08269
1.04471
1.08419
1.08295
0.905908
0.924071
0.96759
0.948559
0.954465
0.955193
0.902137
0.895929
0.880612
0.892208
0.901627
0.900397
1.75517
1.75406
1.58311
1.49793
1.48296
1.47303
1.75292
1.66435
1.90892
1.9854
1.8822
1.80493
1.99907
1.97905
2.04426
2.09578
2.12595
2.12188
2.15337
2.12336
2.17892
2.20659
2.20156
2.2022
2.22073
2.2062
2.20699
2.25303
2.19629
2.19116
1.31503
1.24557
1.38858
1.45666
1.24353
1.19015
1.24355
1.24431
1.07337
1.12605
0.964009
1.12649
1.01397
1.29109
1.23888
1.28368
1.27995
1.29151
1.18607
1.08356
1.006
0.994225
1.00694
1.04351
0.974804
0.954939
0.880903
0.975081
1.05633
1.04487
0.965855
1.0661
1.13535
1.08723
1.18831
1.14188
1.17385
1.2342
1.2693
1.24389
1.27525
1.27961
1.29089
1.27874
1.31176
1.32378
1.32351
1.33671
1.34179
1.34529
1.37906
1.38848
1.37974
1.37304
1.37713
1.3741
1.39146
1.40269
1.45133
1.44278
1.40907
1.44475
1.44025
1.46877
1.50214
1.57034
1.60024
1.59607
1.60652
1.68002
1.75817
1.83401
1.84477
1.97082
1.84632
1.8963
2.04683
2.06982
2.07129
2.10777
2.15777
2.20665
2.21797
2.2209
2.24902
2.27699
2.30332
2.30341
2.30349
2.30334
2.30321
2.28556
2.22164
2.28541
2.2535
2.20691
2.20783
2.23935
2.2715
2.2815
2.20783
2.2687
2.22859
1.04997
1.04705
1.11545
1.19122
1.08372
1.14607
1.27751
1.21436
1.24134
1.0842
0.987073
0.954219
0.955046
1.05714
1.04246
0.710743
0.81808
1.00385
0.895143
1.00243
1.00395
1.01396
1.00188
1.01546
1.03949
0.226312
0.378519
0.476527
0.658022
0.679486
0.679592
0.00086849
0.000172666
0.000348616
0.00101
0.00073191
2.41691e-05
0.0232291
0.000779365
0.140973
0.000718401
0.000507852
0.00141486
0.000928609
0.00101
0.000833757
0.000660221
0.000998234
0.000701989
0.000938544
0.000874495
0.00105171
0.000942146
0.000791252
0.000751098
0.000990039
7.57449e-05
0.00099613
0.000976554
0.000151024
0.000554352
0.000544652
0.000936558
0.000861569
0.000995727
0.000841983
0.00100349
0.000978339
0.000944855
0.000974885
0.00092222
0.000207016
0.000979907
0.000919067
0.00101
0.000732523
0.00100962
0.000641972
0.000367709
0.000916152
0.000960434
0.000966514
0.000892128
0.000572235
0.000479733
1.80423
1.81099
1.78773
1.79456
1.70333
1.78514
1.59589
1.64822
1.54062
1.54451
1.49126
1.47475
1.42101
1.41355
1.32929
1.22646
1.20274
1.37009
1.41366
1.41499
1.41162
1.41933
0.00112695
0.000958826
0.00112677
0.000907211
0.000973634
0.000973647
0.00094649
0.000972052
0.00100548
0.000830393
0.000135327
0.000443538
0.00093376
0.000997208
0.00060297
0.00100999
0.000906931
2.06716e-05
7.40719e-05
0.104802
0.274126
0.423643
0.486754
0.436565
0.649425
0.827809
0.983229
1.01598
1.21204
1.04443
1.34571
1.49248
1.45392
1.56945
1.73725
1.63993
1.71048
1.71092
1.71649
1.73589
1.78119
1.78801
1.78533
1.75978
0.000769413
0.000922585
0.000563688
0.000958878
0.000712787
0.000933944
0.000627141
0.000452485
0.00082175
0.000879841
0.000957505
0.000856862
0.000968979
8.46618e-28
0.000922039
0.000873917
0.00096514
0.000987798
0.000743529
0.00100999
0.000468733
4.87194e-12
0.00207355
0.000901385
0.00101
0.000860782
0.000668131
0.000489708
0.000816537
3.18594e-24
0.00098545
1.14156
1.14213
1.10633
1.0849
1.0423
1.06324
1.02841
1.02836
1.1861
1.12617
1.10644
0.956343
0.965133
0.895818
0.898988
0.967697
0.968405
0.958323
0.999512
1.05804
1.01128
1.04658
1.03252
0.925193
0.904539
0.921902
0.941311
0.864957
0.863236
0.863831
0.873465
0.890002
0.876751
0.840506
0.851284
2.32716
2.33919
2.36452
2.33968
2.38482
2.36958
2.39223
2.38623
2.44195
2.42846
2.39419
2.44656
2.40619
2.46583
2.29511
2.24773
2.26761
2.31683
2.2982
2.26748
2.26892
2.32292
2.32717
2.305
2.28473
2.33547
2.32067
2.32345
2.35187
2.20654
2.20748
2.20744
2.20564
2.22479
2.24586
1.80096
1.74384
1.64151
1.54641
1.45992
1.5324
1.73577
1.71718
1.95512
1.98088
1.86517
1.94916
1.98561
2.03614
2.08083
2.12521
2.12
2.1238
2.11877
2.15024
2.16229
2.18887
2.17575
2.17893
2.18362
2.19356
2.17037
2.16991
1.36482
1.29709
1.23705
1.22962
1.28479
1.45692
1.4394
1.16551
1.22302
1.09562
1.03062
2.31284
2.33406
2.34898
2.35534
2.36159
2.37194
2.37622
2.40288
2.38783
2.40666
2.40454
2.45465
2.48038
2.49941
2.50167
2.50513
2.51767
2.54477
1.00842
0.956049
0.954028
1.2148
1.09826
1.2782
1.17649
1.09167
0.990982
0.994925
0.991833
0.992951
0.84765
0.920429
0.772517
0.799877
0.877792
0.792326
1.06495
0.988678
0.88826
1.08082
1.08949
1.08335
1.13988
1.09781
1.22116
1.17073
1.25641
1.21536
1.25299
1.2823
1.30116
1.32711
1.34949
1.34663
1.35921
1.34952
1.41002
1.39553
1.39112
1.38806
1.43875
1.41511
1.48412
1.44913
1.4286
1.46948
1.51473
1.50524
1.5271
1.56732
1.56769
1.51032
1.62156
1.64639
1.61735
1.6093
1.68893
1.77501
1.84465
1.91186
1.86089
1.87607
2.00574
2.06367
2.10817
2.0887
2.15424
2.18589
2.2276
2.2423
2.23654
2.25667
2.31383
2.29389
2.30591
2.31419
2.30561
2.30409
2.30389
2.30342
2.30362
2.30334
2.30322
1.04187
1.02472
1.04928
0.971131
0.996946
1.01155
0.951513
1.09521
0.995897
0.930636
0.952428
0.931095
0.828761
0.931347
0.953554
0.738078
0.71863
0.681221
0.789274
1.00468
0.896266
0.901919
0.900303
0.694058
0.581383
0.380763
0.400178
0.318294
0.134335
0.132263
0.680871
0.496604
0.661137
0.663538
0.000776109
0.00096702
0.000896738
0.000998449
9.31368e-05
0.000888291
0.00100984
9.24457e-08
0.134584
0.000360573
0.000398457
0.000668916
0.00101
0.000330569
0.000740386
1.82877e-22
1.27866e-14
0.00238897
0.000379096
0.000850418
0.000694792
0.000545923
0.000997667
0.0003892
0.00100993
0.000972649
0.000977525
0.000963111
0.000999516
0.00075407
0.00101237
0.000953441
0.000755775
0.000961518
0.000562352
0.00101201
0.00089779
0.000955844
0.000631827
0.000258775
0.000716096
0.000964465
0.000941166
0.000838222
0.00101
0.000334973
0.000769708
0.000685233
0.000978177
0.000925692
0.000935309
0.000871767
0.00091709
0.000695524
0.000567275
0.00219728
0.000155298
0.000674617
0.000835469
0.000872331
0.00219725
2.4907
2.45688
2.43914
2.53618
2.57028
2.56496
1.76898
1.76958
1.7542
1.74661
1.69487
1.75174
1.58297
1.4994
1.43362
1.45508
1.41308
1.41257
1.42322
1.41378
1.29289
1.20986
1.29936
1.37909
1.37814
0.00093523
0.000764286
0.000875173
0.000890082
0.000922295
0.0009764
0.000965395
0.000493094
0.000931051
0.000554111
0.00100943
0.000959595
0.000969088
0.97917
1.01564
1.04204
0.000392143
0.000396475
0.000115424
0.000880756
0.273615
0.150819
0.442032
0.475446
0.638579
0.501338
0.814016
1.18613
1.31979
1.43168
1.44229
1.76386
1.67646
1.6897
1.47909
1.5619
1.65465
1.69634
1.69554
1.70758
1.73063
1.73831
1.75338
0.00067665
0.00118216
0.000629596
0.000982796
0.000704864
0.000720222
0.00100904
0.000845157
0.00069559
0.000865554
0.000823186
0.000932446
0.000763197
0.000831138
0.000896425
0.000464554
0.000627663
0.00100504
0.000978863
0.000935387
0.000938185
0.000682923
0.000677014
0.000937995
0.000997599
0.000978674
0.000347723
0.000953032
0.000978459
0.000973622
0.00101
0.00100979
0.000838321
0.000978065
0.000644837
0.000954507
0.000811322
1.14318
1.17819
1.1636
1.10673
1.10567
1.07891
1.09858
0.968475
0.994097
0.904591
0.908137
1.11105
1.10129
0.861089
0.856355
0.86058
0.86386
0.920233
0.90006
0.936089
0.882096
1.00398
0.956229
1.00555
1.01471
0.846719
0.799618
0.827385
0.859877
0.832694
0.830646
0.773428
0.80762
0.790131
0.77039
0.749965
0.747637
2.32702
2.33997
2.36565
2.38395
2.39892
2.39594
2.43985
2.40537
2.261
2.25893
2.24292
2.26255
2.29686
2.25965
2.30463
2.27832
2.19363
2.18175
2.18104
2.21187
2.2407
2.21527
1.80572
1.72668
1.62194
1.71081
1.55856
1.47209
1.72388
1.72492
1.96273
1.96626
1.98139
1.87812
1.95655
2.06848
2.01275
1.95695
1.99922
2.09874
2.11296
2.10311
2.10964
2.11737
2.1406
2.16749
2.15753
2.16751
2.16773
2.16805
2.16871
2.16809
2.16748
1.21117
1.21427
1.3558
1.43441
1.2155
1.29489
1.45334
1.46707
1.20287
1.14662
1.05844
1.12417
2.34317
2.30296
2.32208
2.36662
2.36599
2.36787
2.37645
2.39973
2.4202
2.43374
2.43259
2.43787
2.45853
2.49807
2.48484
2.50228
2.51968
2.56287
2.54233
2.37254
2.38483
2.39993
2.57247
2.56895
2.58172
0.955166
0.957206
0.950498
0.925601
1.02399
1.03434
0.840101
0.876738
0.912063
0.799133
0.837379
0.842648
0.771194
0.775978
0.775181
0.771523
0.803252
0.835633
0.945152
0.863438
0.869019
1.00875
1.08815
1.00434
1.15567
1.185
1.11807
1.15738
1.2197
1.18415
1.31371
1.25078
1.3241
1.34
1.3482
1.33656
1.38632
1.42811
1.46333
1.46432
1.46927
1.45688
1.48185
1.4634
1.51466
1.5163
1.53908
1.54092
1.51768
1.52023
1.63792
1.6872
1.58386
1.64925
1.69235
1.65719
1.75459
1.80235
1.89865
1.93829
1.91495
2.00613
2.06082
2.16075
2.14676
2.20692
2.17996
2.2749
2.28275
2.27634
2.30311
2.33143
2.33229
2.38559
2.35201
2.37796
2.34165
2.34052
2.37585
2.30729
2.34433
2.30726
0.402772
0.721058
0.41547
0.689764
0.966776
0.948266
0.950602
0.928914
0.948688
0.80173
0.702829
0.699898
0.592958
0.800379
0.670933
0.698339
0.82035
0.0818024
0.0808771
0.462099
0.585409
0.579983
0.371574
0.259584
0.257573
0.0444033
0.0570492
0.0641265
0.136785
0.137704
0.0435208
0.221295
0.12338
0.380472
0.173887
0.103067
0.0010004
0.000112849
0.00044385
0.000919656
7.9531e-19
0.000297927
0.00225752
4.19326e-07
0.000926127
0.0156678
0.0009581
0.000364482
0.00101
0.000172236
0.000997632
0.00222289
0.000971983
0.000134455
0.00096781
0.00100982
0.00138597
0.00033762
0.00100983
0.000979813
0.000465046
0.000983408
0.00101
0.000808151
0.00101229
0.00101207
0.000896998
0.000917116
0.00101181
0.00101209
0.000955402
0.000689328
0.000711032
0.000919589
0.00171014
5.85935e-05
0.00171006
0.000735516
0.00098702
0.000966821
0.00099923
0.00100984
0.00101
0.00100994
0.000799141
0.000805878
0.000827454
1.20946e-05
9.12481e-06
0
0.00090453
0.000799517
0.000430028
0.000825704
0.00138593
0.000898711
0.00100958
0.00100997
0.000684304
0.000998553
0.000946811
0.000914726
0.00101
2.4529
2.4647
2.46838
2.47203
2.51395
2.62052
2.57415
2.58497
2.60319
2.55093
1.6901
1.67749
1.61539
1.62141
1.56558
1.59997
1.50909
1.46458
1.4537
1.41222
1.39197
1.39198
1.30025
1.31134
1.17802
1.22297
1.22138
0.000529692
0.000965684
0.000913493
0.00101
0.000949844
0.000924031
0.000585991
1.01269
1.15498
1.01517
3.80004e-05
0.000191265
0.000779623
0.000979614
0.881904
0.715613
0.0516959
0.000954035
0.0761063
0.181685
0.476936
0.334894
0.513007
0.517715
0.545709
1.54209
1.53786
1.58564
1.29455
1.44211
1.43042
1.4742
1.60304
1.6615
1.6329
1.53548
1.62627
1.65517
1.65727
1.56745
1.59213
0.000957717
0.000978948
0.00118219
0.00101
0.000631307
0.000823908
0.00101
0.00115717
0.000803156
0.000409766
0.000160682
0.000986054
0.000875008
0.000735734
6.65039e-05
0.000970585
1.84462e-05
1.52723e-06
0.000982444
0.00101
0.000771965
0.000895476
0.000833864
0.000976221
0.00092185
0.00100577
0
0
0
0.00065666
0.000755966
0.00101
0.00100563
0.000944429
0.000473953
0.000911195
0.000978965
0.000968087
0.00097325
0.000338297
0.00093345
0.000914242
3.25382e-05
0.000822171
2.49887e-07
1.16124
1.16838
1.18146
1.0492
1.06716
1.02928
1.02628
0.954622
0.947203
0.861277
0.87066
0.859994
0.859402
0.960042
0.957132
0.807233
0.805872
0.771823
0.751025
0.850435
0.843288
0.865739
0.921882
0.999644
0.963971
1.03283
0.984244
0.787385
0.754305
0.817023
0.844288
0.712899
0.716673
0.689568
0.706906
0.748667
0.729093
0.747948
0.754852
2.33176
2.28961
2.36121
2.32047
2.33572
2.35881
2.37063
2.41256
2.39624
2.44757
2.43114
2.39639
2.44369
2.43037
2.22652
2.2265
2.21664
2.23024
2.24397
2.25393
2.25674
2.26012
2.16827
2.16917
2.1918
2.17758
2.20776
2.2154
1.80843
1.73032
1.6487
1.72506
1.52066
1.61302
1.72616
1.7326
1.95539
1.95591
1.95878
1.88606
2.04382
2.09099
2.00245
1.95562
2.09683
2.09713
2.11073
2.09719
2.13399
2.15635
2.16476
2.16488
2.16464
2.16277
2.16868
2.16798
2.16524
2.16307
1.20741
1.20427
1.37315
1.44897
1.35045
1.26989
1.50574
1.44948
1.18093
1.20267
1.17486
1.09346
2.34382
2.37974
2.36244
2.3871
2.4072
2.39592
2.43016
2.4429
2.41871
2.43162
2.42321
2.43321
2.43602
2.46091
2.48653
2.50108
2.50144
2.5549
2.53146
2.5779
2.58628
2.45397
2.46845
2.5893
2.59642
0.697116
0.854083
0.716021
0.825886
0.746889
0.721063
0.681184
0.650676
0.675063
0.709906
0.607484
0.656756
0.662321
0.549375
0.603618
0.75254
0.864618
0.782335
0.877993
0.877071
0.869624
0.939043
1.0835
0.988119
1.17329
1.17156
1.14069
1.08887
1.20747
1.25545
1.31334
1.30058
1.32302
1.31261
1.43053
1.38118
1.4826
1.473
1.49972
1.50371
1.47959
1.53669
1.57802
1.55197
1.53702
1.56539
1.61584
1.59921
1.58172
1.62604
1.70853
1.70954
1.70271
1.72415
1.85225
1.76605
1.93575
1.96245
1.96196
2.02932
2.10536
2.18185
2.18988
2.20295
2.24899
2.29871
2.33303
2.33546
2.37377
2.34513
2.39724
2.41432
2.41187
2.41347
2.41176
2.41297
2.38057
2.4122
2.3807
0.064621
0.0531565
0.0778442
0.0446446
0.357804
0.66167
0.346657
0.821459
0.690318
0.696727
0.540022
0.562406
0.565039
0.564628
0.566073
0.567077
0.561056
0.557345
0.566654
0.0784838
0.0647518
0.000819725
0.00822292
0.0421676
0.00105653
0.0437515
0.0446614
0.0125137
0.0254235
0.000703731
0.000845299
0.000535565
0.000264525
3.17526e-22
0.000746713
0.00208074
1.32987e-07
0.000959982
0.00100986
0.000887496
0.000962023
0.000993624
0.00189309
0.000975957
8.75854e-07
1.36216e-05
0.000607696
7.1243e-07
0.000988249
0.000479144
0.000826696
0.000961729
0.00100941
0.00031059
3.77415e-05
0.000987756
0.00100992
0.000817418
0.000560979
0.000610403
0.00101
0.000799183
0.00097972
0.000279366
0.000905419
0.000941315
0.000781668
0.0010008
0.000939674
0.000880492
0.000886752
0.00100949
0.00097168
0.000773375
0.000984106
0.000952799
0.000422547
0.00098992
0.000934564
0.000964099
0.000974876
0.000974485
0.00101
0.00099424
0.000905098
0.000464111
0
0
0
0
0
0
0
0
0
0
0
0
0
0
0
0
0
0
0
0.00099334
0.000869311
0.000937661
0.000812305
0.000920569
0.000434354
0.000930589
0.00106265
0.000325168
0.000811332
0.000981388
0.000885277
2.64703
2.6252
2.65333
2.66939
2.64032
2.64652
2.47431
2.48138
2.54095
2.51922
2.61307
2.61912
2.60599
2.49038
2.44799
1.54855
1.54312
1.5419
1.53807
1.54274
1.48278
1.53092
1.30993
1.36358
1.23409
1.23341
1.17846
1.18092
1.17805
4.53839e-05
0.000617054
0.000495047
0.000982711
0.987199
1.1782
1.0131
0.000948865
0.000925054
0.968168
0.859194
0.000902423
0.0230577
0.000357631
0.000447515
0.556355
0.700858
0.0873501
0.0834812
0.231209
0.0840378
0.519086
0.371595
0.523438
1.55984
1.54896
1.55268
1.55671
1.54799
1.26512
1.37686
1.3261
1.44173
1.49737
1.52582
1.45801
1.52982
1.49684
1.48132
1.49094
0.000127044
0.00023346
0.000990576
0.000840301
0.000101881
9.60858e-05
0.000911744
0.000361143
0.000965525
0.000619409
0.000683037
0.000971751
0.00044992
0.00013272
0.000816238
0.0822651
0.0818558
0.0278543
0.000854987
0.000718662
0.0299192
0.000986776
0.000740767
0.000908685
0.000621516
0.00100955
0.000627569
0.000973579
0.000348921
2.15212e-05
0
0
0
0
0
0.000958683
0.0010639
0.000978274
0.00106387
0.000273571
0.000721123
1.39176e-08
0.00100421
0.000501235
0.000230282
0.000542817
0.000953825
0.000343182
0.000284273
0.000622559
0.0758642
0
0
0
0
0
0
1.15778
1.08883
1.07283
1.00231
0.99854
0.914047
0.902887
0.890145
0.890261
0.879927
0.891627
0.821037
0.832189
0.754496
0.741306
0.891271
0.895566
0.682102
0.675418
0.682499
0.68741
0.961113
1.02776
0.946247
0.843156
0.822744
0.89957
0.828625
0.914212
0.752082
0.720876
0.782432
0.738099
0.688467
0.690554
0.681999
0.702867
0.697358
0.672528
0.662163
0.646217
2.29776
2.26999
2.31208
2.32359
2.29428
2.36483
2.3586
2.33093
2.36325
2.34879
2.43767
2.4092
2.37459
2.21686
2.21637
2.24374
2.23157
2.25526
2.25557
2.28016
2.2618
2.16945
2.17559
2.19924
2.18406
2.19968
2.20698
1.8475
1.76903
1.69051
1.72693
1.67407
1.58053
1.76385
1.72769
1.96082
1.96025
1.92149
1.96617
2.05196
2.09932
1.96312
2.00884
2.10217
2.09923
2.12181
2.10311
2.14381
2.16128
2.16129
2.15979
2.16071
2.1595
2.16504
2.16365
2.16089
2.15982
1.20165
1.26154
1.45025
1.42742
1.34803
1.43201
1.45097
1.52766
1.19534
1.19123
1.1862
1.10453
0.941194
0.985423
1.06812
2.41208
2.41664
2.44344
2.43566
2.45915
2.4709
2.47143
2.47149
2.50674
2.48646
2.49948
2.46511
2.4947
2.50852
2.53034
2.55194
2.56542
2.56299
2.61527
2.6167
2.63712
2.61748
2.52765
2.53097
2.64917
2.64888
0.476183
0.545353
0.410988
0.652132
0.562965
0.644281
0.652653
0.634844
0.569874
0.494342
0.435736
0.440806
0.458344
0.52364
0.68699
0.594519
0.566787
0.773252
0.928263
0.886851
0.74033
0.975673
1.01618
1.03434
1.0209
1.11962
1.19243
1.07205
1.29625
1.23204
1.30458
1.308
1.39598
1.33803
1.45974
1.48985
1.48602
1.49367
1.61523
1.58339
1.55233
1.60804
1.6275
1.62154
1.61677
1.60985
1.62565
1.6223
1.70381
1.74741
1.78499
1.73964
1.78602
1.80945
1.9505
1.8817
1.97472
1.96336
2.04332
2.1194
2.20587
2.20211
2.23708
2.27582
2.35247
2.33918
2.36512
2.36711
2.39501
2.40785
2.42256
2.4179
2.42607
2.42385
2.41344
2.42418
2.41259
2.41238
0.00394643
0.000923418
0.0323887
0.00934749
0.0100646
0.0344451
0.0107766
0.19849
0.00882272
0.55764
0.577
0.0990354
0.297867
0.567096
0.558466
0.563835
0.56001
0.558343
0.561582
0.492675
0.389766
0.000923089
0.000706894
0.000929073
0.000134776
0.000962774
0.00647649
0.000959234
0.0004992
0.000658308
0.000624923
0.00101
0.000209386
0.000613088
0.00100863
0.0018708
0.000978009
0.000918269
0.000997141
0.00376553
2.57963e-05
0.000210438
0.00024578
0.00100974
0.00081637
6.39222e-09
0.000980809
0.00100983
0.000216105
0.000848872
0.00100647
0.000131712
0.00100976
0.000959372
0.000149258
0.000986414
0.000975827
0.000989927
0.00350284
0.000980885
0.000627977
0.00098777
0.000776699
0.000612187
0.00132916
0.00132909
0.00132911
0.000900202
0.000946957
0.000832782
0.000987787
0.000948013
0.000941776
0.000961192
0.000871734
0.000897996
0.000947049
0.000951887
0.000925848
1.67713e-05
0.000881191
0.00092376
0.0003855
0.000414352
0.00098456
0
0
0
0
0
0
0
0
0
0
0
0
0
0
0
0
0
0
0
0.000834206
0.000943785
0.00101
0.000948967
0.00168375
0.000622654
0.00104176
0.00087343
0.00101906
0.00086988
0.000672598
0.000991424
2.65884
2.6817
2.69506
2.63833
2.65067
2.63541
2.64925
2.53709
2.5756
2.57395
2.58421
2.58645
2.62157
2.63783
2.48438
2.527
2.44492
2.48022
2.47525
1.55012
1.54476
1.4443
1.40444
1.50086
1.43297
1.44048
1.31977
1.34237
1.20591
1.1805
1.18055
1.1786
1.15635
0.000980883
0.000179578
1.09659
1.20888
0.98637
0.000836916
0.000522303
0.940204
0.937492
0.000894311
0.000862483
0.675762
0.813444
0.0498865
0.119717
0.0660883
0.0171993
0.533233
0.545861
0.132415
0.167449
0.209383
0.3125
0.464515
1.50769
1.5419
1.52882
1.50557
1.2687
1.26718
1.29168
1.36438
1.4828
1.47607
1.43666
1.48744
1.47964
0.00608378
0.00428092
0.00549458
0.0198393
0.034261
0.0575836
0.0720569
0.0640159
0.068876
0.0987095
0.111543
0.13586
0.134281
0.154531
0.193084
0.226207
0.182624
0.266668
0.227844
0.181697
0.221683
0.227931
0.228605
0.000995064
0.000829391
0.00106395
0.000570634
0.00039799
0.00101
0.000983603
3.7271e-05
0.000733696
0
0
0
0
0
0.000500823
0.000887854
0.000776104
0.000532986
0.0566641
0.0934479
0.163204
0.190079
0.254437
0.133275
0.000242531
0.000437869
0.349026
0.230319
0.269393
0.295155
0
0
0
0
0
0
0
0
0
0
1.0736
0.991643
0.991838
0.932254
0.930418
0.906012
0.923208
0.893752
0.930528
0.858478
0.85866
0.767821
0.785006
0.692629
0.693904
0.667283
0.664073
0.813592
0.787061
0.672391
0.662901
0.666635
0.660299
0.88774
0.931266
0.770593
0.742444
0.813182
0.931177
0.991677
0.947701
0.672521
0.631232
0.697719
0.718328
0.623303
0.607191
0.597133
0.563728
0.592945
0.571197
0.594177
0.610658
2.30016
2.31899
2.22787
2.34189
2.29503
2.33435
2.3638
2.3457
2.35115
2.40732
2.35337
2.44207
2.40422
2.47547
2.19903
2.21997
2.21642
2.23739
2.22096
2.24527
2.26367
2.23337
2.16442
2.17268
2.18118
2.18949
2.19012
2.18887
1.90098
1.82089
1.70934
1.72686
1.63026
1.72216
1.73381
1.78968
1.96771
1.96721
1.9679
1.94435
2.05856
2.10345
2.02396
1.97827
2.10598
2.10418
2.11285
2.1301
2.1604
2.1497
2.1596
2.16144
2.16132
2.15942
2.16055
2.16147
2.15977
2.16074
1.28283
1.18855
1.45829
1.45909
1.36935
1.46492
1.46124
1.56332
1.18428
1.18684
1.16849
1.14864
1.08934
1.18807
2.42552
2.44558
2.46512
2.50064
2.49502
2.51495
2.5286
2.53677
2.5451
2.53318
2.53783
2.56191
2.58401
2.59313
2.59699
2.60751
2.62494
2.64866
2.65945
2.65962
2.67052
2.54301
2.53294
2.68651
2.70983
0.273142
0.344662
0.310674
0.385165
0.525095
0.589648
0.489514
0.515494