/*--------------------------------*- C++ -*----------------------------------*\
  =========                 |
  \\      /  F ield         | OpenFOAM: The Open Source CFD Toolbox
   \\    /   O peration     | Website:  https://openfoam.org
    \\  /    A nd           | Version:  8
     \\/     M anipulation  |
\*---------------------------------------------------------------------------*/
FoamFile
{
    version     2.0;
    format      ascii;
    class       volScalarField;
    location    "19980";
    object      alpha;
}
// * * * * * * * * * * * * * * * * * * * * * * * * * * * * * * * * * * * * * //

dimensions      [0 0 -1 0 0 0 0];

internalField   nonuniform List<scalar> 
526318
(
0.000152113
0.00025424
0.000221895
0.000289234
0.000264076
0.000135205
0.000269102
0.000175429
0.000244899
3.23236e-05
0.000173524
0.000247974
0.000283373
0.0001176
0.000128658
0.00011684
0.00017359
0.000101059
0.000148584
7.53138e-05
0.000268313
0.000128201
0.000265327
0.000165471
0.000105834
0.000186025
6.44214e-05
0.000234268
0.000221026
4.97867e-05
0.000143248
3.89856e-05
0.000264557
0.000201279
0.000257875
0.000493582
0.000136645
8.29454e-05
0.000210515
0.000359888
0.000341277
0.000145374
0.000256614
1.47138e-05
0.000217187
0.000229049
0.000345486
0.000347708
0.000159238
0.000104888
0.000255618
0.00041304
0.000137564
0.000166083
0.000172576
0.000215969
0.000164412
0.00013387
3.51284e-05
8.40575e-05
0.000307032
0.000252358
0.000282697
3.49295e-05
7.7391e-05
0.000115416
0.000110989
0.000172971
0.000161573
0.00018198
0.000138407
0.000108003
0.000212616
0.000176965
0.000205503
0.000111914
0.000136851
9.54388e-05
0.00030993
0.00023106
0.000256095
0.000204285
0.000140608
0.000145721
0.000293573
0.000147861
6.15496e-05
0.000232478
0.000243758
0.000144948
0.000225196
0.000158378
7.0949e-05
0.000232629
0.000161536
0.000248103
0.000161654
6.34605e-05
0.000107034
0.00024602
0.00034351
0.00039861
0.000312097
0.000208257
0.000168085
0.000405767
0.000219958
0.000179963
0.000168282
0.000231804
0.000361971
0.000200357
0.00012901
6.06646e-05
7.98455e-05
0.000203925
6.6029e-05
0.000228956
4.36752e-05
0.000181329
0.00019916
0.00020512
8.19467e-05
4.40005e-05
3.89696e-05
0.000143587
0.000200396
0.000108096
8.36382e-05
1.53712e-05
0.000146598
7.93496e-05
3.81386e-05
5.2259e-05
5.05965e-06
4.42304e-05
8.41935e-05
3.8331e-05
5.78123e-05
4.52404e-05
6.509e-05
7.65013e-05
5.04073e-05
3.43604e-05
0.000113473
4.08293e-05
7.69458e-05
0.000155595
4.98077e-05
0.000157699
5.93407e-05
0.000298272
0.000107384
6.63851e-05
6.80719e-05
0.000380463
0.000306226
0.000348486
0.000147418
0.00025415
0.000236993
5.49941e-05
0.000324449
1.28318e-05
9.17599e-05
0.000255322
0.000163343
0.000306278
0.000259238
0.000290402
0.000162665
0.000313004
0.000289759
0.000104575
0.000210555
0.000158317
0.000152279
0.000172581
0.000263556
0.000167297
0.000130323
0.000114325
0.000229128
0.000118691
0.000249216
0.000161038
0.000117238
5.98152e-05
0.000178879
3.94125e-05
0.000121264
6.19332e-05
5.8499e-05
6.37527e-05
6.8303e-05
6.72765e-05
4.36158e-05
8.13983e-05
8.2048e-05
0.000213474
3.97115e-05
0.00022759
0.000272642
0.000293321
1.79789e-05
0.000202428
0.000153141
9.7741e-05
0.000167723
0.000288687
8.5597e-05
0.000327985
0.000163526
0.000160078
0.000355621
7.57533e-05
0.000107039
0.000229754
0.000271237
0.00021954
0.000125061
0.000189687
0.000185296
0.000188665
0.000348529
0.000156799
0.000151909
0.00028568
0.000317207
0.000266006
0.000304525
0.000196467
0.000206661
0.00152665
0.00184452
0.000551104
0.000694031
0.00044305
0.000439022
0.000110854
0.000173593
2.48298e-05
0.000113216
9.69361e-05
9.9303e-05
0.000150393
0.000179013
9.38183e-05
0.000262045
0.000220492
0.000231809
0.000161753
0.000242238
0.000207444
0.000167135
0.000183991
0.000149863
0.000181827
0.000206044
0.000130372
8.26475e-05
0.00248183
0.00416559
0.000743088
0.00114075
0.000322012
0.000463616
0.000371013
0.000249431
0.000201786
0.000189957
0.000226029
7.32337e-05
0.000253199
0.000147018
0.000193665
0.000155363
4.97764e-05
0.000130385
0.000262574
0.00012319
0.000137292
0.00017151
2.95627e-05
6.05437e-05
2.0267e-05
2.29722e-05
4.14128e-05
2.07007e-05
4.88459e-05
4.37899e-05
8.00504e-05
6.49227e-05
0.000221096
0.000192066
0.000212278
0.000231921
0.000191246
0.000276093
0.000231599
0.000273121
0.000184912
0.0002502
0.000182004
0.000145328
0.000244241
0.000140392
4.1822e-05
0.000194497
5.42788e-05
9.96345e-05
0.000189877
0.000255353
0.00015801
0.000183963
0.000115858
0.000195951
0.000227509
0.000291058
0.00029627
0.000210936
0.000180947
0.000318466
0.000195263
0.000168401
0.000263411
0.00017844
7.05594e-05
0.0002216
0.000200897
0.000320996
0.000277411
0.000176385
0.000274903
0.0001193
0.000159747
0.000164277
0.000141715
0.000124042
0.000155345
0.000195414
0.000211398
0.000116896
0.00027854
4.13274e-05
0.000154555
0.000117774
2.64154e-05
5.56792e-05
0.000116215
3.70374e-05
5.38896e-05
7.79988e-05
5.78147e-05
4.97897e-05
5.43337e-05
6.26382e-05
0.000184456
0.000163966
9.00991e-05
0.000140941
2.89807e-05
0.000209006
0.000185232
0.000171798
0.00017604
0.000160908
0.00023519
0.000249748
0.000221611
0.000210891
0.000150689
0.000226971
0.000293842
0.000247066
0.000254871
0.000178515
0.000277837
0.000305653
0.0003847
0.000138012
0.00034535
0.000289343
0.000180404
0.000212432
0.000112572
0.000141155
0.000155357
0.000305364
0.000172952
0.000334113
0.000228621
0.000239726
0.000218141
0.00018037
0.000205367
0.000333519
0.000199579
5.49383e-05
0.000515107
0.000318775
0.000279328
0.000403097
0.000241535
0.000207086
0.00899633
0.00164284
0.00283601
0.0140397
0.08056
0.00503582
0.00159588
0.000189913
0.000748347
0.00121657
0.000111915
0.000104343
0.000116108
4.89931e-05
0.000140071
4.82205e-05
8.5446e-05
0.000135192
0.000172853
0.00022609
0.000117587
0.000163214
0.000175414
0.000173568
0.000163748
0.000192558
0.000140805
0.000103179
0.000182769
0.000138889
0.000113719
0.000153504
0
0.00157452
0.000915297
0
0
0
0
0.000591211
0.00225337
0.00335651
0.0151753
0
0
0
0.021304
0
0.00331261
0.00167302
0.00190438
0.000728673
0.000375701
0.000572312
0.000414135
0.000369003
0.000236454
0.000362272
0.000195401
0.000179177
0.000197162
0.00023394
0.000198113
0.000143304
0.000155421
6.73535e-05
0.000227765
6.4583e-05
0.000199943
9.02099e-05
6.54787e-05
5.3238e-05
5.08499e-05
6.37618e-05
2.0374e-05
6.41957e-05
6.5282e-05
3.76696e-05
6.6031e-05
5.98322e-05
6.41129e-05
0.00011244
0.00012752
0.000162421
0.000248567
0.000176771
0.000206968
0.000253453
0.000298011
0.000266429
0.000144201
0.000266151
0.000219625
0.000115164
3.37643e-05
8.21995e-05
0.000164567
0.000149082
0.000179153
3.3066e-05
0.000196543
0.000221735
0.00027906
0.000288795
0.000245398
0.000274924
0.00024805
0.000260228
0.000258352
0.000294135
0.000211045
0.000304404
0.00025433
0.000258904
0.000315248
0.000271869
0.000336676
0.000291656
0.000165881
0.000240927
0.000201138
0.000205346
0.00022362
0.000231034
0.000276069
0.000135013
0.000223235
0.000219111
9.55285e-05
0.000181351
3.78865e-05
0.000122361
0.000143474
0.000195922
9.89029e-05
0.000185171
0.000216879
0.000246987
0.000194574
0.000142165
0.000191028
3.45487e-05
0.000200296
2.92181e-05
0.000139543
6.51892e-05
9.81075e-05
6.10099e-05
0.000105764
6.14447e-05
2.17821e-05
0.000125855
5.69213e-05
2.45427e-05
4.67038e-05
0.000126053
0.00021401
6.27296e-05
0.000128034
0.000178106
0.000214766
0.000201069
0.000186715
0.0002179
0.000187562
0.000160425
0.000208496
0.000162927
0.000199445
0.000190519
0.000230125
0.00022644
0.000223613
0.0002127
0.000208209
0.000191894
0.000233238
2.3746e-05
4.24788e-05
9.79392e-05
0.000571703
5.619e-05
0.000289307
0.000138277
0.000228376
0.000208148
0.000263173
0.000261086
0.000276874
0.000280649
0.000193252
0.000149693
0.000177836
0.000237366
0.000206145
0.000239813
0.000170086
0.000536707
0.000621087
0.000295979
0.000155802
0.000281571
0.000287192
0.0243737
0
0.0867742
0.0569498
0.0224406
0
0.00226632
0.00901819
0.00196914
0.00140905
0
0
0
0
0
0
0
0
0
0
0.00591741
0
0.00546532
0
0.00948074
0.0131539
0
0
0
0
0
0
0
0
0
0
0
0
0
0
3.46619e-05
6.41992e-05
0.000100052
9.00716e-05
0.000112123
0.000136754
3.02437e-05
7.62136e-05
0.000186857
0.000136836
0.000133926
0.000224786
0.000205438
0.000185477
0.000143198
0.0001483
0.000201486
0.000185015
0.000132039
0.000109502
0.000112138
0.000149863
0
0
0
0
0
0
0
0
0
0
0
0
0
0
0
0
0
0
0
0
0
0
0
0
0.0559996
0.00541081
0.000221884
0.00107014
0.000761829
0.000414376
0.000309498
0.000403127
0.000401198
0.000328852
0.00024958
0.0003231
0.000175156
0.000231266
0.000188212
0.000109436
5.51468e-05
0.000128453
9.68754e-05
3.73277e-05
0.000180019
0.000103032
6.72041e-05
8.31886e-05
0.00245849
0
0
0
0
0
0
0
0
0
0
0
0
0
0
0
0
5.13541e-05
8.21291e-05
5.21194e-05
6.23364e-05
7.46993e-05
6.4089e-05
0.000103283
5.91817e-05
0.000124893
9.92659e-05
0.000121395
0.000152071
0.000253155
0.000199692
0.000225261
0.000200893
0.000270245
0.000254349
0.000288757
0.000291869
0.000196776
0.000168219
0.000197373
0.000248138
0.000127566
0.000148611
0.000165452
0.000166854
9.39376e-05
0.000195198
0.000214215
0.000159366
0.000194049
0.000222511
0.000195514
0.000195129
0.000217948
0.000242318
0.000190996
0.0001804
0.000161097
0.000161297
0.000306869
0.000247995
0.00028831
0.000230891
0.000240575
0.000311893
0.000267424
0.000305366
0.000333466
0.000294719
0.000187024
0.000363194
5.18999e-05
0.000206577
0.000355853
0.000289933
0.000224306
0.000284942
0.000234868
0.000197641
0.000290597
0.000149239
0.000281523
6.15032e-05
0.000137565
0.000155727
0.000146846
2.83746e-05
0.000141618
0.000188632
0.000232001
0.000267359
0.000230359
0.000247659
0.000237052
0.000147354
9.29102e-05
0.000124654
0.000103505
7.15759e-05
3.20318e-05
9.69725e-05
9.73791e-05
3.68541e-05
3.92617e-05
8.03912e-05
4.69774e-05
9.3851e-05
7.34347e-05
0.000161181
0.000122333
0.000207264
0.000114928
8.22301e-05
0.000135107
0.000222271
0.000156954
0.00020547
0.000152161
0.000186149
0.000178859
0.000200655
0.000142324
0.00017156
0.000192244
0.000185675
0.000160225
0.000170964
0.000167234
0.000179401
0.000164548
0.000174914
0.000153107
0.000142092
0.000154372
0.000177223
0.000172712
0.000175889
0.000162634
0.000158477
0.00016539
0.000159821
0.000154326
0.000175729
0.000158762
0.000169221
0.000157724
0.000184505
0.000184404
0.000168309
0.000156119
0.000177609
0.000172891
0.000153722
0.000156973
0.000180944
0.000163106
0.00016438
0.000181598
0.000188409
0.000167042
0.000188172
0.000177482
0.00020178
0.000199261
0.000177956
0.000200716
0.000203966
0.000206019
0.000208877
0.000194624
0.000196041
0.000165986
0.000262546
0.000359543
0.000115798
0.000113691
0.000262744
0.000189785
0.000188789
0.000245772
0.000225693
0.000186438
0.00013743
0.000326209
0.000250415
0.000245641
0.000172599
0.000168657
0.000214768
0.000182357
0.000143684
9.68263e-05
0.000155721
0.00065542
0.000936425
0.000283744
0.00088001
0.000314028
0.000455676
0
0
0
0
0.918763
0
0.0130275
0.00383301
0.0041191
0.0033044
0
0
0
0
0.00723209
0
0
0
0
0
0
0
0
0
0
0
0
0
0
0
0
0.000649361
0
0.000604228
0
0
0
0
0.00572717
0
0.00956555
0.00942929
0
0.00161962
0.00371639
0.0117123
0
0
0
0
0
0
0
0
0
0
0
0
0
0
0
0
0
0
0
0
9.90354e-05
0.000114934
0.000129886
0.000149823
8.12255e-05
0.000196588
8.67427e-05
0.000234194
0.000185626
0.000168372
0.000120631
0.000102664
0.000177573
0.000161525
0.000127211
9.17667e-05
8.32307e-05
0.000215323
0.000151473
0.00011733
0.000185448
0.000106353
0
0
0.00390666
0.00288453
0
0
0
0
0.00691647
0
0
0
0
0
0
0
0
0
0
0.0439407
0.00114944
0.00228864
0.000213791
0.000641384
0.000446408
0.000694911
0.000433163
0.000350173
0.000261516
0.000426536
0.000217915
0.000107058
4.29519e-05
0.000192775
0.000149498
5.19083e-05
8.36332e-05
0.000132455
0.000138685
2.33114e-05
0.000148285
0.00010995
0.000142568
3.87287e-05
0
0
0
0
0
6.06242e-05
0
0
3.54054e-05
0
0
0
0
0
0
0
0
0
0
0
0
0
0
0
0.539289
5.48963
5.59768e-05
0.000103148
7.44261e-05
8.54927e-05
8.28758e-05
8.26572e-05
9.37667e-05
0.00012441
0.000150184
0.000132937
0.000165144
0.000160014
0.000276857
0.000252374
0.00030627
0.000296665
0.000303721
0.000318456
0.000317568
0.000314337
0.000235594
0.000214919
0.000235714
0.000265831
0.000165618
0.000191344
0.000152277
0.000220854
0.00025217
0.00015339
0.000153608
0.00024495
0.000164872
0.000167047
0.000206531
0.000249721
0.000231755
0.000257416
0.000167005
0.000216892
0.000184058
0.000169922
0.000173397
0.000184779
0.000194109
0.000191022
0.000195335
0.000192145
0.000193097
0.000191384
0.000207068
0.000208144
0.000211792
0.000205199
0.00020445
0.000202739
0.000206293
0.000201163
0.00019686
0.000198758
0.000195544
0.000193552
0.000258846
0.000311362
0.000287452
0.000225318
0.000269845
0.000300096
0.000288192
0.000292378
0.000336319
0.000328528
0.000126418
0.000353622
0.000221124
0.000120822
0.0002391
0.000248708
0.000227502
9.45856e-05
0.000241619
0.000122682
0.000148766
0.000356432
0.000239637
0.000203339
0.000230529
0.000113922
0.000201969
0.000255942
0.000192392
0.00026477
0.000205059
0.000260878
0.00025411
0.000218062
0.000141961
0.000162081
0.000102035
0.000158138
5.2086e-05
7.02107e-05
0.000109238
0.000101218
3.09212e-05
6.58332e-05
6.77188e-05
3.94467e-05
0.000114
6.5531e-05
2.61567e-05
0.000124728
9.04728e-05
0.000142555
0.000159283
8.15652e-05
0.000181841
0.000128445
9.67519e-05
0.000149567
0.000104866
0.000162091
0.000163711
0.000171009
0.000160782
0.000139446
0.000186901
0.000165015
0.000155484
0.000172868
0.000173214
0.000150009
0.000146085
0.000132554
0.000152716
0.000153766
0.000149751
0.000169901
0.000155078
0.000147898
0.000158588
0.000148834
0.000147699
0.00014033
0.000146456
0.000152308
0.000156173
0.000159667
0.000154977
0.00017297
0.000190542
0.000169413
0.000184138
0.000199371
0.000194145
0.000190155
0.000199679
0.000201342
0.000189003
0.000197787
0.000187473
0.000183254
0.000192526
0.000185559
0.000184273
0.000190683
0.000114116
0.000230899
0.0001324
0.000171361
6.83926e-05
0.000247702
0.000263149
8.22968e-05
8.36133e-05
0.000214131
0.000276265
0.000205457
0.000124228
0.000126794
0.000687634
0.000347962
0.00017285
0.000209398
0.000220045
0.000176896
0.000155835
0.000127961
0.00016585
0.00017897
0.00632769
0.00063847
0.000924087
5.13917e-05
0.000535584
0.000820872
0
0
0
0
0
0
0.032646
0
0.0126976
0
0
0.0098251
0
0
0
0
0
0
0
0
7.24728e-05
0
0
0
0
0
0
0
0
0
0
0
0
0
0
0.0535063
0
0
0
0
0
0
0
0
0
0
0
0
0
0
0
0
0
0
0.000195008
0.00010144
0.000131488
0.000168548
3.31632e-05
0.000158006
7.29062e-05
0.000143787
0.000138761
0.000149576
0.000183922
0.000238942
0.000177772
0.00015784
6.60162e-05
0.000134737
6.97776e-05
0.000156257
0.000148478
0.000185436
0.000192012
0.000154826
0.00232408
0
0.000163967
0
0
0
0
0
0
0
0
0
0
0
0
0
0
0
0
0.00279433
0.00162595
0.000667067
0.000629779
0.000221442
0.000406232
0.000486917
0.00036834
0.000420654
0.000302576
0.000413582
0.000379407
0.00024236
0.000326964
0.000134809
0.000181099
0.000179816
0.000228636
4.85188e-05
0.000134819
4.96576e-05
0.000284888
0.000103893
8.83779e-05
0.000169799
0
0
0
0
0
0
0
0
0
0
0
0
0
0
0
0
0
0
0
0
0
0
0.500041
0
0
0
0
0
0
0
0
6.2359e-05
0.000120816
0.000101723
6.96017e-05
4.5699e-05
9.21537e-05
0.000100168
0.000103056
9.45306e-05
0.000181016
6.2987e-05
0.000145856
0.000121819
0.000142229
0.0001607
0.000272783
0.000316877
0.00036067
0.000314537
0.000328495
0.000385909
0.000376388
0.00039078
0.000173544
0.000260105
0.000289906
0.000216447
0.000158632
0.000157506
0.000234608
0.0001513
0.00014041
0.000259354
0.000303798
0.000200398
0.000137768
0.000174438
0.000140407
0.00015605
0.000171048
0.000151678
0.000146055
0.000142704
0.000151745
0.0001673
0.000153269
0.000162376
0.000163969
0.000165955
0.000175423
0.000175489
0.000172246
0.000176774
0.000179084
0.000162137
0.000169549
0.00017343
0.000162909
0.000166387
0.000173789
0.000172373
0.00011832
0.000172515
0.000182876
0.000196778
0.000188333
0.000183632
0.000191195
0.000175182
0.00017299
0.000169034
0.000196909
0.000211978
0.000249812
0.000269988
0.000231933
0.000190817
0.000212532
0.000183937
0.000172286
0.000180187
0.000152779
0.000206057
0.000196359
0.00020528
0.000196881
0.000217345
0.000220198
0.000233397
0.000227588
0.000218292
0.000212102
0.000194702
0.000196505
0.000191316
0.00018844
0.000186089
0.000186748
0.000262334
0.000281368
0.00030799
0.000299708
0.000299245
0.000252273
0.000257932
0.000317976
0.000312107
0.00037844
0.00039353
0.000188583
0.000180712
0.00018126
0.000178365
0.000177063
0.000180023
0.000178542
0.000171745
0.000178113
0.00017109
0.000171708
0.000176369
0.00017088
0.000167728
0.000170191
0.000146396
0.000168799
0.00017718
7.20075e-05
0.000192064
0.000296576
0.000292306
0.000188335
0.000171709
0.000265754
0.0001435
0.000216248
0.000328585
0.000245024
0.000256009
0.000317132
0.000144053
0.000263851
0.000413763
0.00037904
0.000303631
0.000156047
0.000310884
0.000236601
0.000268369
0.000141518
0.000128391
0.000241464
9.21437e-05
0.000137555
7.10052e-05
0.000158402
7.68137e-05
7.20975e-05
3.96935e-05
0.000115978
5.5992e-05
0.000126683
5.58494e-05
9.38362e-05
2.62027e-05
5.41206e-05
6.64118e-05
0.000106812
0.000114904
6.30276e-05
6.45314e-05
0.000122469
0.000120431
0.000100663
9.97793e-05
0.000127082
0.000139555
0.00015631
0.000145199
0.000130826
0.000137717
0.000139603
0.000141531
0.000158945
0.000151467
0.000174105
0.000133574
0.000156226
0.000155063
0.000143697
0.000158576
0.000145788
0.000137845
0.000137721
0.000144672
0.000134996
0.000132434
0.000134746
0.000129664
0.000141617
0.000147979
0.000148715
0.000143432
0.000166553
0.000149951
0.000167227
0.000184793
0.000191924
0.000180873
0.000190203
0.000184674
0.000183427
0.000105654
0.000215168
0.000227811
0.000330758
9.93443e-05
0.000240401
0.000180458
0.000264573
0.00010046
0.000215432
0.000220957
0.000173702
0.000291232
0.000284502
0.000130359
0.000130376
0.000446286
0.000155223
0.000436813
0.000423295
0.000392887
0.000378881
0.000128358
0.000699258
0.000456415
0.00106258
0.000650359
0.00143508
0.00408995
0.00920246
8.05367e-05
0.0017624
0.00073492
0.0007589
0
0
0
0
0
0
0
0
0.0146711
0
0
0
0
0
0
0
0
0.20098
0
0
0
0
0
0
0
0
0
0
0
0
0.00122484
0
0
0
0
0
0
0
0
0
0
0
0
0
0
0
0
0
0
0
0
0
0
0
0
0.00198985
0
0
0
0
0.00217857
0.00014446
0.000181845
0.000152212
0.000175341
0.000144797
0.0001771
0.000119047
0.000262157
0.000167544
6.92925e-05
7.93201e-05
4.43607e-05
8.23472e-05
0.00017337
0.000170781
0.000107616
0.000212622
0.000186298
0.000217979
0.000251062
0.00012089
0.000203865
0.000205337
6.27196e-05
0.000196302
0
0
0
0
0
0
0
0
0
0
0
0
0
0.000431856
0.00032734
0.000397983
0
0
0.0877412
0.032096
0.00228632
0.00250962
0.000282905
0.000793936
0.00067826
0.000228698
0.000252992
0.000277237
0.000168814
0.000104022
8.17341e-05
1.99304e-05
0.000261804
0.000138957
4.43391e-05
0.000203704
0.000126053
9.44963e-05
9.58356e-05
0.00011082
0.000219917
8.7745e-05
0.000115569
0
0.000970715
0
0
0
0
0
0
0
0
0
0
0
0
0
0
0
0
0
0
0
0
0
0
0
0
0
0
0
0
0
0
0
0
0
0
0
9.27734e-05
0.000108163
0.000214513
5.63148e-05
0.000131053
4.10092e-05
0.000110726
3.33553e-05
0.000126615
0.000144645
5.14753e-05
0.000172422
6.39438e-05
7.04567e-05
0.000152919
0.00015181
8.21411e-05
0.000310287
0.000357995
0.000396688
0.000437843
0.000406666
0.000463169
0.000433545
0.000426578
0.000254851
0.000364616
0.000333002
0.000305654
0.000196174
0.000117012
0.000325171
0.000195166
0.00021489
0.00036495
0.000300629
0.000355175
0.000175768
0.000152614
0.000173231
0.000147699
0.000140712
0.000179211
0.000142973
0.000152789
0.000164329
0.000165003
0.00015693
0.000167932
0.0001585
0.000161385
0.000159489
0.000170954
0.000182994
0.000192
0.000181808
0.00017449
0.000166447
0.000167706
0.000188338
0.000207047
0.000236188
0.000201479
0.000253847
0.00028824
0.000222381
0.000218168
0.000182345
0.000217277
0.000183671
0.000191961
0.000183325
0.00020887
0.000215994
0.000214594
0.000212241
0.000225629
0.000229079
0.000240233
0.000244054
0.000228444
0.000228175
0.000200903
0.000199673
0.000187848
0.000186414
0.000183511
0.000189695
0.000187719
0.000185808
0.000296921
0.000351483
0.000284189
0.000263642
0.00033623
0.000333278
0.000254031
0.000283768
0.00036176
0.000340512
0.000398188
0.000399087
0.00019131
0.000194468
0.000188611
0.000186424
0.000183666
0.00018458
0.000184116
0.000182506
0.000177204
0.000177385
0.000180308
0.000162068
0.000175077
0.000177305
0.000173063
0.000191884
0.000179739
0.000167069
0.000170838
0.000191686
0.000190666
0.000187445
0.000193908
0.000125315
0.000186739
0.00034787
0.000323613
8.46648e-05
0.000146706
0.000185877
0.000161214
0.000359469
0.00024368
0.000305977
0.000306401
0.000221101
0.000352559
0.000233539
0.000381396
0.000505276
0.0003433
0.000255171
0.000419978
0.000119188
0.000399055
0.000167746
0.000205655
0.000180977
0.000129316
0.000196186
0.000183835
9.18779e-05
0.000123271
0.000142839
0.000139172
4.82545e-05
8.31812e-05
0.000111041
7.09138e-05
6.29283e-05
5.88758e-05
5.61092e-05
0.000113626
5.38099e-05
9.74704e-05
7.09707e-05
8.1269e-05
4.25896e-05
3.46181e-05
0.000102581
8.16947e-05
8.05532e-05
9.61915e-05
0.000108824
0.000134736
0.000125355
0.000116906
0.000137354
0.000100372
0.00013404
0.000145297
0.000138378
0.000143755
0.000160362
0.000110904
0.000150899
0.000125209
0.000126406
0.000113878
0.000122631
0.000121727
0.000115466
0.000113216
0.000113273
0.000129947
0.000120877
0.000127204
0.000133874
0.000130363
0.000139632
0.000145124
0.000159871
0.000176914
0.000159323
0.000189618
0.000174484
0.000187155
0.00162558
0.000716182
0.000719678
0.000382717
0.000316706
0.000317404
0.000378619
0.000456035
0.000307818
0.000220995
0.000315332
0.000281799
0.000514618
0.000174103
0.000549554
0.000709952
2.83541e-05
0.00296125
0.0126297
0.000729683
0.00137325
0.00103353
0.00167688
0.00226648
0.00338995
0.0156956
0.0188361
0.0033477
0.00591831
0.00527103
0.0376475
0.00765615
0.015746
0.00356514
0.0110575
0.0218589
0
0
0
0
0
0
0.289587
0
0
0.0769996
0
0
0
0
0
0.316394
0
0
0
0
0.00313668
0
0
0
0
0
0
0
0.00515436
0.00476647
0
0
0
0.0519619
0
0
0
0
0.00514047
0
0.006658
0
0
0
0
0
0
0
0
0
0
0
0
0
0
0
0
0
0.0034141
0
0
0
0
0
0
0
0
0.000178873
0.000224181
0.000161455
0.000162638
0.000209066
0.000250948
0.000147338
0.000139143
0.000151405
0.000169529
0.000253567
0.00012551
8.64726e-05
0.000148567
6.73072e-05
6.72787e-05
0.000131387
7.79194e-05
0.000138848
0.00027362
3.02253e-05
0.000196638
0.000166268
0.000239901
0.00024397
0.000136377
0.000253079
0
0
0
0
0
0
0
0.000394264
0.000328569
0.000313138
0
0
0
0
0.000289561
0.000573622
0.0115946
0.0874182
0.00862784
0.00166181
0.000465522
0.000469054
0.00032435
0.000895466
0.000346391
0.00017555
0.000288677
5.84508e-05
0.000277176
0.000266145
0.000266888
0.000195994
9.41352e-05
0.00013778
6.23967e-05
0.000212666
0.000291184
0.000175835
6.81628e-05
0.000184291
0.000266549
0
0
0.000918654
0
0
0
0
0.00270575
0
0
0
0
0
0
0
0
0
0
0
0
0
0
0
0
0
0
0
0
0
0
0
0
0
0
0
0
0
0
0
0
0
0
0
0
0
0.000112477
0.000210116
0.000137047
0.000102111
0.000213055
3.47989e-05
0.000161774
0.000186744
7.04269e-05
6.95412e-05
0.00019856
4.35821e-05
0.000156564
0.000211861
8.91468e-05
6.2185e-05
0.000155004
0.000133268
0.000207539
0.00041933
0.000359209
0.000451679
0.00046788
0.000439765
0.000468542
0.000429033
0.000467636
0.000346463
0.000380129
0.000386634
0.000381281
0.000181457
0.000266253
0.000295037
0.000346312
0.000365154
0.000267714
0.000285454
0.000411393
0.000103119
0.000142925
0.000163801
0.000136752
0.000148595
0.000200582
0.000256176
0.000178243
0.000248084
8.36147e-05
6.38151e-05
6.48602e-05
0.000172204
4.82375e-05
0.0001644
0.000164655
0.000161179
0.000164603
0.000154379
0.000160579
0.000152447
0.000123329
0.000175557
0.000181135
0.000171904
0.000174947
0.000168365
0.000165927
0.000216579
0.000233357
0.000253048
0.000221272
0.000260897
0.000272558
0.000233683
0.000226719
0.000194758
0.000209472
0.000202442
0.000209247
0.000232268
0.000226822
0.00023863
0.000230399
0.000246535
0.000238442
0.000237959
0.000230139
0.000206098
0.000210442
0.000193179
0.000197669
0.000194469
0.000192737
0.000177788
0.000173974
0.000174919
0.000175927
0.000380024
0.00033827
0.000297642
0.000270778
0.000325724
0.000332196
0.00026561
0.000280127
0.000332801
0.00037617
0.000350434
0.000406305
0.000185228
0.000186003
0.000192201
0.000190943
0.00018559
0.000187119
0.000191767
0.000183381
0.000189721
0.000182974
0.000185804
0.000181563
0.000185363
0.00018952
0.000181186
0.000179979
0.000187698
0.000195802
0.000192604
0.000174377
0.000187306
0.000183065
0.000183564
0.000198318
0.000173731
0.000577885
0.000355314
0.000184495
0.000390951
3.54222e-05
0.000210376
0.000472635
0.000441042
0.000413819
0.000472705
0.000272512
0.000449217
0.000589839
0.000496863
0.000509432
0.000618432
0.000341653
0.000392705
0.000218684
0.000192012
0.000165805
0.000124265
0.000112371
0.000198073
0.000213163
0.000180036
0.00026007
0.000129807
0.000146238
6.48004e-05
2.63317e-05
0.000144754
3.96264e-05
5.7745e-05
5.98508e-05
6.11064e-05
6.96367e-05
2.30081e-05
5.44161e-05
1.80357e-05
4.99239e-05
7.00909e-05
5.64342e-05
2.83214e-05
9.88907e-05
9.82613e-05
9.71478e-05
5.8793e-05
0.000123265
0.000102445
0.000131631
0.000122776
0.000111892
0.000116423
0.000105745
0.000145275
0.000128535
0.000131281
0.000121863
0.000122042
0.000100404
9.79315e-05
9.54355e-05
0.000110566
9.84554e-05
0.000103262
0.000103444
0.000105512
0.000117063
0.000109049
0.000112125
0.000116723
0.000124243
0.000127671
0.0001397
0.000148302
0.000165456
0.00015477
0.000178284
0.00851524
0.00837814
0.00675238
0.0100169
0.00213107
0.000974793
0.00113888
0.00020488
0.000516168
0.000279903
0.000635195
0.00042784
0.000242322
0.000365141
0.000916249
0.000992286
7.87456e-05
0.000268612
0.00100268
0.00200064
0.0171723
0
0.0607565
0.0129746
0.0166639
0.0172977
0.0157638
0.0220269
0.0279413
0
0
0
0
0
0
0.24128
0
0
0
0
0
0
0.395048
0
0
0
0
0
0
0
0
0
0
0
0
0
0
0
0
0
0
0
0
0
0
0
0
0
0
0
0
0
0
0
0
0
0
0
0
0
0
0
0
0
0
0
0
0
0
0
0
0
0
0
0
0
0
0
0
0
0
0
0
0
0
0
0
0
0
0
0
0
6.63869e-05
0
0
0
0
0.000201178
0.000164959
0.000188067
0.000226836
7.80115e-05
0.000131119
0.000150625
0.000190247
9.31792e-05
0.000202565
0.000101437
0.000193614
0.000204349
0.000229288
4.95606e-05
0.000215104
0.000187034
0.00013787
6.82994e-05
0.000109506
0.000101776
4.2416e-05
0.000205767
0.000215492
0.000161899
0.000227516
0.000235335
0.000146584
0.000226856
0
0
0
0
0.000357603
0.00025129
0.000316885
0
0
0.0002528
0.000327212
0
0.00570079
0
0
0.000430577
0.000208647
0.0129055
0.00644631
0.00237085
0.00305659
0.000382673
0.000491498
0.000334061
8.03237e-05
0.000328178
0.000273956
0.000119547
0.00010978
0.000206073
0.000150061
0.000142139
0.000244757
0.000177063
0.000142705
0.000161644
0.000192328
0.00017764
0.000131625
8.33169e-05
0
0
0
0
0
0
0
0
0
0.382141
0
0.0795375
0
0
0
0.0298347
0.0166409
0.0237789
0
0
0.0300156
0
0
0
0
0
0
0
0
0
0
0
0
0
0
0
0.00962882
0
0.00316197
0
0
0
0
0.975386
0
0
0
0
0.179573
0.415904
0.0232024
0
0
0
0
0
0
0.000199827
0.000188462
0.00021173
0.000220258
0.000168593
0.000199801
0.000158998
0.000128616
0.000195816
0.000161227
0.000154116
0.000169896
0.000127767
0.000116127
0.000246538
0.000197586
0.000137542
0.000300956
0.000161435
0.000243982
0.000289773
0.000512482
0.000474515
0.000561995
0.000475853
0.000422445
0.000515201
0.000513996
0.000534951
0.000507618
0.00045139
0.000510681
0.000535275
0.000306752
0.000282298
0.00024479
0.000373197
0.000479031
0.000194354
0.000603716
0.000366791
0.000157532
0.000208304
4.44756e-05
0.00024588
0.000466669
0.000236435
0.000328348
0.000160374
8.61287e-05
0.000297927
0.000142933
0.000161612
0.000206318
0.000161952
0.000160337
0.000156444
0.000156452
0.000161416
0.000168788
0.000288931
0.000166707
0.000173958
0.000172101
0.000166977
0.000169664
0.000161928
0.000162825
0.000209434
0.000222603
0.000232033
0.000244012
0.000241632
0.000275072
0.000230828
0.000221441
0.00021513
0.000235884
0.000210697
0.000214748
0.000244023
0.000247335
0.00025916
0.000266737
0.000230046
0.00024599
0.000223115
0.000212867
0.000202438
0.000204659
0.00020332
0.000204306
0.000182389
0.000181595
0.000172754
0.000174263
0.000182635
0.000177098
0.000355596
0.000361371
0.000303827
0.000300083
0.000329484
0.000297008
0.00030062
0.000291206
0.000359471
0.000334828
0.000360979
0.000441213
0.000593551
0.000562821
0.000479513
0.000158882
0.000178965
0.000182944
0.000175382
0.000180875
0.000184832
0.000182345
0.000177574
0.000182226
0.000178796
0.000184601
0.000192214
0.000185534
0.000184736
0.000186195
0.000184574
0.00019721
0.000195082
0.000199103
0.000190595
0.000181171
0.000198393
0.000177475
0.000178506
0.000177257
0.000199846
0.00103734
0.000753378
0.000645808
0.000454886
0.000666877
0.000476642
0.000500545
0.000564615
0.000406673
0.000543433
0.00107033
0.000286338
0.000168589
0.000225261
0.000461982
0.000547099
0.000770759
0.000399508
0.000200835
0.000121642
0.000193973
1.61966e-05
8.4136e-05
0.000167057
0.000193231
0.000209109
0.000170916
0.00010478
0.000140624
0.000255118
0.000158916
9.18938e-05
3.98533e-05
0.000132983
6.76013e-05
1.61894e-05
4.02531e-05
5.38141e-05
2.86968e-06
5.4588e-05
5.16874e-05
5.38105e-05
3.50271e-05
2.00047e-05
0.000106615
9.93096e-05
5.54625e-05
9.85345e-05
8.21725e-05
9.42246e-05
0.000122728
0.000132526
0.000116903
9.52621e-05
0.000110126
0.000121826
0.000109561
0.000123948
0.000105461
9.78904e-05
8.24836e-05
9.56431e-05
8.24334e-05
9.82834e-05
9.09549e-05
8.95878e-05
9.93774e-05
9.84322e-05
0.000101028
0.000105238
0.00010678
0.000110665
0.000122055
0.000130838
0.000150122
0.000140052
0.000165731
0.000160205
0.0305214
0.0408217
0.0195713
0.0185224
0.0203077
0.00694312
0.0372015
0.00183995
0.0513293
0.00106942
0.00064331
0.011359
0.00260182
0.000361052
0.000289954
0.000332022
0.000488965
0.000280453
0.000781289
0.000970561
0.00098316
0
0
0
0
0
0.0257759
0
0
0
0
0
0
0
0
0.332127
0
0
0
0.138674
0
0
0
0
0
0
0
0
0
0
0
0
0
0
0
0
0
0
0.0694907
0
0
0
0
0
0.00179274
0.00246223
0.0039158
0
0
0
0
0
0
0
0
0
0
0
0
0
0
0
0
0
0
0
0
0
0
0
0
0
0
0
0
0
0
0
0
0
0
0
0
0
0
0
0
0
0.00534877
0
0.00286538
0
0.010183
0
0
0
0.000176393
0.000172415
0.000190234
0.000129453
0.000180856
0.000127194
0.000156567
0.000217375
0.000134752
8.32324e-05
0.000180027
0.000211977
0.000272128
0.00018413
0.00014476
2.78357e-05
0.000102177
0.00019788
0.000149247
9.97923e-05
0.000248494
0.000228021
0.000152183
0.000149908
7.3901e-05
0.000159121