/*--------------------------------*- C++ -*----------------------------------*\
  =========                 |
  \\      /  F ield         | OpenFOAM: The Open Source CFD Toolbox
   \\    /   O peration     | Website:  https://openfoam.org
    \\  /    A nd           | Version:  8
     \\/     M anipulation  |
\*---------------------------------------------------------------------------*/
FoamFile
{
    version     2.0;
    format      ascii;
    class       volScalarField;
    location    "19980";
    object      Hclip;
}
// * * * * * * * * * * * * * * * * * * * * * * * * * * * * * * * * * * * * * //

dimensions      [0 1 0 0 0 0 0];

internalField   nonuniform List<scalar> 
526318
(
1.82448
1.77413
1.84093
1.75732
1.82839
1.79357
1.79415
1.72425
1.79159
1.65986
1.64123
1.7602
1.70117
1.73454
1.70742
1.7241
1.70744
1.90619
1.79775
1.86289
1.83982
1.80188
1.55617
1.80305
1.68748
1.5649
1.82935
1.8295
1.83728
1.84072
1.87686
1.91918
1.89885
1.78542
1.7656
1.78463
1.76488
1.83861
1.76968
1.72694
1.77966
1.76972
1.41731
1.47745
1.37985
1.42202
1.40761
1.50903
1.69901
1.59999
1.69196
1.70248
1.65072
1.59952
1.09618
1.35145
1.33598
1.14642
1.85197
1.87724
1.89242
1.83618
1.78932
1.92462
1.90768
1.88649
1.85519
1.86172
1.76904
1.76844
1.87122
1.64794
1.70597
1.59517
1.54577
1.53339
1.6399
1.62161
1.5552
1.59249
1.67861
1.67149
1.62701
1.57806
1.60588
1.67941
1.67092
1.64883
1.60152
1.67598
1.5837
1.5303
1.52758
1.45048
1.45316
1.45245
1.45619
1.45438
1.45288
1.44783
0.885618
0.82918
0.915911
0.953728
1.00919
0.791489
1.35487
1.17419
1.4789
1.45219
1.50265
1.60385
1.82502
1.71754
1.8338
1.8445
1.89934
1.88226
1.93133
1.442
1.44236
1.44974
1.45127
1.4097
1.44898
1.35648
1.40124
1.31041
1.35787
1.31043
1.30837
1.30019
1.27549
1.26626
1.29265
1.23398
1.28789
1.23839
1.25659
1.20045
1.20731
1.22752
1.25644
1.24229
1.20013
1.19967
1.21784
1.20885
1.19787
1.20893
1.21927
1.21743
1.20547
1.20464
1.20929
1.18678
1.21995
1.23214
1.16299
1.14386
1.2013
1.1608
1.20445
1.70332
1.80786
1.74974
1.72654
1.54119
1.6052
1.54362
1.54181
1.53822
1.53518
1.56465
1.54074
1.47559
1.44773
1.412
1.35427
1.41132
1.45721
1.45786
1.45341
1.34281
1.3912
1.28145
1.29043
1.29863
1.289
1.29073
1.29454
1.28298
1.28351
1.2776
1.27053
1.2531
1.27079
1.26703
1.24451
1.21624
1.24419
1.21693
1.23202
1.24589
1.23603
1.23928
1.20342
1.21589
1.2489
1.24554
1.70603
1.72224
1.73907
1.73152
1.69092
1.70758
1.71182
1.54571
1.62682
1.35812
1.34393
1.34001
1.46562
1.59258
1.47496
1.49821
1.51727
1.45794
1.44209
0.937697
0.747738
1.08737
1.28004
0.537772
0.376726
0.676341
0.775997
0.741067
0.745467
1.89919
1.9073
1.94145
1.93199
1.89776
1.88018
1.80244
1.87876
1.73294
1.67434
1.67613
1.67622
1.67075
1.67317
1.66759
1.66319
1.57976
1.64207
1.46066
1.51811
1.44623
1.4608
0.262895
0.186743
0.644653
0.423886
0.921344
0.866717
0.926019
1.07033
1.44986
1.27525
1.50196
1.50866
1.62418
1.71684
1.85442
1.84518
1.87362
1.84813
1.92964
1.95833
1.42674
1.42426
1.38728
1.3574
1.25648
1.29333
1.2181
1.22858
1.21825
1.21127
1.20123
1.20608
1.13248
1.15599
1.19208
1.22812
1.28321
1.24967
1.21292
1.2078
1.14867
1.13336
1.1861
1.24024
1.16266
1.20299
1.199
1.1743
1.16142
1.13217
1.13836
1.09387
1.09113
1.10037
1.08492
1.20922
1.24533
1.21048
1.25031
1.61275
1.57712
1.47225
1.55926
1.47505
1.52741
1.54314
1.52353
1.54297
1.54184
1.45552
1.36357
1.29447
1.279
1.35324
1.29714
1.28037
1.3935
1.28528
1.33345
1.27273
1.27198
1.27995
1.27021
1.28576
1.28136
1.27736
1.28163
1.28147
1.27732
1.29318
1.27982
1.29849
1.29045
1.29294
1.27657
1.29036
1.27201
1.24911
1.24652
1.27206
1.29986
1.29612
1.27204
1.25061
1.28066
1.32029
1.32017
1.33053
1.29291
1.32637
1.34407
1.38293
1.33458
1.33898
1.36376
1.39792
1.52681
1.56866
1.51609
1.53436
1.59256
1.68021
1.58743
1.44799
1.57324
1.48223
1.49897
1.22738
1.17619
1.21002
1.19091
1.30758
1.43611
1.36434
1.43186
1.43125
1.45942
1.42172
0.710228
0.846524
1.00164
0.84914
1.08583
0.975078
0.10584
0.266672
0.199241
0.120283
0.0287862
0.273138
0.499367
0.735434
0.622817
0.643163
1.91841
1.9342
1.97037
1.94961
1.92703
1.90352
1.82253
1.73728
1.68418
1.68584
1.6674
1.65919
1.6469
1.64925
1.62308
1.62466
1.57219
1.61673
1.54023
1.48764
1.42826
1.3825
0.001
0.00107022
0.00107023
0.001
0.001
0.001
0.001
0.00107022
0.00107034
0.00107025
0.10438
0.001
0.001
0.001
0.0639009
0.001
0.159832
0.262235
0.271821
0.434029
0.888528
0.676662
0.990145
0.95975
1.15384
1.00899
1.37321
1.52317
1.54871
1.62631
1.85087
1.74919
1.87316
1.86869
1.88283
1.92238
1.93651
1.95858
1.34525
1.34538
1.29817
1.32545
1.26452
1.22753
1.21788
1.2186
1.2111
1.21849
1.17
1.16468
1.11249
1.12821
1.18304
1.15527
1.12516
1.17148
1.1669
1.18562
1.0941
1.08523
1.10886
1.12229
1.11997
1.0769
1.08396
1.07932
1.08469
1.06756
1.06547
1.36552
1.3401
1.3406
1.34084
1.36083
1.46962
1.42499
1.4032
1.28654
1.33001
1.31633
1.31998
1.21798
1.15481
1.33468
1.44932
1.33047
1.34257
1.32189
1.40139
1.38338
1.45727
1.48739
1.41383
1.39455
1.42747
1.30754
1.2771
1.27935
1.27736
1.19418
1.24885
1.174
1.12574
1.10628
1.22355
1.22418
1.27082
1.27137
1.27265
1.27091
1.26997
1.27881
1.27284
1.28587
1.27323
1.29856
1.28528
1.29356
1.2993
1.32028
1.30674
1.33318
1.33436
1.28258
1.26951
1.33375
1.31471
1.30202
1.31925
1.30523
1.2899
1.34277
1.32133
1.42287
1.43237
1.38463
1.42436
1.43114
1.40089
1.49291
1.46276
1.53173
1.55306
1.57744
1.48889
1.49978
1.47958
1.47467
1.47077
1.42231
1.51268
1.35087
1.32983
1.37712
1.40072
1.07513
1.12326
1.20605
1.32565
1.35516
1.39746
1.30244
1.26204
1.22667
1.16836
0.533234
0.615328
0.890056
0.695615
1.00762
1.0719
0.0446861
0.001
0.0332685
0.0303428
0.166062
0.001
0.559754
0.321242
0.478712
0.47917
0.001
0.001
0.001
0.001
0.001
0.00101
0.001
0.001
0.001
0.001
0.00112039
0.001
0.00110199
0.001
0.00112033
0.00112089
0.001
0.001
0.001
0.001
0.001
0.001
0.001
0.001
0.00100959
0.001
0.00100965
0.001
0.001
0.001
1.93296
1.94177
1.97232
1.95892
1.93661
1.86975
1.66536
1.76247
1.6448
1.64416
1.62216
1.62516
1.61688
1.6143
1.61592
1.61233
1.55442
1.52224
1.42919
1.46812
1.32397
1.36483
0.001
0.001
0.001
0.001
0.001
0.001
0.001
0.001
0.00101
0.001
0.001
0.001
0.001
0.001
0.001
0.001
0.001
0.00100737
0.001
0.001
0.001
0.001
0.001
0.001
0.0452333
0.188346
0.357087
0.335371
0.396396
0.579112
1.02914
0.831012
1.04705
1.0434
1.3361
1.17696
1.54799
1.51817
1.58009
1.68235
1.78334
1.86469
1.88385
1.87196
1.91359
1.94473
1.93125
1.90913
0.00113079
0.001
0.001
0.001
0.001
0.001
0.001
0.001
0.001
0.001
0.001
0.001
0.001
0.001
0.001
0.00101
0.001
1.32412
1.32376
1.32426
1.28958
1.2102
1.2454
1.17073
1.16195
1.12751
1.12148
1.07722
1.07595
1.10865
1.10013
1.06161
1.09657
1.09175
1.14119
1.12342
1.12364
1.04669
1.0158
1.01513
1.06047
1.06806
1.06751
1.04265
1.04951
1.01103
0.996571
0.959324
0.968073
1.56506
1.53261
1.57332
1.58354
1.5311
1.48784
1.65881
1.67883
1.74386
1.75304
1.29881
1.3395
1.39048
1.47402
1.29503
1.2409
1.27681
1.27629
1.11355
1.16802
1.21932
1.10636
1.31692
1.31935
1.31996
1.31723
1.33932
1.31802
1.33474
1.35009
1.23133
1.22178
1.1243
1.20653
1.20032
1.16079
1.11137
1.13165
1.07142
1.09127
1.07298
1.15787
1.21758
1.15307
1.21976
1.26947
1.27209
1.27322
1.27179
1.27515
1.29907
1.28913
1.30489
1.30378
1.32211
1.31559
1.33831
1.33508
1.34071
1.33385
1.3452
1.34141
1.3825
1.35276
1.31918
1.32122
1.38648
1.35337
1.36426
1.39978
1.44393
1.44237
1.44488
1.44193
1.47338
1.52803
1.58695
1.60937
1.61822
1.59698
1.74002
1.67854
1.80632
1.84606
1.8366
1.87415
1.93052
1.79605
1.88111
1.90429
1.97757
2.02656
2.05278
2.0711
2.10169
2.04702
2.1027
2.06077
2.13776
2.13899
2.18942
2.15828
2.21784
2.25033
2.23843
2.18898
2.25283
2.27779
2.24138
2.2411
2.30417
2.28115
2.31427
2.25416
2.25516
2.31729
2.2865
2.23933
2.23986
2.27197
2.30305
1.29716
1.25839
1.43636
1.40982
1.39494
1.37852
1.36633
1.14566
1.28227
0.988098
1.01768
1.12397
1.10839
0.98296
1.06598
1.05148
1.2283
1.13252
1.12643
1.04031
1.03198
1.046
1.06427
0.591642
0.465936
0.864699
0.653857
0.861434
0.81424
0.001
0.001
0.001
0.001
0.00231782
0.001
0.195953
0.427593
0.338606
0.360546
0.001
0.001
0.001
0.001
0.00136002
0.001
0.001
0.001
0.001
0.001
0.001
0.001
0.001
0.001
0.00100829
0.001
0.001
0.001
0.0010095
0.001
0.001
0.00101981
0.001
0.00101522
0.001
0.001
0.00101
0.001
0.00103819
0.001
0.0010378
0.00103811
0.001
0.00103732
0.00103786
0.00103772
0.001
0.001
0.001
0.001
0.001
0.001
0.001
0.001
0.0010078
0.001
0.001
0.001
0.001
0.001
0.001
0.001
0.001
0.00101
0.001
0.001
1.92427
1.90024
1.89021
1.87273
1.8026
1.86408
1.69392
1.62324
1.6169
1.62215
1.61076
1.61552
1.5579
1.56066
1.40398
1.36424
1.32507
1.49646
1.49502
1.44909
1.4484
1.44411
0.001
0.001
0.00113442
0.00113441
0.001
0.001
0.001
0.001
0.00113442
0.001
0.001
0.00100893
0.001
0.001
0.001
0.001
0.001
0.001
0.001
0.0334765
0.424851
0.246037
0.45226
0.456948
0.695428
0.495197
0.892121
1.04726
1.17333
1.04608
1.33881
1.51086
1.53583
1.56586
1.66045
1.7702
1.82964
1.80938
1.8485
1.78261
1.84784
1.8814
1.83736
1.83651
0.00101
0.001
0.00100993
0.001
0.001
0.00119118
0.001
0.001
0.00119118
0.001
0.001
0.001
0.001
0.001
0.00101
0.001
0.001
0.001
0.00101
0.001
0.001
0.001
0.001
0.001
0.0022118
0.00100853
1.29835
1.2974
1.21826
1.23477
1.11384
1.13512
1.07316
1.07468
1.07216
1.07304
1.04666
1.0455
1.02067
1.01887
0.995756
1.0357
1.11457
1.07487
1.11448
1.11543
0.934625
0.957439
0.997849
0.976096
0.988529
0.986686
0.938206
0.927269
0.912801
0.928996
0.936454
0.932404
1.78777
1.78884
1.61574
1.5302
1.51546
1.50435
1.7847
1.6981
1.94211
2.0158
1.91296
1.84
2.02745
2.01303
2.07933
2.12423
2.15491
2.1574
2.18405
2.15922
2.21426
2.23925
2.23577
2.23529
2.25371
2.23928
2.23965
2.2851
2.22967
2.22431
1.34794
1.27643
1.41978
1.49086
1.27666
1.22163
1.27746
1.2754
1.10324
1.15901
0.990898
1.15928
1.04678
1.31537
1.25977
1.3252
1.3171
1.31723
1.21343
1.11713
1.03717
1.02516
1.0402
1.07444
1.00443
0.989966
0.91603
1.00714
1.08415
1.07843
0.996198
1.0981
1.16591
1.11357
1.21698
1.16862
1.20894
1.26247
1.30323
1.27936
1.30894
1.31075
1.32202
1.31331
1.34576
1.35273
1.35215
1.36966
1.37413
1.37116
1.40791
1.42057
1.40899
1.40463
1.40991
1.40251
1.41759
1.43494
1.48199
1.4773
1.44365
1.4749
1.4701
1.50259
1.53671
1.59811
1.63036
1.62894
1.64133
1.71097
1.79469
1.86558
1.87919
2.00368
1.87844
1.92891
2.07808
2.1026
2.10213
2.14027
2.18858
2.23875
2.24983
2.2536
2.28141
2.30957
2.33475
2.33493
2.33511
2.33458
2.33492
2.31782
2.25356
2.31688
2.28569
2.23932
2.24022
2.27143
2.30311
2.31369
2.2408
2.30164
2.26107
1.08603
1.07606
1.14724
1.22464
1.11494
1.18026
1.3279
1.25942
1.28093
1.11669
1.0194
0.985029
0.984251
1.08343
1.07858
0.741115
0.850171
1.03757
0.923618
1.03156
1.03771
1.04554
1.03209
1.04955
1.06668
0.261181
0.416444
0.512799
0.691756
0.710534
0.710499
0.001
0.001
0.001
0.00101
0.001
0.001
0.0509611
0.001
0.175237
0.001
0.001
0.00135986
0.001
0.00101
0.001
0.001
0.001
0.001
0.001
0.001
0.00105176
0.001
0.001
0.001
0.001
0.001
0.001
0.001
0.001
0.001
0.001
0.001
0.001
0.001
0.001
0.00101781
0.001
0.001
0.001
0.001
0.001
0.001
0.001
0.00101
0.001
0.00100962
0.001
0.001
0.001
0.001
0.001
0.001
0.001
0.001
1.82167
1.81522
1.81645
1.80706
1.75246
1.80324
1.61213
1.67475
1.57802
1.5758
1.51869
1.50171
1.44731
1.45063
1.36307
1.25736
1.2358
1.40157
1.44952
1.44506
1.44408
1.44649
0.00113448
0.001
0.00113448
0.001
0.001
0.001
0.001
0.001
0.00100548
0.001
0.001
0.001
0.001
0.001
0.001
0.00100999
0.001
0.001
0.001
0.135655
0.311636
0.455072
0.51746
0.473843
0.679163
0.860195
1.0093
1.04811
1.23975
1.07202
1.38474
1.5088
1.48824
1.59939
1.7612
1.66095
1.74962
1.75237
1.72792
1.76238
1.83223
1.80914
1.83067
1.80378
0.001
0.001
0.001
0.001
0.001
0.001
0.001
0.001
0.001
0.001
0.001
0.001
0.001
0.001
0.001
0.001
0.001
0.001
0.001
0.00100999
0.001
0.001
0.0020745
0.001
0.00101
0.001
0.001
0.001
0.001
0.001
0.001
1.1735
1.17346
1.13805
1.11626
1.07383
1.09589
1.06126
1.06071
1.21811
1.15949
1.13806
0.988668
0.997804
0.928172
0.93196
0.996719
0.99737
0.988933
1.02849
1.0892
1.04149
1.07908
1.06084
0.957152
0.935931
0.9507
0.970759
0.897336
0.895773
0.897143
0.907646
0.923795
0.910675
0.873957
0.883348
2.35889
2.37006
2.39697
2.3712
2.41732
2.40188
2.42846
2.4171
2.47347
2.46021
2.42744
2.47816
2.43768
2.49788
2.32824
2.28073
2.30034
2.34961
2.33076
2.29961
2.30294
2.35598
2.35971
2.3369
2.31641
2.3685
2.35311
2.3598
2.38571
2.23905
2.24057
2.24041
2.23829
2.25739
2.27854
1.83201
1.78037
1.6734
1.57906
1.49133
1.56631
1.76734
1.75174
1.9891
2.01054
1.90087
1.97995
2.01957
2.06486
2.11519
2.15431
2.15475
2.15441
2.15338
2.18254
2.19637
2.22235
2.20935
2.21307
2.2162
2.22758
2.20352
2.20478
1.3994
1.32669
1.26944
1.25895
1.31858
1.49214
1.46896
1.19776
1.25656
1.12992
1.06032
2.34511
2.36601
2.38197
2.38859
2.39389
2.40444
2.40892
2.4352
2.42066
2.43848
2.43575
2.48686
2.51024
2.53168
2.53271
2.53818
2.54985
2.57505
1.03438
0.985589
0.984296
1.24573
1.13714
1.30277
1.20567
1.1263
1.0248
1.02507
1.02321
1.02465
0.87758
0.953303
0.806275
0.827795
0.910366
0.82647
1.09103
1.02016
0.915897
1.11149
1.1158
1.11101
1.16791
1.12937
1.25301
1.20267
1.28569
1.25236
1.28675
1.315
1.3349
1.35802
1.37523
1.3822
1.38693
1.38248
1.43898
1.42904
1.42441
1.42012
1.4724
1.44447
1.51536
1.48041
1.4592
1.50187
1.54794
1.53659
1.55871
1.59728
1.5974
1.54428
1.65206
1.68094
1.65032
1.64069
1.72272
1.80627
1.87966
1.94528
1.89391
1.90927
2.03707
2.097
2.13978
2.12161
2.18629
2.21757
2.25888
2.27402
2.26948
2.28849
2.3453
2.32697
2.33699
2.34578
2.33669
2.33504
2.33548
2.33476
2.33535
2.3347
2.33461
1.06737
1.05995
1.08698
1.00745
1.02509
1.04439
0.979
1.12068
1.02164
0.957953
0.977951
0.95787
0.858235
0.959974
0.984923
0.761409
0.755994
0.707895
0.82143
1.03682
0.923147
0.934968
0.927332
0.725103
0.606447
0.409926
0.427587
0.347139
0.164912
0.168176
0.710021
0.528014
0.692378
0.691964
0.001
0.001
0.001
0.001
0.001
0.001
0.00100984
0.001
0.171744
0.001
0.001
0.001
0.00101
0.001
0.001
0.001
0.001
0.00241285
0.001
0.001
0.001
0.001
0.001
0.001
0.00100993
0.001
0.001
0.001
0.001
0.001
0.00101361
0.001
0.001
0.001
0.001
0.00100375
0.001
0.001
0.001
0.001
0.001
0.001
0.001
0.001
0.00101
0.001
0.001
0.001
0.001
0.001
0.001
0.001
0.001
0.001
0.001
0.00217511
0.001
0.001
0.001
0.001
0.00217507
2.52606
2.48705
2.46176
2.56889
2.59443
2.59327
1.81677
1.81925
1.80476
1.79987
1.70814
1.78384
1.61393
1.54036
1.46284
1.47572
1.44282
1.44321
1.44875
1.45164
1.32496
1.24182
1.33136
1.41106
1.40724
0.001
0.001
0.001
0.001
0.001
0.001
0.001
0.001
0.001
0.001
0.00100943
0.001
0.001
1.01303
1.04132
1.07654
0.001
0.001
0.0116195
0.0195097
0.301591
0.190322
0.482775
0.504235
0.669081
0.534692
0.841837
1.20983
1.36121
1.47417
1.46197
1.79169
1.71104
1.71866
1.50485
1.59334
1.67591
1.73707
1.74291
1.73954
1.74905
1.78379
1.75649
0.001
0.00117713
0.001
0.001
0.001
0.001
0.00100904
0.001
0.001
0.001
0.001
0.001
0.001
0.001
0.001
0.001
0.001
0.00100504
0.001
0.001
0.001
0.001
0.001
0.001
0.001
0.001
0.001
0.001
0.001
0.001
0.00101
0.00100979
0.001
0.001
0.001
0.001
0.001
1.17241
1.2081
1.19789
1.13755
1.13959
1.10963
1.13334
0.998729
1.02959
0.939049
0.937448
1.14618
1.13073
0.892016
0.889996
0.892773
0.89614
0.947982
0.929205
0.965923
0.912251
1.03689
0.986655
1.03557
1.04759
0.877239
0.831496
0.857115
0.887883
0.863497
0.86353
0.805282
0.841241
0.822789
0.802505
0.779879
0.78003
2.3594
2.37328
2.39822
2.41362
2.42409
2.42379
2.48047
2.44138
2.29347
2.29089
2.27426
2.29583
2.32903
2.29098
2.33269
2.30944
2.22745
2.21409
2.21257
2.24454
2.27335
2.24633
1.8376
1.76244
1.65495
1.7437
1.59206
1.50262
1.75683
1.75661
1.99501
1.99764
2.01183
1.91079
1.98755
2.09827
2.04542
1.98816
2.02962
2.13153
2.14381
2.1362
2.14191
2.1506
2.17406
2.20235
2.19091
2.20282
2.2013
2.20241
2.2011
2.2009
2.20236
1.2421
1.24745
1.38423
1.4688
1.24389
1.32763
1.48273
1.49885
1.23738
1.17829
1.08928
1.15694
2.37568
2.33528
2.35328
2.39939
2.39709
2.39893
2.40956
2.43107
2.45355
2.46554
2.46434
2.46942
2.49147
2.53117
2.51703
2.53381
2.54961
2.593
2.57244
2.40474
2.41531
2.43271
2.60365
2.60005
2.61138
0.983538
0.982971
0.988382
0.959693
1.05086
1.07224
0.869307
0.912577
0.946495
0.828928
0.868321
0.87361
0.801219
0.804828
0.807603
0.803213
0.833184
0.867904
0.968988
0.896654
0.895152
1.03949
1.11678
1.03445
1.18866
1.21947
1.15065
1.18953
1.25392
1.21672
1.3414
1.28551
1.35624
1.36963
1.38079
1.36862
1.42012
1.45439
1.49705
1.4968
1.50272
1.48612
1.51321
1.49669
1.54592
1.54786
1.57368
1.57296
1.55099
1.5508
1.66838
1.71903
1.61609
1.67879
1.72615
1.68978
1.78765
1.83498
1.93324
1.97033
1.94999
2.03801
2.09479
2.19211
2.17963
2.23851
2.21305
2.30782
2.31343
2.30667
2.3358
2.36546
2.36295
2.41926
2.38316
2.41038
2.37315
2.37192
2.40827
2.33918
2.37601
2.33852
0.441003
0.754547
0.442446
0.720255
0.998844
0.98247
0.979457
0.963536
0.977406
0.833103
0.733252
0.727406
0.625147
0.82862
0.700064
0.725425
0.857535
0.110037
0.111337
0.485188
0.61863
0.614273
0.396304
0.290532
0.293682
0.0778213
0.0856385
0.100361
0.174101
0.171686
0.0703592
0.252448
0.15422
0.410221
0.209712
0.132709
0.0010004
0.001
0.001
0.001
0.001
0.001
0.00224249
0.001
0.001
0.0476078
0.001
0.001
0.00101
0.001
0.001
0.00220102
0.001
0.001
0.001
0.00100982
0.00136848
0.001
0.00100983
0.001
0.001
0.001
0.00101
0.001
0.00101351
0.0010126
0.001
0.001
0.00100894
0.00101277
0.001
0.001
0.001
0.001
0.00168782
0.001
0.00168773
0.001
0.001
0.001
0.001
0.00100984
0.00101
0.00100994
0.001
0.001
0.001
0.001
0.001
0.001
0.001
0.001
0.001
0.001
0.00136844
0.001
0.00100958
0.00100997
0.001
0.001
0.001
0.001
0.00101
2.50554
2.48323
2.49176
2.50979
2.54945
2.65645
2.60573
2.61017
2.6343
2.57049
1.70941
1.70253
1.63926
1.62591
1.60248
1.62532
1.53798
1.48882
1.48856
1.45537
1.41719
1.41392
1.33338
1.34403
1.21057
1.25374
1.25099
0.001
0.001
0.001
0.00101
0.001
0.001
0.001
1.04799
1.1895
1.0426
0.001
0.001
0.001
0.001
0.909725
0.748417
0.0828341
0.0234474
0.108252
0.213965
0.509841
0.371268
0.547694
0.548289
0.577888
1.58172
1.59994
1.63388
1.32696
1.46857
1.46557
1.5057
1.62063
1.69399
1.66691
1.56603
1.64645
1.66552
1.67816
1.59247
1.64377
0.001
0.001
0.00117716
0.00101
0.001
0.001
0.00101
0.00116767
0.001
0.001
0.001
0.001
0.001
0.001
0.001
0.001
0.001
0.001
0.001
0.00101
0.001
0.001
0.001
0.001
0.001
0.00100577
0.001
0.001
0.001
0.001
0.001
0.00101
0.00100563
0.001
0.001
0.001
0.001
0.001
0.001
0.001
0.001
0.001
0.001
0.001
0.001
1.18964
1.20138
1.21099
1.07764
1.10186
1.05923
1.06189
0.989454
0.976795
0.890636
0.902962
0.890656
0.890867
0.994201
0.987533
0.838307
0.83719
0.803291
0.7794
0.879249
0.872692
0.896409
0.952008
1.03115
0.995388
1.06251
1.01434
0.816604
0.785812
0.847352
0.872588
0.745945
0.745893
0.719948
0.740546
0.781715
0.761246
0.780284
0.786716
2.36901
2.31936
2.40457
2.3529
2.37258
2.40202
2.38412
2.44496
2.39722
2.48456
2.44718
2.43697
2.48928
2.47519
2.25754
2.25834
2.24732
2.26091
2.27401
2.2859
2.28697
2.29789
2.20158
2.19997
2.22434
2.20769
2.23791
2.24702
1.8386
1.76193
1.67976
1.75629
1.55086
1.64367
1.75649
1.76223
1.98662
1.98625
1.98913
1.91721
2.07544
2.12169
2.03337
1.98686
2.12866
2.12851
2.14365
2.1286
2.16601
2.19056
2.19757
2.20014
2.19992
2.1956
2.19979
2.20163
2.19958
2.19502
1.2421
1.23485
1.4021
1.48131
1.38361
1.29835
1.53678
1.47937
1.21299
1.23622
1.20799
1.12398
2.37545
2.41113
2.39426
2.41926
2.43789
2.4266
2.46161
2.47342
2.45104
2.46523
2.45389
2.46522
2.46946
2.49195
2.51693
2.53051
2.53255
2.58527
2.56125
2.60624
2.61453
2.48731
2.49967
2.62046
2.62405
0.721312
0.881342
0.753687
0.855601
0.782838
0.756112
0.716842
0.679431
0.704608
0.744856
0.634824
0.689026
0.694457
0.579143
0.636116
0.786134
0.898184
0.812035
0.903137
0.905732
0.896517
0.966308
1.11412
1.02154
1.20714
1.20686
1.17338
1.12101
1.2425
1.28701
1.34428
1.33004
1.35233
1.34379
1.46237
1.41024
1.51383
1.50613
1.53149
1.5391
1.50864
1.56849
1.60912
1.58665
1.56901
1.59344
1.64785
1.62984
1.61412
1.65495
1.73838
1.7416
1.73364
1.75393
1.88613
1.79826
1.96667
1.99759
1.99472
2.06372
2.13697
2.21506
2.22186
2.23464
2.28252
2.32967
2.366
2.36603
2.40367
2.37884
2.43206
2.44469
2.44652
2.44516
2.44599
2.44477
2.41235
2.44548
2.41245
0.0975991
0.0898796
0.110219
0.0803609
0.386257
0.69088
0.38269
0.854598
0.720652
0.726748
0.571093
0.593789
0.597578
0.592239
0.595323
0.594133
0.595708
0.598128
0.593853
0.108151
0.10044
0.001
0.0422777
0.0766193
0.0316286
0.0788347
0.074819
0.0462301
0.0535663
0.001
0.001
0.001
0.001
0.001
0.001
0.00212141
0.001
0.001
0.00100986
0.001
0.001
0.001
0.00189312
0.001
0.001
0.001
0.001
0.001
0.001
0.001
0.001
0.001
0.00100941
0.001
0.001
0.001
0.00100992
0.001
0.001
0.001
0.00101
0.001
0.001
0.001
0.001
0.001
0.001
0.0010008
0.001
0.001
0.001
0.00100949
0.001
0.001
0.001
0.001
0.001
0.001
0.001
0.001
0.001
0.001
0.00101
0.001
0.001
0.001
0.001
0.001
0.001
0.001
0.001
0.001
0.001
0.001
0.001
0.001
0.001
0.001
0.001
0.001
0.001
0.001
0.001
0.001
0.001
0.001
0.001
0.001
0.001
0.001
0.001
0.001
0.00106287
0.001
0.001
0.001
0.001
2.68067
2.6593
2.68917
2.69649
2.65598
2.67186
2.51175
2.50898
2.56177
2.54451
2.66113
2.64687
2.65533
2.53152
2.50873
1.58973
1.58625
1.57593
1.57514
1.58055
1.50209
1.54446
1.34627
1.40683
1.2641
1.26056
1.20936
1.21123
1.2093
0.001
0.001
0.001
0.001
1.02121
1.21512
1.04208
0.001
0.001
0.997402
0.89224
0.001
0.050361
0.001
0.001
0.589426
0.732718
0.120917
0.113972
0.266221
0.111993
0.553179
0.404503
0.558065
1.58004
1.58313
1.58442
1.57684
1.58073
1.29215
1.41629
1.35044
1.47079
1.53491
1.56073
1.48519
1.57607
1.52527
1.5287
1.50479
0.001
0.001
0.001
0.001
0.001
0.001
0.001
0.001
0.001
0.00492501
0.001
0.0336307
0.001
0.001
0.001
0.113659
0.116438
0.0704413
0.001
0.001
0.0608124
0.001
0.001
0.001
0.001
0.00100955
0.001
0.001
0.001
0.001
0.001
0.001
0.001
0.001
0.001
0.001
0.00106947
0.001
0.00106946
0.001
0.001
0.001
0.001
0.00133133
0.001
0.001
0.001
0.001
0.0121413
0.0115338
0.10865
0.001
0.001
0.001
0.001
0.001
0.001
1.18788
1.11804
1.10359
1.0357
1.02762
0.946927
0.932754
0.921683
0.923006
0.911238
0.921264
0.852038
0.861256
0.785091
0.770666
0.922405
0.926904
0.713312
0.706562
0.710097
0.718961
0.991203
1.05778
0.976426
0.872812
0.853419
0.930179
0.861096
0.945772
0.783533
0.75237
0.812947
0.76824
0.719621
0.719483
0.712187
0.735516
0.732927
0.704783
0.697505
0.679126
2.30217
2.30527
2.3332
2.3445
2.3277
2.36704
2.44482
2.39685
2.39207
2.34951
2.46068
2.42959
2.41896
2.24741
2.24601
2.27408
2.26081
2.28287
2.28511
2.31413
2.29207
2.19934
2.20833
2.23097
2.21352
2.22838
2.23749
1.87757
1.79925
1.72113
1.75723
1.70538
1.6115
1.79407
1.75784
1.99204
1.99137
1.95172
1.99709
2.0824
2.13109
1.99354
2.04073
2.13233
2.13152
2.15473
2.13376
2.17496
2.19504
2.19326
2.19421
2.19346
2.19431
2.19842
2.19435
2.19278
2.19418
1.23345
1.29398
1.48097
1.4566
1.37947
1.4637
1.48176
1.55702
1.22911
1.22404
1.21903
1.137
0.970066
1.0164
1.09798
2.4438
2.44725
2.47484
2.46688
2.49063
2.50326
2.50254
2.5028
2.53923
2.51866
2.53128
2.4992
2.52849
2.53947
2.56263
2.58387
2.59563
2.59191
2.64469
2.64533
2.66803
2.64992
2.55894
2.56521
2.67745
2.67837
0.500197
0.570925
0.450863
0.681632
0.596164
0.677558
0.681621
0.669411
0.596165
0.531051
0.467902
0.46594
0.498527
0.557882
0.718755
0.625108
0.600654
0.801828
0.957144
0.914313
0.769365
1.0067
1.05235
1.0718
1.04999
1.15191
1.22415
1.10135
1.32544
1.26436
1.33367
1.34047
1.43013
1.36732
1.48912
1.52562
1.52017
1.52324
1.64813
1.61185
1.58166
1.63417
1.6623
1.65579
1.6466
1.64004
1.65376
1.65349
1.73599
1.77711
1.81767
1.77109
1.8163
1.84139
1.98404
1.91311
2.00726
1.99695
2.07687
2.15254
2.23757
2.23427
2.26954
2.30689
2.38379
2.37193
2.39616
2.40014
2.42946
2.43831
2.45808
2.44902
2.46134
2.45595
2.44471
2.45866
2.44286
2.4459
0.0351026
0.0126666
0.062624
0.0419489
0.0433137
0.0637733
0.0445975
0.233205
0.0345139
0.594994
0.603845
0.127624
0.334799
0.597575
0.594352
0.596082
0.594417
0.59548
0.593289
0.52366
0.432756
0.001
0.001
0.001
0.001
0.001
0.0383962
0.001
0.001
0.001
0.001
0.00101
0.001
0.001
0.00100863
0.00189106
0.001
0.001
0.001
0.00372535
0.001
0.001
0.001
0.00100974
0.001
0.001
0.001
0.00100983
0.001
0.001
0.00100647
0.001
0.00100976
0.001
0.001
0.001
0.001
0.001
0.00354623
0.001
0.001
0.001
0.001
0.001
0.00131327
0.0013132
0.00131322
0.001
0.001
0.001
0.001
0.001
0.001
0.001
0.001
0.001
0.001
0.001
0.001
0.001
0.001
0.001
0.001
0.001
0.001
0.001
0.001
0.001
0.001
0.001
0.001
0.001
0.001
0.001
0.001
0.001
0.001
0.001
0.001
0.001
0.001
0.001
0.001
0.001
0.001
0.001
0.00101
0.001
0.00162872
0.001
0.00105768
0.001
0.00103926
0.001
0.001
0.001
2.68881
2.71148
2.72698
2.6753
2.67933
2.66044
2.68567
2.54989
2.60206
2.60381
2.60971
2.61981
2.66859
2.67729
2.50767
2.54613
2.47558
2.52282
2.51747
1.57243
1.56632
1.48322
1.44038
1.53743
1.47987
1.48513
1.34343
1.36952
1.23815
1.21025
1.21093
1.20995
1.18584
0.001
0.001
1.12772
1.24028
1.01797
0.001
0.001
0.972399
0.967812
0.00928269
0.001
0.708925
0.844182
0.0876714
0.14524
0.091575
0.0506606
0.569752
0.57923
0.164737
0.199402
0.242849
0.345352
0.50022
1.53483
1.59141
1.56633
1.52944
1.30226
1.29948
1.32286
1.39463
1.50841
1.51024
1.46157
1.50598
1.51166
0.0380023
0.0376725
0.0338469
0.0480715
0.0712837
0.0879167
0.101995
0.0965161
0.0967209
0.129461
0.146695
0.172685
0.165345
0.184905
0.226971
0.25634
0.211128
0.300012
0.256682
0.210828
0.253294
0.260908
0.264916
0.001
0.001
0.00106947
0.001
0.001
0.00101
0.001
0.001
0.001
0.001
0.001
0.001
0.001
0.001
0.001
0.001
0.001
0.001
0.0897863
0.129303
0.195824
0.215734
0.286684
0.161447
0.00531532
0.001
0.384105
0.257974
0.305696
0.330619
0.001
0.001
0.001
0.001
0.001
0.001
0.001
0.001
0.001
0.001
1.10418
1.02056
1.02153
0.962615
0.961681
0.937841
0.954406
0.925176
0.963176
0.888566
0.889684
0.799452
0.81558
0.722071
0.724428
0.695894
0.693749
0.844363
0.818404
0.703403
0.693816
0.697332
0.686545
0.915906
0.961248
0.801748
0.773575
0.844866
0.958834
1.01887
0.976647
0.703817
0.663155
0.727387
0.749604
0.652084
0.63244
0.629036
0.591991
0.627742
0.602993
0.627116
0.644099
2.39076
2.34648
2.30242
2.37139
2.27902
2.3632
2.38106
2.39179
2.39375
2.44018
2.37765
2.47078
2.44167
2.50527
2.22751
2.25
2.24573
2.26812
2.25057
2.27803
2.27253
2.26358
2.19433
2.20477
2.20999
2.22016
2.21791
2.21904
1.93121
1.85008
1.74056
1.75814
1.66237
1.75247
1.76365
1.82055
1.99892
1.9974
1.9982
1.97414
2.08866
2.13605
2.05642
2.00878
2.13645
2.13705
2.14349
2.16289
2.19422
2.18121
2.19434
2.19309
2.193
2.19388
2.19363
2.1924
2.19341
2.19258
1.31589
1.22161
1.48856
1.49138
1.40267
1.49628
1.4937
1.59339
1.21897
1.21941
1.19653
1.18118
1.11976
1.21938
2.45772
2.47602
2.49604
2.53181
2.52662
2.54731
2.5608
2.5699
2.57707
2.56519
2.57224
2.59265
2.61655
2.62495
2.62586
2.63716
2.65523
2.67858
2.6882
2.69079
2.70063
2.57498
2.56627
2.71891
2.74267
0.313593
0.363507
0.338313
0.420573
0.552036
0.621967
0.525949
0.541502
0.456244
0.467177
0.47282
0.493472
0.592872
0.546452
0.616277
0.615709
0.61276
0.674753
0.744827
0.920062
0.844122
1.00281
1.08823
1.08151
0.997085
1.15791
1.15414
1.24392
1.30536
1.27618
1.3526
1.29504
1.48909
1.41162
1.52176
1.52485
1.53537
1.60289
1.72825
1.73428
1.67201
1.70076
1.7334
1.68004
1.78608
1.71644
1.69323
1.72553
1.85953
1.87018
1.93556
1.99188
1.87316
1.96346
2.10677
2.06073
2.12892
2.09706
2.29164
2.25652
2.3228
2.33796
2.40911
2.42098
2.48092
2.4504
2.49558
2.48073
2.49883
2.53255
2.503
2.53535
2.54267
2.49929
2.48768
2.53214
2.52902
2.4989
0.001
0.001
0.001
0.001
0.001
0.001
0.001
0.001
0.001
0.001
0.001
0.0625718
0.329265
0.001
0.001
0.422942
0.156577
0.594568
0.422589
0.519921
0.59526
0.435043
0.335599
0.001
0.001
0.001
0.001
0.001
0.001
0.001
0.00141626
0.00100995
0.001
0.001
0.001
0.001
0.001
0.00100156
0.001
0.001
0.001
0.001
0.001
0.001
0.001
0.001
0.0010095
0.00101
0.00100891
0.001
0.001
0.001
0.001
0.00127351
0.001
0.001
0.00127344
0.001
0.001
0.001
0.00100996
0.00162867
0.001
0.00123527
0.001
0.001
0.001
0.001
0.00101
0.001
0.001
0.001
0.001
0.001
0.001
0.001
0.001
0.001
0.001
0.001
0.001
0.001
0.001
0.001
0.001
0.001
0.001
0.001
0.001
0.001
0.001
0.001
0.001
0.001
0.001
0.001
0.001
0.001
0.001
0.001
0.001
0.001
0.001
0.001
0.001
0.001
0.001
0.001
0.001
0.001
0.001
0.001
0.001
0.001
0.001
0.001
0.001
0.00105768
0.001
0.001
0.001
0.00123528
0.001
0.001
2.74656
2.72733
2.74384
2.72204
2.71716
2.74259
2.72535
2.69908
2.71528
2.60304
2.59046
2.56527
2.57733
2.70382
2.70838
2.72559
2.64145
2.51198
2.55208
2.50985
2.50463
2.50673
2.54979
2.43634
1.35093
1.43823
1.34795
1.38524
1.38207
1.28486
1.27442
1.28757
1.28844
1.29301
1.26543
1.18323
1.15802
1.07476
1.07798
1.18879
1.30058
0.0403451
0.0548002
0.965847
0.967522
0.0784257
0.0912622
0.90294
0.771588
0.0863999
0.107107
0.643015
0.579705
0.249105
0.209164
0.166218
0.580105
0.505057
0.258838
0.289459
0.400556
1.44501
1.37587
1.34805
1.43885
1.29889
1.32222
1.46118
1.3896
1.43944
1.50784
1.50639
0.0379003
0.034759
0.0472269
0.036241
0.0925422
0.0742377
0.100976
0.0981305
0.0928216
0.123498
0.18157
0.154068
0.181952
0.183059
0.248982
0.203938
0.299271
0.301034
0.304416
0.285792
0.29839
0.300225
0.300927
0.302661
0.001
0.001
0.001
0.0035686
0.001
0.00100998
0.00374899
0.001
0.001
0.001
0.001
0.001
0.001
0.001
0.001
0.001
0.001
0.001
0.001
0.00101
0.001
0.424897
0.435452
0.392315
0.437445
0.467529
0.518484
0.428184
0.121036
0.585018
0.597469
0.351836
0.30273
0.001
0.001
0.001
0.001
0.001
0.001
0.001
0.001
0.001
0.001
0.001
0.001
0.001
0.001
0.001
0.001
0.961239
0.961025
0.992561
0.961528
0.96168
0.959791
0.958073
0.779652
0.783156
0.864402
0.879722
0.746223
0.742534
0.701302
0.701071
0.69984
0.695802
0.668507
0.668558
0.706951
0.705385
0.614733
0.600721
0.560426
0.575151
0.886885
0.813869
0.751602
0.96677
0.870267
0.998231
1.09709
1.02256
0.703631
0.663843
0.761858
0.741413
0.53489
0.539951
0.544561
0.574201
0.601497
0.625361
0.659419
0.643939
2.28388
2.33057
2.30182
2.3075
2.30687
2.34403
2.30889
2.34626
2.37416
2.40618
2.40023
2.40265
2.44046
2.4086
2.50431
2.21843
2.2231
2.22844
2.23147
2.22921
2.23105
2.24354
2.2624
2.25043
2.19696
2.2061
2.21403
2.21918
2.21853
1.89855
1.97272
1.7831
1.77622
1.69647
1.79481
1.85413
1.7883
2.00964
2.02198
2.02575
2.01032
2.13811
2.10163
2.06975
2.10543
2.1511
2.14295
2.17373
2.18726
2.20552
2.20061