/*--------------------------------*- C++ -*----------------------------------*\
  =========                 |
  \\      /  F ield         | OpenFOAM: The Open Source CFD Toolbox
   \\    /   O peration     | Website:  https://openfoam.org
    \\  /    A nd           | Version:  8
     \\/     M anipulation  |
\*---------------------------------------------------------------------------*/
FoamFile
{
    version     2.0;
    format      ascii;
    class       volScalarField;
    location    "19980";
    object      nut;
}
// * * * * * * * * * * * * * * * * * * * * * * * * * * * * * * * * * * * * * //

dimensions      [0 2 -1 0 0 0 0];

internalField   nonuniform List<scalar> 
526318
(
0.000349702
0.000550658
0.000520747
0.000614308
0.000612195
0.000299122
0.000598799
0.000356826
0.000542102
6.06154e-05
0.000317367
0.0005293
0.000560313
0.000242986
0.000256956
0.000238408
0.000345931
0.0002559
0.000331612
0.000181527
0.000629672
0.000287721
0.000432313
0.000371271
0.000205794
0.000307526
0.000149196
0.00054282
0.000516271
0.000116928
0.000349987
0.000100313
0.000664728
0.000442611
0.000552233
0.00108117
0.000291901
0.000193445
0.000453471
0.000738747
0.000745616
0.000312906
0.000341812
2.14424e-05
0.000273007
0.000307319
0.000453333
0.000531769
0.000313448
0.000181997
0.000499836
0.000818591
0.000254896
0.000287973
0.000131799
0.000259588
0.00019274
0.000112599
8.34938e-05
0.000206119
0.000766078
0.00059003
0.000623413
9.0353e-05
0.000196333
0.000285445
0.000264545
0.000416004
0.000347598
0.000391943
0.000336528
0.000199569
0.00042347
0.000304777
0.000330177
0.000176928
0.000249851
0.000170209
0.000504687
0.000396905
0.000492306
0.000388718
0.000252358
0.000245238
0.000512086
0.00028467
0.000117159
0.000430371
0.000423405
0.000277326
0.000381688
0.000249143
0.00011121
0.00032617
0.000226985
0.000348473
0.000228199
8.94919e-05
0.000150472
0.000343097
0.000165226
0.000166201
0.000161442
0.000117567
0.000107312
0.000153008
0.000265684
0.000159452
0.000246216
0.000325584
0.000547436
0.00034931
0.000296799
0.00012252
0.000185983
0.000480617
0.00016581
0.000563258
0.000113777
0.000250949
0.000275357
0.000286893
0.000114816
5.78983e-05
5.45191e-05
0.000173914
0.000260605
0.000121559
0.000101485
1.72851e-05
0.000164274
8.7678e-05
4.04375e-05
5.45388e-05
5.5211e-06
4.36524e-05
9.11654e-05
3.81146e-05
5.93377e-05
4.20639e-05
6.12595e-05
7.46442e-05
5.17316e-05
3.44081e-05
0.000105432
3.79001e-05
7.38022e-05
0.00014694
4.61059e-05
0.000148857
5.70643e-05
0.000285586
0.000100596
6.22459e-05
6.42549e-05
0.000345469
0.000295133
0.000341848
0.000128189
0.000212531
0.000221031
4.7533e-05
0.000303425
2.54472e-05
0.000207637
0.000536892
0.000333541
0.000489846
0.000452006
0.000465768
0.000260142
0.000497635
0.000459267
0.000172523
0.000336375
0.000230312
0.000212231
0.000228138
0.00031808
0.000220892
0.000184453
0.00016187
0.000322126
0.000140745
0.000319105
0.000172409
0.00012747
6.5932e-05
0.000194059
4.28804e-05
0.000132771
6.6499e-05
6.28635e-05
6.78346e-05
7.18015e-05
6.86476e-05
4.58717e-05
8.508e-05
8.24536e-05
0.000204158
3.99078e-05
0.000218296
0.000268282
0.000295471
1.77831e-05
0.000201808
0.000143
9.34972e-05
0.000169657
0.000290856
0.000170334
0.000668569
0.000339132
0.000328373
0.000695255
0.00015098
0.00021464
0.000369377
0.000485818
0.000266546
0.000148525
0.000223802
0.000265114
0.00032463
0.000505852
0.000235571
0.000234209
0.000405319
0.000438272
0.000144808
0.000101479
0.000147392
0.000220813
0.00024898
0.000139176
0.000147806
0.000250636
0.000144743
0.000145441
0.000278035
0.000440384
6.53917e-05
0.000294774
0.000243172
0.000243956
0.000337225
0.000439182
0.000193312
0.000500705
0.00042277
0.000444358
0.000307669
0.000462425
0.000393049
0.000315295
0.00030999
0.000274518
0.000258845
0.00031864
0.000181241
0.000117648
8.59698e-05
6.88682e-05
0.000179645
0.000111143
0.000168735
0.000212785
0.000196544
0.000180886
0.00028232
0.000201307
0.000340531
0.000111684
0.000453249
0.000297154
0.000462309
0.000366458
0.000121767
0.00030864
0.000682723
0.000330792
0.0001857
0.000230725
3.76138e-05
7.34497e-05
2.0797e-05
2.50981e-05
3.97412e-05
2.02325e-05
4.68765e-05
4.15119e-05
7.45408e-05
6.09715e-05
0.000181161
0.000164459
0.000194364
0.000226512
0.000205439
0.000280065
0.000220175
0.000257357
0.000156195
0.000205393
0.000164793
0.000145047
0.000211891
0.000131091
3.87621e-05
0.000172543
4.69961e-05
8.15474e-05
0.000157182
0.00019413
0.000119462
0.000141694
8.6494e-05
0.000185067
0.000229006
0.000275466
0.000300807
0.000371623
0.000303419
0.000460536
0.000319926
0.000244514
0.000412321
0.000285468
0.000109968
0.000354896
0.0003213
0.000452712
0.000340132
0.000193122
0.000293095
0.000143763
0.000175651
0.000175599
0.000181978
0.000133695
0.000181409
0.000206199
0.000222698
0.000124905
0.000292715
4.45926e-05
0.000165506
0.000125251
2.82908e-05
5.96376e-05
0.000123587
4.04588e-05
5.75581e-05
8.59508e-05
6.28773e-05
5.43504e-05
5.7711e-05
6.81234e-05
0.000194402
0.000166153
9.08741e-05
0.000148565
3.20159e-05
0.000229456
0.000195178
0.000174643
0.000188235
0.00018386
0.000268613
0.000290153
0.000241917
0.000243342
0.000178944
0.000286696
0.000343689
0.000290967
0.000312309
0.000230829
0.000433914
0.000507241
0.00059416
0.000219332
0.000592382
0.000557851
0.000307377
0.000296458
0.000188427
0.000207383
0.000233845
0.000298011
0.000153822
0.000315898
0.000208941
0.000268209
0.000298685
0.000221284
0.000280129
0.000454004
0.000282985
7.36743e-05
0.000153652
0.000138976
0.000175398
0.000177014
0.00018066
0.000122685
4.31867e-05
5.86787e-05
5.39023e-05
8.91015e-05
2.28873e-05
0.000189688
0.000221993
6.10404e-05
0.000167689
0.000292768
0.000287505
0.000272789
0.000316034
0.000130223
0.000363356
0.000121985
0.000196226
0.000279708
0.000334843
0.000438918
0.000222987
0.000305814
0.00032365
0.000320832
0.000292651
0.000344843
0.000234801
0.000182846
0.00029151
0.000205508
0.000154089
0.000193834
0
3.60935e-10
2.09822e-10
0
0
0
0
1.35526e-10
5.16677e-10
7.69469e-10
7.11692e-05
0
0
0
3.44833e-05
0
3.8968e-05
5.75553e-05
7.08774e-05
7.47414e-05
0.000182006
0.000153644
0.000253657
0.000211274
0.000201734
0.000231128
0.000243111
0.000279229
0.000318272
0.000420431
0.000470093
0.000300956
0.000378817
0.000163673
0.000561686
0.000166068
0.000524193
0.000242601
7.7915e-05
6.33364e-05
5.60163e-05
7.34642e-05
2.12003e-05
6.26375e-05
6.26202e-05
3.61777e-05
6.25727e-05
5.7447e-05
5.63764e-05
9.79197e-05
0.000100508
0.000132069
0.000223824
0.000151264
0.000167183
0.000223535
0.00026056
0.000241139
0.000109661
0.000198874
0.000171911
9.24933e-05
2.70012e-05
6.03984e-05
0.000122681
0.000110052
0.000133719
2.38398e-05
0.000141108
0.000272492
0.000329268
0.000341104
0.000289944
0.00033543
0.000357417
0.000350788
0.000336791
0.00031772
0.000245019
0.000345547
0.000290405
0.000248412
0.000269474
0.000318153
0.000470517
0.000338898
0.000196614
0.00027628
0.0002614
0.000259641
0.000316703
0.000341895
0.000365701
0.000173554
0.000302159
0.000245227
0.000101533
0.00019353
4.0301e-05
0.000112493
0.000145309
0.000173603
8.00053e-05
0.000144253
0.000210104
0.000239541
0.000204753
0.000149636
0.000201653
3.63407e-05
0.00021026
3.11658e-05
0.000147282
7.03292e-05
0.000103592
6.7234e-05
0.000113985
6.7161e-05
2.4036e-05
0.000143785
6.36265e-05
2.86432e-05
5.45709e-05
0.000135196
0.000224646
7.32944e-05
0.000144953
0.000197469
0.000244987
0.000224015
0.000202843
0.000258277
0.000214663
0.000215516
0.000284264
0.00020636
0.00026861
0.00025921
0.000298951
0.000337596
0.000318998
0.000335281
0.000338159
0.000322355
0.000346078
3.57379e-05
6.21581e-05
0.000141673
0.00082521
7.52389e-05
0.000443423
0.000166046
0.000264496
0.000260424
0.00034184
0.000191129
0.000222879
0.000263531
0.000222909
0.00018093
0.000229808
0.000263418
0.000213564
0.000233685
0.000149132
8.60537e-05
0.000135624
0.000143912
4.44035e-05
0.000179102
0.000208906
1.82067e-05
0
3.40694e-05
1.82736e-05
0.000287865
0
0.000403444
0.000481436
0.000249761
0.000179042
0
0
0
0
0
0
0
0
0
0
1.49803e-09
0
1.33483e-09
0
2.39984e-09
3.33323e-09
0
0
0
0
0
0
0
0
0
0
0
0
0
0
9.03995e-05
0.000169225
0.000272415
0.000241867
0.000293589
0.000332108
5.71739e-05
0.000162892
0.0003437
0.000251074
0.000239059
0.000402762
0.000364382
0.000327664
0.000253211
0.000261422
0.000327726
0.000288046
0.000178983
0.000157512
0.00012892
0.000183994
0
0
0
0
0
0
0
0
0
0
0
0
0
0
0
0
0
0
0
0
0
0
0
0
4.29458e-05
9.09977e-05
1.48958e-05
6.27568e-05
6.42083e-05
7.93835e-05
0.00020611
0.000168949
0.000277416
0.000225672
0.000292687
0.000287783
0.000282534
0.000357395
0.000317458
0.000211304
0.000120803
0.000309847
0.000238836
9.08347e-05
0.000459652
0.000272106
0.000175222
0.000211111
6.34972e-10
0
0
0
0
0
0
0
0
0
0
0
0
0
0
0
0
5.90493e-05
9.43726e-05
5.99423e-05
6.76733e-05
7.06782e-05
6.45227e-05
9.09511e-05
5.12769e-05
0.000101354
7.96441e-05
8.9245e-05
0.00011151
0.000198071
0.000153682
0.000160462
0.000153538
0.000204559
0.0002119
0.000232544
0.00023509
0.000135947
0.000108913
0.000127617
0.000176351
9.20529e-05
0.00010712
0.000113342
0.000115931
6.0195e-05
0.000121244
0.000122524
9.29493e-05
0.000320455
0.000351187
0.00032661
0.000330601
0.000343247
0.000358654
0.000357793
0.000346888
0.000336335
0.000340631
0.000338371
0.000292324
0.000368532
0.000334882
0.000263616
0.000311539
0.000284147
0.000324168
0.000263429
0.000258254
0.000180084
0.000282937
5.89684e-05
0.000235238
0.000406184
0.000329875
0.000264256
0.000324401
0.000274813
0.000236996
0.000285428
0.000144152
0.000227085
5.78135e-05
0.000127874
0.000134617
0.000115524
2.32133e-05
0.000102926
0.000142646
0.00016911
0.000229868
0.000220772
0.000211121
0.00022793
0.00015467
9.7972e-05
0.000131733
0.000108964
7.58265e-05
3.53501e-05
0.000105204
0.000108449
4.09771e-05
4.49837e-05
9.11508e-05
5.52781e-05
0.000109847
8.67711e-05
0.000188306
0.000145571
0.000245101
0.000145086
9.89746e-05
0.000154116
0.00025426
0.000199304
0.00024772
0.000186619
0.000241426
0.000248044
0.000277723
0.000197707
0.00023723
0.000278554
0.00029109
0.00027272
0.000299944
0.000296934
0.000309529
0.000341902
0.000336174
0.000345009
0.000335605
0.000360659
0.000432567
0.000449485
0.000391498
0.000400165
0.00040045
0.00045351
0.00046206
0.000458814
0.000532521
0.000496666
0.00050006
0.000493951
0.000553173
0.000598515
0.000546985
0.000533626
0.000588552
0.000607661
0.000557645
0.000562926
0.000618254
0.000593073
0.000612171
0.000653092
0.000677423
0.000637797
0.000703107
0.000684126
0.000734736
0.000726207
0.000687953
0.000753743
0.000732113
0.000739825
0.000773591
0.00074237
0.000215507
0.000170944
0.000359888
0.000473471
0.0001492
0.000142932
0.000323513
0.000159633
0.000202631
0.000149895
0.000146681
0.000150257
0.000107505
0.000196662
0.000179971
0.000171373
0.000168662
0.000138252
0.000173931
0.000124341
9.62454e-05
6.67908e-05
0.000111526
0.000131609
0.00011199
0.000129561
0.000219366
0.000142228
0.000182672
0
0
0
0
1.13011e-06
0
0.000238786
0.000380737
0.000246561
0.000227049
0
0
0
0
2.78635e-09
0
0
0
0
0
0
0
0
0
0
0
0
0
0
0
0
1.34081e-10
0
1.23548e-10
0
0
0
0
1.22922e-09
0
2.05139e-09
2.02347e-09
0
3.46989e-10
7.97095e-10
2.51131e-09
0
0
0
0
0
0
0
0
0
0
0
0
0
0
0
0
0
0
0
0
0.000255773
0.000288553
0.000322858
0.00036513
0.000182135
0.000474253
0.000170118
0.000418773
0.000329438
0.000300432
0.000212109
0.000181651
0.000290415
0.000264952
0.000166064
0.000112597
9.58126e-05
0.000322637
0.000226631
0.000163997
0.000259098
0.000147498
0
0
1.01603e-09
7.50178e-10
0
0
0
0
1.79881e-09
0
0
0
0
0
0
0
0
0
0
1.75032e-05
0.000112571
6.86903e-05
2.39696e-05
7.35497e-05
0.00012716
9.48946e-05
0.000211728
0.000242183
0.000231401
0.000294358
0.000256701
0.000163664
6.81366e-05
0.000318426
0.00028057
0.000112113
0.000193745
0.000299866
0.000329125
5.09922e-05
0.000350891
0.000270813
0.000333587
9.0275e-05
0
0
0
0
0
1.75262e-11
0
0
1.02355e-11
0
0
0
0
0
0
0
0
0
0
0
0
0
0
0
5.9579e-07
1.10748e-06
6.16713e-05
0.000113466
7.14385e-05
8.44871e-05
6.55134e-05
6.80828e-05
6.83989e-05
9.10064e-05
0.00010929
9.69269e-05
0.000114077
0.000110272
0.000181075
0.000164485
0.000189919
0.000200297
0.000240418
0.000233046
0.000251325
0.000249278
0.000127361
0.000122387
0.0001468
0.000157883
0.000101079
0.000116315
8.29916e-05
0.000117351
0.000129505
8.18217e-05
8.33736e-05
0.000131729
0.000363272
0.000368551
0.000365435
0.000392787
0.000356959
0.000390243
0.000366548
0.000427429
0.000485308
0.000485625
0.000442447
0.000433419
0.000561724
0.000544417
0.000597102
0.000615142
0.000637707
0.000633623
0.000704082
0.000690354
0.000741801
0.000736466
0.000731253
0.000724844
0.000750725
0.000721978
0.000706861
0.000745347
0.000695388
0.000684652
0.000309326
0.000330604
0.000384374
0.000334979
0.000286672
0.000289746
0.00030656
0.000309895
0.00026035
0.000283038
7.75567e-05
0.000304742
0.000152631
0.000136942
0.000247226
0.000286172
0.000258514
0.000107504
0.000229974
9.75589e-05
0.000100738
0.00023547
0.000163353
0.000148683
0.000145675
6.9747e-05
0.000104517
0.000162665
0.00014345
0.00019512
0.000127286
0.000199938
0.000221784
0.000172205
0.000135961
0.000142244
9.62166e-05
0.000163986
5.78942e-05
7.49398e-05
0.000122437
0.000113815
3.54309e-05
7.43843e-05
8.0641e-05
4.75041e-05
0.000137119
8.10969e-05
3.2595e-05
0.000154666
0.000118846
0.000190801
0.000209585
0.000106548
0.000239466
0.000167268
0.000128954
0.000204701
0.000153864
0.000236282
0.000226973
0.000248407
0.000231882
0.000210832
0.0002967
0.000285169
0.000280595
0.000311341
0.000317192
0.000300491
0.000324594
0.00032035
0.000374921
0.000433803
0.000367347
0.000441404
0.000473422
0.000463143
0.000496317
0.000484288
0.000504444
0.000503391
0.000531046
0.000554249
0.000583599
0.00061271
0.000608872
0.000679688
0.000748889
0.000665525
0.000723569
0.000771035
0.000706462
0.000734726
0.000749191
0.000722649
0.000678965
0.00073213
0.000715106
0.000706
0.000692031
0.000706843
0.000675375
0.000142712
8.36847e-05
0.000194611
0.000128569
0.000135691
6.12284e-05
0.000286583
0.00027128
8.79922e-05
6.64509e-05
0.000139645
0.000167296
0.000124298
9.24617e-05
9.34848e-05
0.000224871
0.000153196
0.000117188
0.000110309
0.000147231
0.000119991
0.000107404
8.57307e-05
0.000115243
0.000128794
0.000216242
5.98337e-05
0.00013613
1.44661e-05
0.000159742
0.000245061
0
0
0
0
0
0
3.22591e-05
0
0.000182655
0
0
3.78438e-09
0
0
0
0
0
0
0
0
1.59986e-11
0
0
0
0
0
0
0
0
0
0
0
0
0
0
1.10012e-08
0
0
0
0
0
0
0
0
0
0
0
0
0
0
0
0
0
0
0.000447741
0.000231363
0.000300781
0.000380467
6.98842e-05
0.000354774
0.000128566
0.000274823
0.000233054
0.000250586
0.000284685
0.00036108
0.000248094
0.000221064
8.08099e-05
0.000138483
6.90737e-05
0.000203168
0.000207604
0.000257692
0.000266039
0.000215794
6.04503e-10
0
4.26488e-11
0
0
0
0
0
0
0
0
0
0
0
0
0
0
0
0
2.3054e-05
8.13442e-05
7.583e-05
9.45529e-05
2.74811e-05
0.000110006
0.000219855
0.000235216
0.000291393
0.000301724
0.000300937
0.000480456
0.000370479
0.000483841
0.000233473
0.000386446
0.000337746
0.000480688
0.000102458
0.000276127
0.000106099
0.000661844
0.000234746
0.000204878
0.000381535
0
0
0
0
0
0
0
0
0
0
0
0
0
0
0
0
0
0
0
0
0
0
4.80838e-07
0
0
0
0
0
0
0
0
5.51879e-05
0.000106918
8.42425e-05
5.5278e-05
3.33732e-05
7.03391e-05
7.13205e-05
7.32885e-05
9.06849e-05
0.00015608
5.21547e-05
8.90596e-05
7.58855e-05
7.57437e-05
8.63355e-05
0.000169478
0.000197197
0.000220346
0.00020919
0.000247384
0.000263726
0.000277749
0.0002779
9.87676e-05
0.000141014
0.000162593
0.000127023
7.85098e-05
7.76605e-05
0.000116063
7.6753e-05
7.39961e-05
0.000132517
0.000141983
9.58431e-05
0.000553438
0.000707756
0.000583961
0.000634088
0.000724653
0.000633729
0.00062513
0.000604406
0.000675587
0.000736388
0.000655222
0.000725925
0.000707618
0.000754633
0.000685063
0.000655378
0.000655317
0.000704156
0.000701017
0.000616449
0.000646755
0.000694911
0.000655091
0.000654864
0.000671293
0.000698636
0.000472863
0.000694066
0.000753013
0.00070611
0.000676832
0.000659779
0.000685584
0.000639833
0.000644733
0.000392714
0.000430005
0.000404733
0.000420631
0.000401631
0.000383741
0.000410107
0.000448108
0.000510805
0.000489632
0.000453448
0.000420033
0.000591341
0.000591232
0.000651146
0.00064984
0.000717659
0.000726859
0.000769564
0.000772622
0.000751248
0.000748817
0.000678711
0.00068753
0.000671434
0.000668758
0.000644992
0.000648114
0.000340055
0.00032481
0.000323164
0.000308843
0.000340928
0.000375759
0.000371332
0.000294161
0.000320321
0.00030853
0.00027955
0.000748082
0.000730787
0.000743756
0.0007363
0.000734422
0.000753864
0.00075063
0.000739256
0.000756831
0.000738544
0.000739497
0.000794549
0.000785305
0.00078546
0.000797562
0.000689256
0.000802872
0.000860738
4.84815e-05
0.00011657
0.000179293
0.000294443
0.000155581
0.000190715
0.000249437
0.000116172
0.000142647
0.000217006
0.000161131
0.000168917
0.000149579
8.12698e-05
0.000103556
0.000171953
0.000193539
0.000125738
0.000117942
0.000203123
0.00012241
0.000211166
0.000112292
0.000100941
0.000211532
7.50104e-05
0.000140349
6.62884e-05
0.000170881
7.82545e-05
7.79161e-05
4.49645e-05
0.000135703
6.79799e-05
0.000158042
7.05208e-05
0.000119308
3.30636e-05
7.44959e-05
9.00683e-05
0.000143758
0.000153742
9.12271e-05
8.95871e-05
0.000188629
0.000176306
0.000142856
0.00015071
0.000204924
0.000221531
0.000255892
0.000250619
0.000225869
0.000220901
0.000259214
0.000272883
0.000294488
0.000277113
0.000354119
0.000300971
0.000383789
0.00041023
0.00035877
0.000402944
0.000426254
0.000429142
0.000447942
0.000461907
0.000459948
0.000465379
0.000492846
0.000481146
0.000523259
0.000556724
0.000590019
0.000559421
0.000655739
0.000595175
0.000658226
0.000726241
0.000754544
0.000710636
0.000747677
0.000725516
0.000720598
7.61311e-05
0.000152787
0.000170821
0.000210375
6.55786e-05
0.000165345
0.000107832
0.000212006
6.58514e-05
0.000122847
0.000131747
9.90109e-05
0.000130858
0.00016293
7.89452e-05
4.5186e-05
0.000152374
4.59603e-05
0.000178467
0.000286552
0.000206699
0.000204945
6.82027e-05
0.000218025
9.66594e-05
9.62231e-05
6.4555e-05
9.07829e-05
5.14352e-05
0.000120784
2.39906e-05
0.000276477
0.00020731
0.000213873
0
0
0
0
0
0
0
0
0.000202482
0
0
0
0
0
0
0
0
2.68154e-07
0
0
0
0
0
0
0
0
0
0
0
0
2.49586e-10
0
0
0
0
0
0
0
0
0
0
0
0
0
0
0
0
0
0
0
0
0
0
0
0
2.12056e-09
0
0
0
0
2.3216e-09
0.000673593
0.000819314
0.000670304
0.000847802
0.000714593
0.000873293
0.000271579
0.000599546
0.000376345
0.000154524
0.000158395
9.73042e-05
0.000145414
0.000276627
0.000243679
0.000156643
0.000294382
0.00025767
0.000305034
0.000352255
0.000139163
0.000203987
0.000238879
8.27513e-05
0.000257356
0
0
0
0
0
0
0
0
0
0
0
0
0
0.0002779
0.00022363
0.000292142
0
0
3.53094e-06
3.95539e-06
0.000106616
4.30664e-05
3.6545e-05
0.000112722
0.000177683
3.68884e-05
0.000109037
0.000262205
0.000205832
0.000150691
0.000116545
4.42644e-05
0.000524644
0.000281084
6.73191e-05
0.000349578
0.000241198
0.000195292
0.000199644
0.000230072
0.000462033
0.000191988
0.000244846
0
2.73506e-10
0
0
0
0
0
0
0
0
0
0
0
0
0
0
0
0
0
0
0
0
0
0
0
0
0
0
0
0
0
0
0
0
0
0
0
8.19353e-05
0.000101936
0.000198501
4.6588e-05
0.000108838
3.21508e-05
9.088e-05
2.08175e-05
8.44039e-05
7.89902e-05
2.80089e-05
0.000145005
5.22124e-05
3.44203e-05
7.43466e-05
7.43037e-05
4.05291e-05
0.000172964
0.000191083
0.000230308
0.000224559
0.000275272
0.000281512
0.000292631
0.000295197
0.00012008
0.000152975
0.000149193
0.000147844
8.93215e-05
5.32888e-05
0.000127303
8.39749e-05
8.81206e-05
0.000141753
0.000109785
0.000129724
0.000706559
0.000621326
0.000721319
0.000623525
0.000599016
0.000763327
0.000640321
0.000661757
0.000621155
0.000622193
0.000582535
0.000636303
0.000619428
0.000608595
0.000625124
0.000656071
0.00064928
0.000672439
0.000635788
0.000629451
0.000617307
0.000606043
0.000440473
0.000442274
0.000440252
0.000420589
0.000435049
0.000435852
0.000471791
0.000462704
0.000509578
0.00060896
0.000522722
0.000488532
0.000508189
0.000651152
0.000637152
0.000595268
0.000615664
0.000727763
0.00074813
0.000778518
0.000795492
0.000751132
0.000768143
0.000695545
0.000683479
0.000650639
0.000644666
0.000635351
0.000655918
0.000648946
0.000643281
0.00029718
0.000355089
0.000359699
0.000379489
0.000337577
0.000385374
0.000373241
0.000426834
0.000359077
0.000304012
0.000299888
0.000342427
0.000780501
0.000764424
0.000753844
0.000777124
0.000764011
0.000769076
0.000774571
0.000782686
0.000775308
0.000784151
0.000796394
0.000718999
0.000792058
0.000830142
0.000800215
0.000900037
0.000854464
0.000824171
0.000828101
0.000802905
0.000806233
0.000805045
0.000965032
0.000621759
0.000934659
0.000209971
0.000195102
5.16556e-05
8.40084e-05
0.000129506
0.000117312
0.000166081
0.000125007
0.000169916
0.000127695
0.000101889
0.000164614
9.04098e-05
0.00014912
0.000199011
0.000133671
0.000107554
0.000193348
6.96613e-05
0.000197159
8.2569e-05
0.000139964
0.000143894
8.70793e-05
0.00017856
0.000176853
7.79213e-05
0.000112347
0.000145933
0.00013321
5.70685e-05
8.97347e-05
0.000134496
8.76879e-05
7.92259e-05
7.27114e-05
7.5108e-05
0.000160065
8.06949e-05
0.000146134
0.00010734
0.000119982
6.53841e-05
5.18816e-05
0.000164958
0.000131724
0.000134639
0.000160622
0.000176302
0.000218183
0.000237777
0.00023661
0.00024311
0.000193033
0.000273756
0.000283321
0.00030482
0.000335178
0.000418641
0.000301696
0.000401297
0.000366428
0.000392598
0.000390316
0.000415101
0.000436549
0.000403969
0.00043373
0.000436275
0.000497334
0.000475386
0.000514121
0.000539852
0.000553154
0.00057357
0.000610946
0.000650727
0.000719292
0.000669482
0.000748069
0.000712025
0.000737856
0.000172602
0.000243501
7.69654e-05
0.000117638
0.000197737
0.000191238
0.000226488
0.000263408
0.000183273
9.31158e-05
0.000100764
8.84663e-05
0.000116362
7.25173e-05
0.000158808
0.000221648
1.27205e-05
1.556e-05
6.79175e-05
9.52959e-05
0.000303556
0.000225037
0.000141331
9.75991e-05
0.000148957
3.89636e-05
5.73464e-05
1.4432e-05
8.3661e-05
7.25818e-05
7.48218e-05
0.000242948
0.000171342
0.000323733
0.000234481
0.000172056
0
0
0
0
0
0
3.29749e-07
0
0
6.58656e-05
0
0
0
0
0
3.45931e-07
0
0
0
0
1.22484e-09
0
0
0
0
0
0
0
1.05007e-09
9.69174e-10
0
0
0
1.05693e-08
0
0
0
0
2.82323e-09
0
3.65627e-09
0
0
0
0
0
0
0
0
0
0
0
0
0
0
0
0
0
1.33307e-09
0
0
0
0
0
0
0
0
0.000819956
0.0010059
0.000729911
0.00074756
0.000993928
0.00130481
0.000735202
0.000695706
0.000773324
0.000819484
0.000507366
0.000248743
0.000158317
0.000266871
0.000117026
0.000120609
0.000208816
0.000115472
0.00020598
0.000386064
4.02636e-05
0.000260405
0.000194051
0.000284886
0.000230962
0.000139281
0.000257285
0
0
0
0
0
0
0
0.00027306
0.000299459
0.000214491
0
0
0
0
0.0001476
0.000191588
3.28544e-05
1.6127e-05
4.37362e-05
3.67785e-05
6.7678e-05
3.4307e-05
5.50638e-05
0.000152454
6.60348e-05
0.000296119
0.000500038
0.000105852
0.000320145
0.000383356
0.000382064
0.000297863
0.000167823
0.000270024
0.000118328
0.000351704
0.000537448
0.000332789
0.000131233
0.000315639
0.00049008
0
0
2.58853e-10
0
0
0
0
7.49154e-10
0
0
0
0
0
0
0
0
0
0
0
0
0
0
0
0
0
0
0
0
0
0
0
0
0
0
0
0
0
0
0
0
0
0
0
0
0
0.00010254
0.000195654
0.000129846
7.51311e-05
0.000164489
2.46643e-05
0.000115297
0.000114185
4.18823e-05
3.38624e-05
9.95865e-05
2.12238e-05
7.62699e-05
0.000130908
5.42864e-05
2.65532e-05
6.59845e-05
5.18841e-05
7.5657e-05
0.000198596
0.000167349
0.000223049
0.000263261
0.000294103
0.000290326
0.00030611
0.000301767
0.00013976
0.000141089
0.000168955
0.000177579
6.01902e-05
8.82677e-05
9.06e-05
0.000113073
0.000134033
9.27672e-05
0.000104351
0.000153099
0.000418273
0.000553336
0.000686579
0.000546624
0.000604504
0.000840223
0.00105156
0.000774423
0.00103027
0.000376153
0.000276798
0.000279402
0.000778458
0.000214874
0.000600543
0.000601899
0.00058302
0.000603217
0.000572882
0.000602786
0.000572638
0.000468433
0.000607322
0.000625638
0.000608109
0.000608892
0.000603507
0.000599981
0.000507075
0.000498214
0.00048709
0.000469124
0.000422546
0.000500615
0.000495557
0.000484253
0.000539315
0.000579875
0.000562128
0.000536488
0.00070712
0.000724334
0.000695028
0.000638165
0.000792887
0.00076668
0.000777021
0.000740024
0.000688232
0.000720138
0.00066564
0.000682817
0.000671646
0.00066283
0.000613972
0.000601883
0.000603952
0.000604682
0.000380393
0.000334331
0.000387374
0.000396962
0.000411889
0.000366014
0.000421678
0.000409495
0.000316473
0.0003727
0.000330203
0.00032749
0.000755545
0.000783584
0.000797482
0.000810278
0.000800744
0.000799251
0.000844905
0.00081636
0.00082818
0.00080877
0.000813107
0.000802541
0.00082244
0.000857535
0.000837493
0.000841912
0.000879613
0.000959454
0.000924871
0.000869562
0.000940178
0.00082499
0.000836142
0.00100066
0.000878813
0.000178174
0.000169092
6.2577e-05
0.000174482
1.30429e-05
7.18253e-05
0.000143735
0.00011942
0.000121233
0.00015619
6.36872e-05
0.000125428
0.000167537
9.52308e-05
0.000119661
0.000229749
0.000169389
0.000156537
0.000109749
9.69493e-05
8.18895e-05
7.21991e-05
8.88919e-05
0.000129788
0.000200629
0.000169251
0.000230157
0.000104032
0.000146502
7.00467e-05
3.12775e-05
0.000168029
4.76986e-05
6.85494e-05
8.52767e-05
8.0523e-05
0.000106995
3.49737e-05
8.57594e-05
2.87266e-05
7.61438e-05
0.000116329
9.89851e-05
4.81857e-05
0.000164244
0.000168716
0.000179397
0.000106033
0.000217703
0.00019096
0.000273
0.000255649
0.00023065
0.000246163
0.0002617
0.000324218
0.00034825
0.000367907
0.000340425
0.000366993
0.00032562
0.000343279
0.000336832
0.000395029
0.000368327
0.000403774
0.000418299
0.00042663
0.000489828
0.000446187
0.000481259
0.000506686
0.000540174
0.000554447
0.000607132
0.000643813
0.00069784
0.000672303
0.000751959
3.4399e-05
2.83568e-05
3.55214e-05
2.65586e-05
0.00016971
0.000273772
8.9028e-05
9.12411e-05
0.000158859
8.77152e-05
0.000118152
8.65834e-05
4.97081e-05
7.34471e-05
0.0001864
0.000201047
1.60337e-05
5.52e-05
0.000202877
1.00934e-05
7.38646e-05
0
4.02039e-05
3.1027e-05
5.85365e-06
4.39961e-05
3.59141e-05
1.76429e-05
3.07696e-05
0
0
0
0
0
0
2.4359e-07
0
0
0
0
0
0
3.11577e-07
0
0
0
0
0
0
0
0
0
0
0
0
0
0
0
0
0
0
0
0
0
0
0
0
0
0
0
0
0
0
0
0
0
0
0
0
0
0
0
0
0
0
0
0
0
0
0
0
0
0
0
0
0
0
0
0
0
0
0
0
0
0
0
0
0
0
0
0
0
1.49926e-11
0
0
0
0
0.00106612
0.000859585
0.00100384
0.00121483
0.000404602
0.000689499
0.000694287
0.000873579
0.000447408
0.000958583
0.000530199
0.000999085
0.00106381
0.00107511
0.000227827
0.000367622
0.000318008
0.00023054
0.0001144
0.000184613
0.000153818
6.80973e-05
0.000245178
0.000282487
0.000168376
0.000235113
0.000222258
0.000138944
0.000214249
0
0
0
0
0.000234164
0.000239729
0.000216857
0
0
0.000157313
0.000159942
0
5.47281e-06
0
0
8.5728e-05
6.65502e-05
8.31165e-05
3.65706e-05
8.42969e-05
1.66117e-05
6.63961e-05
4.3289e-05
5.90687e-05
0.000135752
0.000555872
0.000464995
0.000200673
0.000185249
0.00022481
0.000199462
0.000170651
0.000353122
0.000280235
0.000234047
0.000238131
0.000321958
0.000277472
0.000206355
0.000126435
0
0
0
0
0
0
0
0
0
2.39932e-06
0
3.19832e-05
0
0
0
0.000167625
9.85391e-05
4.72819e-05
0
0
4.34102e-05
0
0
0
0
0
0
0
0
0
0
0
0
0
0
0
1.96779e-09
0
6.46179e-10
0
0
0
0
3.59214e-07
0
0
0
0
7.95601e-06
1.65556e-05
0.000118437
0
0
0
0
0
0
0.000181605
0.000150196
0.000164011
0.000148688
0.000111925
0.000111065
8.55764e-05
6.74564e-05
0.000102991
8.25058e-05
8.07279e-05
7.51657e-05
5.78501e-05
4.30216e-05
8.77455e-05
0.00010381
7.3004e-05
9.05773e-05
4.75963e-05
7.26883e-05
8.87208e-05
0.000314579
0.000335293
0.000333878
0.000221816
0.000187527
0.000275655
0.000232698
0.000296687
0.000187236
0.000152499
0.000204031
0.000189192
9.41277e-05
8.65681e-05
7.34323e-05
0.000120047
0.000152902
5.69966e-05
0.000173135
9.92777e-05
0.000599033
0.000797179
0.000174195
0.000972131
0.00182391
0.000950719
0.00142849
0.000670917
0.000356654
0.0011861
0.000629587
0.000691488
0.000875734
0.000585837
0.000579233
0.000580615
0.000573282
0.000603932
0.000633051
0.00111375
0.000629453
0.000600506
0.00059936
0.000594492
0.000593896
0.000575078
0.000583367
0.000513193
0.000497326
0.000470917
0.000518008
0.000480642
0.000484014
0.00051254
0.000470429
0.000599252
0.0006566
0.000561428
0.000601467
0.000748267
0.000797437
0.000723058
0.000782898
0.000742581
0.000793403
0.000736699
0.000688149
0.000682133
0.000703424
0.00069765
0.000701636
0.000625966
0.000623727
0.000595791
0.000598611
0.000626382
0.000608204
0.00035065
0.000395249
0.000445164
0.000424218
0.00041399
0.000424292
0.00044107
0.000475654
0.000351736
0.00032469
0.000346878
0.00036461
0.000347744
0.000364812
0.000367347
0.000689181
0.000778648
0.000815503
0.000776378
0.000817477
0.000844522
0.000832662
0.000811017
0.000858763
0.000827878
0.000864139
0.000875166
0.000866431
0.000870743
0.000895177
0.000903385
0.000974792
0.00096107
0.00102485
0.000981328
0.000950501
0.0010258
0.000850486
0.000860063
0.000936849
0.00105686
0.00014468
0.000140009
7.1903e-05
0.000124054
0.000136099
0.000128349
0.000136472
0.000148052
8.29468e-05
8.62979e-05
0.00012926
3.42661e-05
2.33328e-05
3.98111e-05
0.000141329
0.000123763
0.000159843
0.000154926
0.000114301
6.26827e-05
6.87663e-05
1.02831e-05
5.87997e-05
0.000121446
0.000134359
0.000177866
0.00016571
8.08559e-05
0.000162085
0.000265281
0.000185609
0.000108435
5.41377e-05
0.000164022
0.000100223
2.52955e-05
6.24243e-05
8.37924e-05
5.30102e-06
9.60831e-05
8.73518e-05
9.76061e-05
6.59239e-05
3.73222e-05
0.000196558
0.000181543
0.000103272
0.000183309
0.000169882
0.000204949
0.000280298
0.000286136
0.000266579
0.000223786
0.00030406
0.000310898
0.000310297
0.000347088
0.00032151
0.000322505
0.000295552
0.000341593
0.000304613
0.000376237
0.000373806
0.000364237
0.000412998
0.00041059
0.000432656
0.000454216
0.000469018
0.000482233
0.000537692
0.000573662
0.000651697
0.000615518
0.000718264
0.000696174
1.34792e-05
1.97701e-06
3.03097e-05
1.19982e-05
1.41131e-05
1.11563e-05
2.76044e-05
4.90631e-05
2.1807e-05
0.000217339
0.000134904
8.19602e-05
0.000152219
7.40725e-05
5.87619e-05
6.77171e-05
9.90679e-05
5.7066e-05
0.000157723
0.000149491
0.000100226
0
0
0
0
0
1.38005e-05
0
0
0
0
0
0
0
0
2.6135e-07
0
0
0
4.74235e-07
0
0
0
0
0
0
0
0
0
0
0
0
0
0
0
0
0
0
2.1353e-07
0
0
0
0
0
6.40281e-10
8.79287e-10
1.39842e-09
0
0
0
0
0
0
0
0
0
0
0
0
0
0
0
0
0
0
0
0
0
0
0
0
0
0
0
0
0
0
0
0
0
0
0
0
0
0
0
0
0
3.04562e-09
0
6.40288e-10
0
2.19045e-09
0
0
0
0.000940788
0.000936438
0.00104622
0.000683771
0.000957361
0.00066253
0.000833455