/*--------------------------------*- C++ -*----------------------------------*\
  =========                 |
  \\      /  F ield         | OpenFOAM: The Open Source CFD Toolbox
   \\    /   O peration     | Website:  https://openfoam.org
    \\  /    A nd           | Version:  8
     \\/     M anipulation  |
\*---------------------------------------------------------------------------*/
FoamFile
{
    version     2.0;
    format      ascii;
    class       volScalarField;
    location    "15060";
    object      alpha;
}
// * * * * * * * * * * * * * * * * * * * * * * * * * * * * * * * * * * * * * //

dimensions      [0 0 -1 0 0 0 0];

internalField   nonuniform List<scalar> 
526318
(
0.000210712
6.24897e-05
0.000216768
0.000320091
0.000198941
0.000246452
6.35068e-05
0.000350953
0.00037009
8.94344e-05
0.000196745
0.000522567
0.000157421
0.000499749
0.000547142
0.000559118
0.000261023
0.000219005
0.000120724
8.94706e-05
0.000651921
0.000172929
0.00020429
0.000174962
0.000194932
0.000380297
0.000170466
0.000326662
0.000152395
0.000284182
0.000135041
0.000145042
0.000353556
0.000251981
0.000303729
0.000723326
0.000787588
0.000347439
0.000634752
0.000174549
0.000711235
0.000479562
0.000671433
0.000789795
0.0011053
0.000614531
0.000947115
0.000399476
0.00045368
0.00051987
0.0003365
0.000213961
0.000172814
0.000621144
0.00393488
0.00158065
0.000595623
0.00197269
0.000219831
0.000640294
8.12166e-05
0.000346351
0.000181646
0.000415873
0.000550687
0.000324631
0.000454376
0.000201204
0.0003691
0.000520295
5.69426e-05
0.000695611
0.000429474
0.000403356
0.000444965
0.000742499
0.00029977
0.000578209
0.000297288
0.000317265
8.22158e-05
0.000545872
0.000280684
0.000283633
0.000525748
6.91128e-05
0.000587189
0.000259566
0.000402391
0.000491316
0.000130164
0.000233978
0.000666372
0.000719874
0.00142535
0.00086742
0.0006888
0.00103372
0.000941385
0.0012621
0
0
0.0260176
0.00547843
0.00563772
0
0.000777719
0.00141978
0.000533374
0.00029518
0.000679263
0.000577769
0.000240191
0.000320126
6.72948e-05
0.000280323
0.000401964
0.000171121
0.000372319
0.00104834
0.00120314
0.00112702
0.000971048
0.00124741
0.00110048
0.00155521
0.00117643
0.0020764
0.00137837
0.00190695
0.00213777
0.00236245
0.00186991
0.00246369
0.00210428
0.00299992
0.00244721
0.00253428
0.00232728
0.00339687
0.00281793
0.00245708
0.00260183
0.00245707
0.003005
0.00306153
0.00250885
0.00250694
0.00304927
0.0024565
0.00230061
0.00257322
0.0018709
0.00229992
0.00226318
0.00190881
0.00231266
0.00218737
0.00236516
0.00274733
0.00179445
0.00150576
0.00175796
0.000353763
7.02992e-05
0.000382222
0.000155206
0.000490266
0.00033561
0.000247629
0.000463579
0.000362951
0.000477547
0.000203083
0.000112994
0.000416937
0.000300934
0.000780724
0.000176505
0.000155955
0.000951542
0.000444812
0.00125146
0.00177709
0.00118469
0.00235522
0.00216845
0.00212557
0.00236692
0.00209574
0.00244305
0.0020559
0.00240989
0.00217903
0.00211229
0.00209289
0.00193494
0.00184767
0.00242485
0.00242713
0.00215215
0.00258983
0.0013403
0.00159025
0.00198596
0.00190657
0.00185972
0.00162667
0.00177409
0.00124403
0.000616899
0.00030951
0.000821685
0.000711429
0.0018371
3.57654e-05
0.000285191
0.000131522
0.000293524
0.00101307
0.00148389
0.00192618
0.000921878
0.000330038
0.000879591
0.000409933
0.00066449
0.000583154
0.000337664
0.0118355
0
0.00308104
0.00134507
0
0
0
0
0
0
0.000120196
0.000276955
0.000209603
5.78825e-05
0.000279902
0.000224056
0.000444446
0.000348013
0.000662375
0.000447285
0.000447958
0.000179808
0.000559038
0.000436533
0.000550474
0.000159421
0.000519226
0.000703095
0.00110342
0.000895086
0.000988078
0.00115591
0
0
0
0
0.0195817
0
0.0349069
0.00205584
0.000601236
0.00141958
0.000719361
0.000277221
0.000484501
0.000393896
0.00031365
0.000448983
0.000109419
0.000360208
0.000329827
0.000169471
0.00104044
0.00119502
0.00111467
0.0013514
0.00208575
0.00154979
0.00276934
0.00230485
0.00244668
0.00300553
0.00318511
0.00256733
0.00260226
0.00138362
0.00141578
0.000850434
0.000820353
0.00120017
0.00110575
0.00163628
0.0022571
0.0025778
0.00162564
0.00104094
0.000987801
0.00293734
0.00309592
0.00268918
0.00398187
0.00290455
0.00418773
0.00402241
0.0040976
0.00344327
0.0039871
0.000348244
0.00118795
0.00202071
0.00109023
0.000125068
0.00105589
0.00110278
0.000636086
0.000477014
0.000241041
0.000313381
0.000447553
0.000309482
0.000117946
0.000409081
0.000372452
0.000931666
5.73588e-05
0.00110345
0.000223154
0.00173423
0.000674756
0.000213522
0.00185531
0.00198461
0.00224623
0.00207546
0.00207977
0.00196522
0.00219703
0.00245184
0.00192524
0.00214096
0.00232283
0.0018829
0.0019835
0.00179692
0.00182437
0.00181641
0.00179406
0.00173458
0.00139985
0.00194559
0.00138433
0.00131405
0.00114395
0.000748152
0.000925041
0.00112082
0.000682623
0.000816573
0.000754163
0.000901924
0.000748723
0.000786417
0.000925735
0.000700899
0.00075784
0.000287841
0.000651022
0.000320359
0.000515798
0.00110039
0.000735271
0.000578938
0.00246908
0.00100342
0.000806122
0.000857044
0.00023549
0.00063893
0.000583627
0.00309839
0.00203349
0.00255214
0.00337922
0.00113821
0.00082947
0.000451124
0.000869593
0.000618314
0.000508967
0.000169665
0
0
0.0111107
0
0.00633116
0.0153306
0
0
0
0
0
0
0
0
0
0
0.000164769
0.000200594
0.000116603
6.43293e-05
0.000477688
0.000284764
0.000301551
0.000338349
0.000324783
0.000250016
0.000545347
0.000556274
0.000526409
0.000570424
0.000642371
0.000616636
0.000836657
0.000526099
0.000836118
0.000662427
0.00110647
0.00108232
0
0.00232701
0.000154577
0
0
0
0
0.000263437
0.00210696
0.00165798
0
0
0
0
0
0
0
0
0
0
0
0
0.00334168
0.0190296
0.000276606
0.00433149
0.00092497
0.000477451
0.000364091
0.00050006
0.000470626
0.000199985
0.000371866
0.000101602
0.000438985
0.000212367
9.53841e-06
0.000199304
0.00135015
0.00126778
0.00154579
0.00131261
0.00160254
0.00214474
0.00269011
0.00239104
0.00249655
0.00189717
0.00229777
0.00322559
0.00291873
0.000602642
0.00109033
0.00333946
0.00152111
0.0010733
0.000583071
0.00106703
0.00450858
0.00478371
0.00339271
0.00259692
0.00402184
0.00439963
0.0045906
0.00462652
0.00278758
0.00366082
0.00320251
0.000309598
0.000600695
0.000853217
0.000459486
0.000694285
0.000562781
0.000295315
0.000310006
0.000857509
0.000565666
0.000867382
0.000358205
0.0012543
0.00186154
0.000600115
0.000534686
0.000846945
0.000539185
0.00131245
0.000413102
0.000247596
0.000230737
0.000243274
0.000616405
0.000320393
0.000442559
0.000547837
0.000900528
0.000442448
0.00167814
0.00194279
0.000559713
0.00191564
0.00170274
0.00380087
0.00255003
0.001872
0.0017459
0.00182026
0.00196079
0.00183146
0.00218684
0.00210692
0.00246144
0.0020693
0.00220601
0.00178557
0.0019158
0.00181713
0.00161998
0.0012831
0.00157467
0.00112288
0.00115977
0.00109836
0.00123162
0.00121496
0.00133875
0.00107723
0.00082109
0.00104188
0.00135598
0.000730953
0.00103338
0.000411285
0.000693935
0.000536764
0.000548702
0.000233225
0.000556669
0.000486124
1.51009e-05
0.000205327
0.000340905
6.44122e-05
0.0002489
0.000321536
0.000286358
0.00119395
0.00130909
0.00104109
0.0010917
0.000193377
0.000881401
0.00077099
0.000584543
0.0074255
0.00609364
0.00160577
0.00107085
0.000549565
0.00104096
0.00125717
0.000511437
0.00200605
0.00218253
0
0
0.250721
0
0.013187
0.00421732
0
0
0
0
0
0
0
0
0
0
0
0
0
0
0
0
0
0
0
0
0.006786
0
0
0
0.00303522
0.00814413
0
0
0
0
0
0
0
0
0
0
0
0
0
0
0.000319851
0.000292677
0.000109912
0.000481737
0.000130675
0.000548877
0.000434189
0.000475626
0.000488072
0.000599047
0.000617084
0.000530966
0.000759164
0.000483747
0.000492133
0.000547154
0.000705976
0.000744239
0.000672431
0.000794927
0.0012069
0.00115752
0
0
0
0
0
0
0
0
0
0
0
0
0
0
0
0
0
0
0
0
0
0
0
0
0
0
0
0
0
0
0.00546068
0
0.00199695
0.00510192
0.000442315
0.00195545
0.000269951
0.000372545
5.19386e-05
0.000300031
0.000224712
0.000220576
8.75949e-05
0.000286726
0.000169334
0.000215377
0.000335809
0.000103588
0.00292806
0
0
0
0
0
0
0
0
0
0
0
0
0
0
0
0
0.000999912
0.00119712
0.00106743
0.00128282
0.00246053
0.00163275
0.00282374
0.00243568
0.00348578
0.00295103
0.0047831
0.003819
0.00293504
0.00318542
0.00447289
0.00114112
0.00121539
0.00176342
0.00224628
0.0005882
0.00408456
0.00502919
0.00939117
0.00204576
0.00462057
0.00430822
0.0045289
0.00505588
0.00726022
0.0103804
0.0179298
0.00922546
4.38928e-05
0.000353766
0.0001164
0.000235947
0.000250471
0.00062527
0.00039497
0.000112461
0.000155877
0.000213174
0.000709847
0.000177429
0.000566469
0.000233302
0.000592747
0.00104783
0.000813181
0.0010965
0.00261178
0.000499547
0.000999298
0.00133102
0.000996895
0.0003633
0.000633648
0.00038391
8.79368e-05
0.00105371
0.000920733
0.000362249
0.000223772
0.000319372
0.00124778
0.000899322
0.00187031
0.00220998
0.00166232
0.00192135
0.00400284
0.00254542
0.00800286
0.0046648
0.00243275
0.00449445
0.00264025
0.00170821
0.00196504
0.0024057
0.00238865
0.002052
0.00177522
0.00197652
0.00170325
0.00154126
0.00147071
0.0014003
0.00133515
0.00140112
0.00144743
0.001326
0.0010816
0.000936733
0.000965593
0.00110975
0.00105094
0.000820241
0.000861034
0.000925127
0.000754926
0.000720043
0.000164321
0.000496852
0.000256533
0.000347836
0.00013676
0.000343617
0.000174903
0.000173402
0.000290074
5.00525e-05
0.000147701
0.000207157
0.000167767
0.000123844
0.000250866
0.000193169
0.000220995
0.000319644
0.000149519
0.000142849
0.000124573
0.000136963
6.30105e-05
0.000160136
0.000103058
0.000170992
0.000113096
0.000195643
0.000201202
0.0001079
0.0001375
0.000193622
0.000205509
0.000111292
0.000160003
0.000163947
0.000178243
0.000121241
0.000227175
0.000167783
0.000107706
0.000207435
0.000117228
0.000215227
0.000188133
0.000168847
0.000178242
0.000233741
0.000229349
0.00014831
0.000173125
0.00126756
0.00173442
7.26089e-05
0.00124408
0.000791792
0.000727152
0.00103646
0.00168212
0.000382129
0.00733192
0.00322419
0.00403834
0.00172044
0.00828665
0.00564293
0.0176952
0.00160018
0.00284569
0.00289377
0.00725969
0.00467319
0.0101354
0.00348747
0
0
0
0
0
0
0
0
0
0
0
0.00577466
0
0
0
0
0
0
0
0
0.0106251
0
0
0
0
0
0
0
0
0
0
0
0
0
0
0
0
0.00782958
0
0
0
0
0
0
0.00517351
0
0.00341387
0
0
0
0
0
0
0
0
0
0
0
0
0
0
0
0
0
0
0
0
0
0
0
0
0
0.000192058
0.000218526
0.000283865
0.000187963
0.000238738
5.8269e-05
0.000942013
0.000593606
0.000565985
0.000391149
0.000663687
0.000451239
0.000739671
0.000760706
0.000732718
0.00073384
0.00101837
0.000586928
0.000572508
0.000601321
0.000881139
0.000692232
0
0
0.150525
0.16282
0
0
0
0
0.0524607
0
0
0
0
0
0
0
0
0
0
0
0
0
0.00832833
0.00707214
0
0
0.0854205
0.00347977
0.00153504
0.00521868
0.000854863
0.000517698
0.000305363
0.000384338
0.000120972
0.000194599
0.000376017
0.000212677
0.000488173
0.000435218
0.000431896
2.28442e-05
0.000228421
0.000219376
0.0053686
0
1.0822
0
0
9.46675e-05
0
0
3.59589e-05
0
0
0
0
0
0
0
0
0
0
0
0
0
0
0
0.528256
4.93112
0.000871077
0.000886273
0.00141032
0.0013115
0.00273976
0.00224166
0.00262899
0.00577519
0.00481492
0.00211669
0.00638765
0.00320255
0.00581462
0.00850689
0.00688436
0.00337731
0.00141736
0.00252744
0.002998
0.00167279
0.0277148
0.00981746
0.00494732
0.00877422
0.00929766
0.0040495
0.00640185
0.0494523
0.0426214
0.0168156
0.0157703
0.0225731
0.000182846
0.000268625
0.000172272
0.000472726
0.000348549
0.000730462
0.000154475
0.00039207
0.000318479
0.000166807
0.000202613
0.000338592
0.000251437
0.000281381
0.000259889
0.000268581
0.000299525
0.000237056
0.00029143
0.000262311
0.000264233
0.000294497
0.000264208
0.000275927
0.000176362
0.000219762
0.000170363
0.000137595
0.000246148
0.000282257
0.000548442
0.000919349
0.000605685
0.000397753
0.000564744
0.00179675
0.000693535
0.000813399
0.0020798
0.000788946
0.00264794
0.00144269
0.00464935
0.000941991
0.00121402
0.000714294
0.000436984
0.00121363
0.00100525
0.000650726
0.00173548
0.00133165
0.00075591
0.00365731
0.0188499
0.0237576
0.111372
0.0215193
0.00258523
0.00823791
0.036743
0.00533917
0.00238439
0.00480116
0.00220108
0.0036553
0.00322349
0.00201592
0.00175481
0.00203005
0.00156874
0.00161954
0.00161775
0.00137786
0.00138102
0.0014422
0.00124918
0.0014102
0.00116777
0.00114836
0.000983727
0.000892309
0.000931209
0.000980145
0.000766797
0.000805561
0.000829025
0.000708748
0.000323806
0.000412006
5.02076e-05
0.000559992
0.000645816
0.000320968
0.000300476
0.000205681
0.000130901
0.000409366
0.000224386
8.24265e-05
7.43877e-05
0.000204123
8.67217e-05
4.77332e-05
7.32584e-05
7.75829e-05
6.36646e-05
5.34726e-05
4.45265e-05
9.32234e-05
0.000100059
9.19746e-05
0.000118619
8.77081e-05
0.000127202
0.000101423
0.00011613
0.000109099
0.000148323
0.000139054
0.000180815
0.00012159
9.49935e-05
0.000133044
5.6398e-05
0.000121286
6.10674e-05
6.53464e-05
3.59286e-05
6.74084e-05
0.000128071
6.44952e-05
5.06275e-05
0.00269702
0.00851681
0.00145178
0.00136947
0.00290087
0.00220134
0.00042182
0.00265966
0.000637768
0.00181819
0.00628016
0.00475699
0.00373174
0.00583952
0.00765254
0
5.34476
0.00238499
0.128906
0.00352003
0.00444295
0.0248743
0.018983
0.034764
0.0342075
0
0
0
0
0.00458929
0.0144736
0
0
0
0.00682994
0
0
0
0
0
0
0
0.0155344
0
0
0
0
0
0
0
0
9.64208e-05
0
0
0
0
0
0
0
0
0
0
0
0
0
0
0.00136265
0
0
0
0
0
0
0
0
0
0
0
0
0
0
0
0
0
0
0.000242234
0.000204173
0.000145767
0.000366661
0.00050185
0.000643583
0.000697826
0.000254574
0.000470381
0.00092403
0.000235052
0.000604942
0.00083526
0.000605614
0.000857357
0.00057848
0.000969108
0.000485859
0.000593997
0.000526019
0.000693458
0.00061264
0.828816
0
0.206284
0
0
0
0
0
0
0
0
0
0
0
0
0
0
0
0
0
0
0
0
0
0
0
0.0102173
0.000298643
0.00120031
0.00211797
0.000186103
0.000280641
0.000141403
0.000267579
0.000243093
0.000317906
0.000444382
0.000261198
0.000582474
0.000202621
0.000297839
0.000276851
0.000161113
0.000311562
0
0
0
0
0
0
0
0
0
0
0
0
0
0
0
0
0
0
0
0
0
0
0.488145
0
0
0
0
0
0
0
0
0.000972052
0.0015933
0.00245192
0.00132924
0.00326964
0.000499661
0.00257853
0.00292053
0.00109258
0.00195593
0.000953857
0.00447725
0.00796668
0.0163811
0.0403085
0.012641
0.00615814
0.00639079
0.00401434
0.000245012
0.00367229
0.000509345
0.00722261
0.00722986
0.0330724
0.0194145
0.004477
0.100929
0
0.121376
0.0650324
0.0344363
0.057515
0
0
0.000163646
0.000123338
9.37551e-05
0.000113326
7.78883e-05
8.61705e-05
7.23023e-05
7.44512e-05
9.34676e-05
9.39814e-05
0.000144988
8.43369e-05
0.000166847
6.93885e-05
7.53039e-05
7.90371e-05
7.3954e-05
7.31245e-05
0.000139018
7.40037e-05
9.70962e-05
8.24123e-05
0.000126467
6.32967e-05
0.000105818
0.000130764
0.000108936
0.000173666
0.000148145
0.000214271
0.000140513
0.000116716
0.000195953
0.000155367
7.69087e-05
0.00018036
0.000305689
0.000246435
0.000424867
0.000717157
0.000517772
0.00024177
0.000326736
0.000410418
0.000201195
0.00037163
0.000233965
0.000341217
0.000316022
0.000300841
0.00030496
0.000342564
0.000340017
0.000341571
0.00037314
0.000360265
0.000316741
0.000325169
0.000316779
0.00027746
0.000214667
0.000297505
0.000317467
0.000557208
0.000978341
0.000796659
0.00104192
0.000781129
0.000506771
0.000593294
0.000600595
0.00066347
0.0028254
0.00436239
8.02984e-05
8.26485e-05
9.67793e-05
8.54805e-05
0.000109605
0.000102863
9.64312e-05
0.000120388
9.89222e-05
0.0001042
6.22672e-05
9.88087e-05
9.10635e-05
0.000109203
0.000113958
7.40633e-05
0.000117479
0.000122049
0.00345925
0.00809812
0.0026956
0.00133567
0.00326203
0.000837179
0.00339407
0.00127396
0.00383899
0.00390743
0.00617658
0.00676415
0
0.0223061
0
0
0.939478
0
0.010485
0.00955847
0.408209
0.00168057
0.0059249
0.00346739
0.0028701
0.00445775
0.00197978
0.00240764
0.0018031
0.0020528
0.00167939
0.00165797
0.00150403
0.00134557
0.00117457
0.00134705
0.00121016
0.00127613
0.000803656
0.000933513
0.000755394
0.000689267
0.000598468
0.000733826
0.000488687
0.000497208
0.000456426
0.000641879
0.000438705
0.000637319
0.000325299
0.000273838
0.000415654
0.000454831
0.000143951
0.000430745
0.000167052
8.25052e-05
8.52913e-05
0.000108347
3.37663e-05
0.000155631
0.000149719
8.20674e-05
1.99362e-05
7.48419e-05
7.23276e-05
6.31564e-05
0.000109846
7.69127e-05
0.000106624
8.93811e-05
7.70612e-05
8.5231e-05
3.22525e-05
8.81573e-05
7.47244e-05
0.000139835
0.000205039
0.000112641
0.000123402
0.000340095
7.42314e-05
0.000207711
0.000156894
0.00932132
0.00572482
0.0186476
0.0049833
0.0050308
0.0026331
0.0307473
0.00330274
0.00782756
0.00761812
0.00776322
0.0149575
0
0.0212262
0.00739545
0
0
0
0
0.00666078
0.027312
0.0203508
0.00734729
0
0
0
0
0
0.00253255
0.00295592
0.0212006
0
0
0
0
0
0
0
0
0
0
0
0.00969874
0
0
0
0
0
0
0
0
0.208339
0
0
0
0
0
0
0
0
0
0
0
0
0.000681737
0
0
0
0
0.00501705
0
0
0
0
0
0
0
0
0
0
0
0
0
0
0
0
0
0
0
0.00230524
0
0
0
0
0.00257965
0.000115007
4.06096e-05
0.000152071
0.000106722
0.000120379
0.000125022
0.000669567
0.000498382
0.000303941
0.00058137
0.00036593
0.000629185
0.000281145
0.000480254
0.00052781
0.00044851
0.000476596
0.000399771
0.000547961
0.00044176
0.000780151
0.000488448
0.000664157
0.000466857
0.000577461
0
0
0
0
0
0
0
0
0
0
0
0
0
0.00495887
0.00214089
0.00135898
0
0
0
0
0
0
0
0
0
0
0
0.000359135
0.00074105
0.000426777
0.000161463
0.000172339
0.000540744
0.000513816
0.000356003
0.000126112
9.86102e-05
0.000164157
0.000162458
0.000221271
0.000232778
0.000350909
0.000146658
0
0.00102085
0
0
0
0
0
0
0
0
0
0
0
0
0
0
0
0
0
0
0
0
0
0
0
0
0
0
0
0
0
0
0
0
0
0
0
0.000950131
0.000496642
0.000860108
0.0012629
0.00230567
0.000678444
0.00219902
0.00435155
0.00376589
0.01529
0.03159
0.0027834
0.00110998
0.0243496
0
0
0
0.0194041
0.0265625
0.0161509
0.065795
0.00547603
0.0144793
0.00236438
0.00266949
0
0
0
0
0
0
0
0
0
0
0
0
0.000145463
0.000104774
0.000102797
0.000111238
7.37637e-05
0.000113507
0.000186014
8.19681e-05
5.72034e-05
0.000106457
5.51645e-05
8.77061e-05
9.49299e-05
7.58725e-05
0.000154429
0.000145893
0.000204211
0.000258834
0.00026143
0.000154974
0.000148034
0.000174315
0.000312282
0.000406253
0.000469463
0.000359005
0.000599646
0.000579945
0.000385
0.000445409
0.000426854
0.000345437
0.000443103
0.000474378
0.000375994
0.000344407
0.000408851
0.000513113
0.000399124
0.000360469
0.000353121
0.000407318
0.000349037
0.00039022
0.000374734
0.000399607
0.000341319
0.000309283
0.000354046
0.000274355
0.000319945
0.000349185
0.000314278
0.000560475
0.000576499
0.00099664
0.000587596
0.00155281
0.00101576
0.000567027
0.000699535
0.00075047
0.000554663
0.00203501
0.00195707
8.92786e-05
0.000133133
5.49486e-05
0.000111292
0.000112199
0.000114235
8.1974e-05
0.000107837
7.66262e-05
6.26238e-05
0.000105362
0.000102823
7.47899e-05
0.000108455
0.000129479
0.000123824
0.000122111
0.000130075
0.000101978
9.74665e-05
0.000108332
9.5394e-05
0.000114353
0.000100336
0.00016536
0.00468697
0.015791
0.016152
0.0187427
0.00179104
0.00411504
0
0.142926
0.03159
0
0
0
0
0
0
0
0
0
0.010226
0.0623193
0.11798
0.00327616
0.00263695
0.00275239
0.00322123
0.002006
0.00231098
0.00189089
0.00168985
0.00206184
0.00124412
0.00156943
0.00124565
0.00112397
0.00118406
0.00121451
0.00074197
0.000868065
0.000525871
0.000742889
0.000716359
0.000400044
0.000731099
0.000622169
0.000519585
0.000574734
0.000582581
0.000485348
0.000536195
0.000579879
0.000413347
0.000242614
0.000405056
0.000331651
0.000137885
0.000237226
0.000112291
0.000106105
9.65544e-05
0.000330767
0.000207411
9.43607e-05
0.000112081
0.000101302
5.70832e-05
7.75075e-05
0.000137336
7.95242e-05
0.000109806
0.000107158
4.53656e-05
5.62374e-05
7.28676e-05
8.84326e-05
7.7918e-05
0.000167445
9.48652e-05
0.000155211
0.000321797
8.09244e-05
0.000396744
0.000389197
0
0
0
0
0.0182081
0.0234238
0.0741758
0.0657496
0.0223046
0
0
0
0
0
0
0
0
0
0
0
0
0
0
0
0
0.000226355
0
0
0.00724865
0.00196797
0
0
0
0
0
0
0
0
0
0
0
0
0.281257
0
0
0
0
0
0
0
0
0.144338
0
0
0
0
0.00358619
0
0
0
0
0
0
0
0.00223411
0.00223963
0
0
0.00329088
0.00447592
0
0
0
0
0.00618498
0
0.00823816
0
0
0
0
0
0
0
0
0
0
0
0
0
0
0
0
0
0.00397501
0
0
0
0
0
0
0
0
0.000255681
0.000300928
7.47537e-05
0.000100024
0.000132053
0.000149393
0.000140368
0.000146748
0.000165347
0.000114187
0.000205893
0.000750495
0.000493945
0.00056838
0.000339193
0.000645225
0.000515183
6.35234e-05
0.00020336
0.000460429
0.000301508
0.000521925
0.000223877
0.000617923
0.000653448
0.000526558
0.000803089
0
0
0
0
0
0
0
0.0031722
0.00178575
0.00222883
0
0
0
0
0.0347457
0
0
0
0
7.69145e-05
0
0
0
0
0
0.000333155
0.000578114
0.000279294
0.000483049
0.000480541
0.000280818
0.000421347
0.000216107
0.000367998
8.73805e-05
0.000384002
0.000576669
0.000541214
0.000657398
0.000645361
0.000719366
0
0
0.000963668
0
0
0
0
0.000411383
0
0
0
0
0
0
0
0.00965384
0
0.00429351
0.00731001
0
0
0
0
0
0
0
0
0
0
0
0.0135393
0
0
0
0
0
0
0
0
0
0
0
0
0
0.00364222
0.000511311
0.000469265
6.01796e-05
0.00115375
0.000837187
0.00201078
0.00238817
0.00696988
0.00543856
0.3964
0.101699
0
0.851832
0.00543255
0.001576
0
0
0
0
0
0
0.0215685
0.0175476
0.010332
0.00850787
0.00358827
0.00445363
0
0.00274746
0
0
0
0
0
0
0
0
0
0.00358723
0.000181236
7.4611e-05
2.95015e-05
0.000266332
0.000136108
0.000181478
7.6279e-05
0.000302786
0.000264054
8.77606e-05
0.000259663
0.000120574
0.000143625
0.000133617
0.000121904
0.000123539
0.000105556
0.000102169
0.000108734
0.000126639
0.000118967
0.000216434
0.0002458
0.000301131
0.000239645
0.000253119
0.00023753
0.000173346
0.000509983
0.00056674
0.000523865
0.000464336
0.000539879
0.000570537
0.000525818
0.000631452
0.000467989
0.000428985
0.00043747
0.000544132
0.000435467
0.000314486
0.000383126
0.000466992
0.000307461
0.000383194
0.000367277
0.000327488
0.000321956
0.000334164
0.000332089
0.000339875
0.000390561
0.000251647
0.000311463
0.000358455
0.000350823
0.000284182
0.000903451
0.00145485
0.000746452
0.000847412
0.00104941
0.00150079
0.000736281
0.000710088
0.00103345
0.000509421
0.000240286
0.00226118
5.58282e-05
0.000265191
4.25764e-05
8.27483e-05
0.000151355
7.677e-05
5.81066e-05
0.000115526
0.000144665
9.26404e-05
0.000120502
0.000132086
9.94186e-05
0.000133068
8.52477e-05
0.000146109
0.000110469
0.000135844
0.000109388
0.000120678
0.000115644
0.000109796
0.00010597
0.000122227
0.000162188
0
0
0
0
0
0
0
0
0
0
0
0
0
0
0
0
0.0984777
0
0.0298721
0.0325084
0.13667
0.00695021
0.00203785
0.00150865
0.00182995
0.00175349
0.00327733
0.00182538
0.00155474
0.00139173
0.00121326
0.00086121
0.00115368
0.000979025
0.000768179
0.000549003
0.000562841
0.000752994
0.000862392
0.000738745
0.000660646
0.00057971
0.00058853
0.000591032
0.000587504
0.00058037
0.000584575
0.000556636
0.000467623
0.000432922
0.00015981
0.000282575
0.000224265
0.000309526
0.000242588
0.000140019
0.000112055
0.000158874
0.000183772
0.00012174
0.000133277
7.75081e-05
0.00016608
9.02582e-05
0.000112525
0.000116945
4.22979e-05
0.000113025
8.42781e-05
5.2139e-05
8.60247e-05
5.85721e-05
0.00012567
9.83161e-05
0.00016029
0.000116362
7.62656e-05
0.00024438
0.000485024
0
0
0.00864004
0.000185845
0
0
0
0
0.45523
0
0
0.211255
0
0.113302
0.171264
0.0799425
0.0543714
0
0.037461
0.0112692
0
0
0
0.00491784
0
0.00468944
0.000628872
0
0
0
0
0
0
0
0
0.0881244
0
0
0
0
0
0
0.436181
0
0
0
0
0
0
0
0
0
0
0
0
0
0
0
0
0
0
0
0
0
0
0
0
0
0
0
0
0
0
0
0
0
0
0
0
0
0
0
0
0
0
0
0
0
0
0
0
0
0
0
0
0
0
0
0
0
0
0
0
0
0
0
0
0
0
0
0
0
9.79147e-05
0
0
0
0
0.000156101
0.000138845
0.000162315
0.000170939
0.000159814
0.000183602
0.000166469
0.000114307
0.000130153
8.47933e-05
0.000143647
0.000173588
0.00012888
0.000204583
0.000206568
0.000997908
0.000834772
0.000412209
0.00017742
0.000719458
0.00046973
0.000344304
0.00020308
0.000523682
0.000374889
0.00064025
0.00102991
0.000533044
0.000641507
0
0
0
0
0.00530278
0.00163179
0.00193506
0
0
0.0238889
0
0
0
0
0
0
0
0.0126369
0.00792879
0
0.00725498
0
0
0
0.000250312
0.000423996
0.000554939
0.000220233
0.000274774
0.000558115
0.000713249
0.000576281
0.000226449
0.000121136
0.000779602
0.00047551
0.000120592
0.000337873
0.00049575
0.000189491
0
0.00340084
0
0
0
0
0
0.000104166
0
0
0.000344201
0
0
0
0.000872656
0
0
0
0
0
0
0
0
0
0
0
0
0
0
0
0
0
0
0
0
0
0.00513624
0
0.0107503
0
0
0
0
0
0
0
0
0
0
0
0
0
0
0
0
0
0
0.00153271
0.00183505
0.00165177
0.00395849
0.00206082
0.00919457
0.0161397
0.00508284
0.00931962
0.0366525
0.0354628
0
0
0
0
0.0179609
0.0222281
0
0
0
0
0.00666934
0.0011451
0.0169082
0
0
0.0522512
4.3547
0.0366296
0
0
0
0
0.00151642
0.00243591
0
0
0
0
0
0
0.000214131
0.000353358
0.000179138
0.000432504
0.000252061
0.000495374
0.000241827
0.000647218
0.000220571
0.000248369
0.00029767
0.000309398
0.000308163
0.000190192
0.00017058
0.000130841
0.000153057
0.000150296
0.000131594
0.000173801
0.000192129
0.000332293
0.000316725
0.000291578
0.000272855
0.000307529
0.000249499
0.000625358
0.000636952
0.00052185
0.000579172
0.000606525
0.000581489
0.000752096
0.000588639
0.000424134
0.00038757
0.000564105
0.000448541
0.000332809
0.000266824
0.000311542
0.000250921
0.000249402
0.00021794
0.000273321
0.000233906
0.000227044
0.000418482
0.000431087
0.000332842
0.000464871
0.000265903
0.000344239
0.000363255
0.00034285
0.000414657
0.00206003
0.00109835
0.000937471
0.000590313
0.00102855
0.000929838
0.000830052
0.000798015
0.000452915
0.00161796
0.000884878
0.00302342
0.00224157
0.00315925
0.00247046
5.62383e-05
0.000147379
0.000243915
0.000115229
6.57211e-05
0.000209682
0.000178135
0.000115018
0.000122152
0.00012012
0.000140551
0.000103138
0.000101389
0.000155505
0.000119659
0.000130354
0.000124657
0.000122561
0.000104798
0.000134821
0.000106437
0.00014473
0.000148499
0.00012873
0.000124274
0.0001181
0
0
0
0
0
0.000908253
0.0239107
0
0
0
0
0.00371186
0.00552341
0
0
0
0
0
0.00138506
0.0433408
0
0.00738414
0.000747566
0.00473799
0.00329624
0.0018913
0.00201267
0.00312168
0.00134264
0.000784507
0.0010147
0.00103871
0.000710023
0.000796533
0.000478981
0.000563554
0.000682503
0.000637275
0.000541318
0.000690535
0.000641948
0.000659274
0.000510975
0.000522863
0.000506562
0.000559641
0.000641098
0.000532654
0.000320754
0.000327824
0.000270219
0.000226272
0.000298939
0.000274999
0.000184564
0.00018047
0.000147733
0.000160545
0.000165423
0.000114459
0.000185113
0.000113981
0.000138128
0.000140712
0.000125985
7.41252e-05
0.000107484
8.4745e-05
0.000106193
7.38001e-05
0.000126296
9.89976e-05
0.00013848
0.000159873
0.000125534
0.000150779
0.000328537
0.000155597
0
0
0
0
0
0
0
0
0
0.246111
0
0
0
0.217354
0.135705
0.0983772
0.0876775
0.0158475
0.09236
0
0
0
0
0
0
0
0
0
0
0
0
0
0
0
0
0.0835989
0
0
0
0.0100155
0
0
0
0
0
0
0
0
0
0
0
0
0
0
0
0
0
0
0.0363585
0
0
0
0
0
0.00226948
0.00218258
0.00437971
0
0
0
0
0
0
0
0
0
0
0
0
0
0
0
0
0
0
0
0
0
0
0
0
0
0
0
0
0
0
0
0
0
0
0
0
0
0
0
0
0
0.00632675
0
0.00280553
0
0.0107151
0
0
0
0.00015338
0.000131884
0.000120487
0.000168798
0.000165381
0.000188031
0.000156922
0.000207028
0.000111084
0.000141196
9.45195e-05
0.000118123
0.000160796
0.000153973
0.000207923
5.8511e-05
0.000126235
0.000253034
9.93251e-05
8.67595e-05
0.000288822
0.000427013
0.00032488
0.00019864
0.000102946
0.000324368
0.000361505
0.000519401
0.000386547
0.000216291
0.000181365
0.000211339
0.00126264
0
0
0.000909173
0.0011421
0.00358576
0
0
0.0139831
0.0069557
0
0
0
0
0
0
0
0
0
0
0
0
0
0
0
0.000240816
8.92472e-05
0.000154989
0.000214435
0.000565695
0.000715999
0.000856786
0.000170395
0.000450482
0.000400598
0.000612544
0.000206353
0.000531179
0
0
0
0
0
0
0.0168592
0.00705943
0
0
0
0
0
0
0
0
0
0.000896291
0
0
0
0
0
0
0
0.00272484
0
0
0.0196666
0
0
0
0
0
0
0
0
0
0
0
0
0
0
0
0
0
0
0
0
0
0
0.00231683
0
0
0
0
0
0
0
0
0
0
0
0.00165604
0.00635733
0.00212714
0.00409977
0.0116916
0.0137483
0.00616609
0.0418707
0.00613759
0.371748
0.490592
0
0
0
0
0
0
0
0
0
0
0
0
0.0526315
0.0192112
0
0
0
0.0210886
0.00400111
0.0102816
0
0
0
0.00397049
0
0
0
0
0
0
0
0
0.000458806
0.000440519
0.000879283
0.000354569
8.46916e-05
0.000288104
0.000407717
0.000166682
0.00028496
0.000145312
0.000238118
0.000202531
0.00020125
0.000222155
0.000259582
0.000161951
0.000222121
0.000153405
9.34849e-05
0.000178842
0.00023913
0.000184946
0.00035308
0.000346443
0.000401925
0.000300339
0.000299817
0.000240989
0.000659106
0.000669996
0.000581233
0.000685556
0.000615886
0.000632186
0.000751519
0.000796173
0.000300229
0.000414859
0.000457215
0.000603934
0.000175323
0.000111113
0.000145049
0.000252121
8.27556e-05
0.000156127
0.00011533
0.00021213
0.000231296
0.000248267
0.000348878
0.000248522
0.000100618
0.00031393
0.000333595
0.000338102
0.000306233
0.000493468
0.00121266
0.00207736
0.00122417
0.000771037
0.00120341
0.000959574
0.000978283
0.000858435
0.00163481
0.000414212
0.00302115
0.00153682
0.00292186
0.000983129
0.000128243
0.000168835
0.000119813
0.000161982
0.000117367
0.000177316
0.000140399
0.000158524
0.000145638
0.000160455
0.000115452
0.00015013
9.34228e-05
0.000118487
0.000138349
0.00010656
0.000125724
0.000107419
0.000117528
9.44114e-05
0.000117572
0.000155595
0.000113688
0.000112261
0.000105871
0
0
0
0
0
0
0
0
0
0.00405254
0
0
0
0
0
0.000114661
9.38494e-05
0
0
0.0129879
0
0.00478358
0.000532711
0.000519123
0.00387713
0.00162225
0.00147665
0.00139251
0.00103299
0.00157655
0.000899903
0.00136627
0.000463
0.000692706
0.00053946
0.000601389
0.000667564
0.000584989
0.000584264
0.000467374
0.00057977
0.000623536
0.000463138
0.000495943
0.000381234
0.000444376
0.000603236
0.000474525
0.000322774
0.000321631
0.00020241
0.000207687
0.000263539
0.000252591
0.000118262
0.000182346
0.000150345
0.000180219
0.00013825
0.000171989
0.000141475
0.00015322
0.000111881
0.000138329
8.50906e-05
0.000112987
0.000133489
0.000107436
0.00012388
0.000143795
0.000164373
0.000155724
0.000165494
0.000199162
0.000218469
0.000161113
0.000149789
0.000186412
0
0
0
0
0
0
0
0
0
0.000188594
0
0
0
0
0
0
0
0.101295
0
0
0.083358
0
0
0
0.00536041
0
0
0
0
0
0.00265597
0
0
0
0
0
0
0
0
0
0
0
0
0
0
0
0.00452933
0.0076909
0.00787729
0
0
0
0
0.00330567
0
0
0.00386555
0
0
0
0
0.00607184
0
0.00178602
0
0
0
0
0
0
0
0
0
0
0
0
0
0
0
0
0
0
0
0
0
0
0
0
0
0
0
0
0
0
0
0
0
0
0
0
0
0
0
0
0
0
0
0
0
0
0
0
0
0
0
0
0
0.00308193
0
0
0
0.0115317
0
0
0.000104428
0.000133332
0.000107117
0.000124009
0.000148457
0.000135718
0.00013575
0.00015317
0.000137554
0.000104758
0.000120182
0.000106714
0.000162274
0.000142856
0.000141045
0.000149018
0.000203445
0.000162991
0.000166577
0.000180467
0.000112839
0.000132721
0.000107025
0.000160376
0.000266493
0.000215836
0.000416416
0.000412416
0.000232971
0.000413537
0.000107732
0.000510471
0.000368919
5.61973e-05
0.000820068
0.000282492
0.00111593
0.00115821
0.00430368
0.00173489
0.000577087
0