/*--------------------------------*- C++ -*----------------------------------*\
  =========                 |
  \\      /  F ield         | OpenFOAM: The Open Source CFD Toolbox
   \\    /   O peration     | Website:  https://openfoam.org
    \\  /    A nd           | Version:  8
     \\/     M anipulation  |
\*---------------------------------------------------------------------------*/
FoamFile
{
    version     2.0;
    format      ascii;
    class       surfaceScalarField;
    location    "15060";
    object      phi;
}
// * * * * * * * * * * * * * * * * * * * * * * * * * * * * * * * * * * * * * //

dimensions      [0 3 -1 0 0 0 0];

internalField   nonuniform List<scalar> 
788991
(
0.00452258
0.00758603
-0.0342405
0.0167163
0.00248467
0.0227752
0.0103555
-0.023955
-0.0181317
-0.008492
-0.00439227
0.0142324
0.0115896
-0.0172388
-0.00515429
-0.0288325
0.0110474
-0.00227057
-0.00847694
0.0143718
0.0240005
0.0125336
-0.00471639
0.0415298
-0.0395284
0.0125896
-0.0128928
0.0102242
0.0226184
0.00343245
0.0106477
0.0199856
0.0174021
-0.00886546
0.0260164
-0.0151001
-0.0216648
-0.0174591
0.000414548
-0.0198738
-0.0395483
-0.00594674
0.0198182
-0.0317369
0.0307591
0.0451793
0.0174515
0.0167335
0.0020258
-0.0847825
0.0360808
0.0574495
-0.0139441
0.0172971
0.0226992
-0.00928507
0.0373764
-0.0490464
-0.00258505
0.0417519
0.00152583
-0.0514587
-0.00437873
0.0264796
-0.0152684
0.01456
0.0287864
0.00127588
0.00270119
-0.0235291
-0.00665872
0.00809609
0.0749741
-0.0218414
0.00838642
-0.0648416
0.00641334
-0.0112864
0.0128096
0.0431155
0.0223811
-0.0104182
0.0596177
-0.0331475
-0.0101056
-0.0658804
0.0443712
-0.0265888
-0.0497296
-0.00847217
-0.0282029
-0.0158013
0.00156976
-0.0227245
0.0158078
0.0157335
-0.00343019
0.0326388
-0.0426498
-0.00175658
0.0304878
-0.00912336
0.00149426
-0.0281171
-0.00250333
-0.000254411
-0.0215278
0.0261574
-0.0456216
0.0257927
-0.0293282
-0.0165536
-0.0191008
0.000400002
-0.0277128
-0.018428
-0.0203994
-0.0108016
-0.0354705
0.0519989
0.0677739
-0.0377683
0.0309653
-0.0302471
-0.000128519
-0.0882461
0.0446054
-0.0258716
-0.040757
0.0787396
-0.020019
-0.0117896
0
0
0.0159581
-0.000409233
0.00860462
-0.00289887
-0.0145552
-0.00722699
0.0298786
0.00693926
-0.0204581
0.0242495
0.0410789
0.0177547
0.0282173
0.0350691
0.0169175
0.00807142
0.0130988
-0.00487047
-0.0333885
0.00257483
0.0302193
-0.0382508
-0.022985
-0.0526197
-0.0762566
0.0308054
-0.0307543
0.093282
-0.0511697
-0.0919335
0.0397829
-0.0361276
0.0920352
-0.0524619
-0.114267
0.0541594
-0.0444574
0.0997525
-0.0572231
-0.114955
-0.0594874
-0.0546401
-0.100753
-0.0463475
-0.114288
-0.0623409
-0.0570202
0.104021
-0.040091
-0.100448
0.058391
-0.0573873
0.101612
-0.0347534
-0.0914366
-0.0563711
-0.0596816
-0.102874
-0.024228
-0.0887604
0.0538422
-0.0630631
0.0948742
-0.0304733
-0.0884668
0.0530373
-0.0621947
-0.0893273
-0.0351941
-0.0972594
-0.0538738
-0.0545882
0.0814502
0.0313662
-0.0890039
0.0234406
-0.0486031
-0.0582714
0.00742878
0.0589302
0.0317016
0.0231012
0.0141589
0.0355544
0.0627014
-0.00341707
0.0115511
-0.00394919
-0.00837912
-0.0207201
-0.0160519
0.00237227
-0.0133019
0.0167152
-0.012255
-0.00389154
-0.013527
-0.0144259
-0.00297656
-0.0331605
-0.00618166
0.00536989
-0.042401
-0.0253413
-0.0107215
0.0385604
-0.061132
-0.0175027
-0.0620583
-0.0826018
0.0257866
-0.0655849
-0.117597
-0.047071
-0.058122
-0.12217
0.0539086
-0.0573194
-0.119184
0.0599658
-0.0453313
-0.113501
0.0597229
-0.0383531
-0.0946157
-0.0546478
-0.0386247
-0.0868027
0.0498241
-0.0420719
-0.0877673
-0.0508189
-0.0509534
-0.0998791
0.0491885
-0.06729
-0.0220021
-0.05237
-0.0416275
-0.0950928
-0.0213013
-0.0471982
-0.0378762
-0.049558
-0.0632727
-0.0161102
-0.0383923
0.0532123
0.0871202
0.0144616
-0.0204527
-0.0549784
-0.0513773
0.0704762
-0.00556464
0.0602927
-0.0157482
0.000710531
0.0156322
0.0162755
-0.0506511
-0.00564912
0.0459415
0.0128245
-0.0858848
-0.0118313
-0.00600164
0.00652775
-0.00409518
-0.00358947
0.00529249
0.00331113
0.0239777
0.00142395
0.0138559
-0.0360879
0
-0.0165347
0.0330948
0.00092316
-0.00657128
0
0
0
0
0
0
0
0
-0.0421299
-0.0101519
-0.00097891
-0.0462917
-0.0160767
-0.00114991
-0.0159969
-0.0475076
0.013039
0.0303539
-0.0360049
0.0195283
-0.0264126
-0.0433397
-0.020211
-0.00101185
-0.0322825
-0.0277173
-0.0198533
-0.0333582
-0.0469799
0.0300398
-0.0182136
0.0415824
0.0401841
-0.0507973
0.072538
0.0526534
-0.0269685
0.0906798
0.0467731
-0.0428814
0.0887051
0
0
0
0
0
-0.000449415
0
-0.00226852
0.00317263
-0.0319613
0.0293608
-0.0180789
-0.0168171
-0.0339912
0.0403538
0.00221193
-0.0173693
0.0257107
0.0614296
0.00288822
0.0440349
0.0507341
-0.0131411
-0.0149434
0.0548712
0.0117745
-0.025267
0.0141558
0.00216928
0.042077
-0.0425071
0.0863937
0.0363956
-0.0438277
-0.0781107
0.0418633
-0.0481353
0.0849098
0.0379375
-0.0477253
0.0869093
0.0415094
-0.0567464
-0.0930741
0.0492008
-0.0529446
0.100509
0.0120764
-0.0386932
-0.0378421
-0.0162475
0.0404702
-0.0312762
-0.007223
-0.0335133
-0.019454
-0.0065893
-0.0370496
-0.0313028
0.0473604
-0.0319694
0.0218579
0.032416
-0.0172062
0.0480984
-0.0544941
-0.10702
0.0467648
-0.0594124
0.109516
0.0456308
-0.046017
0.100033
0.0347716
-0.0327935
0.0885616
0.0057049
0.0567673
-0.0428601
-0.0275499
0.0099571
-0.0167291
0.00286186
0.0501183
0.0106695
0.0140953
0.0169668
-0.0427664
-0.00249737
-0.0381899
-0.00298079
0.0130932
-0.0115335
0.0315674
0.00901188
0.00317613
0.0110912
-0.00610918
0.0145511
-0.014619
0.000862943
-0.000475695
-0.0150479
-0.00278744
0.000906967
-0.0238335
-0.0112878
-0.0030315
-0.0505554
-0.0241642
0.00162062
0.0491584
-0.0669338
-0.0203563
-0.0761624
-0.0975645
-0.0329521
-0.0665501
-0.107045
0.0387647
-0.0547525
-0.111909
0.0496909
-0.0510532
-0.113221
-0.0585133
-0.0420633
-0.105773
0.0595861
-0.0390036
-0.0929347
0.0493434
-0.0408551
-0.087426
0.0488802
-0.0388943
-0.0904013
-0.0544061
-0.0319651
-0.0879946
-0.0507496
-0.066841
-0.0222616
-0.0346077
-0.0621128
-0.0193367
0.036624
-0.0357441
-0.00130042
0.0325685
-0.0469121
-0.00216747
-0.0283804
-0.00484444
-0.0309322
-0.0280854
-0.0281183
-0.0105227
-0.0322464
0.028841
-0.0381087
0.00142185
-0.0311149
0.0136985
-0.0293315
-0.0257542
-0.0184728
0.0220055
-0.0267557
-0.0269678
-0.0385129
-0.00308634
0.177595
0.0560731
-0.0883957
0.0132
0.0412149
0.0401413
0.0122038
0.0896876
-0.0468745
-0.00501098
0.0209829
-0.0452908
-0.106513
0.0232095
-0.019467
-0.013682
-0.0119513
-0.0868181
-0.0253141
0.0169734
-0.0196066
0.0276729
0.00637178
-0.0125705
0.0311557
0.0222217
-0.0182337
0.0241876
-0.0239977
0
0
0.0124884
0
-0.0377646
-0.0441304
0.0761052
-0.0959649
0
0
0
0
0
0
0
0
0
0
0
0
0
0
-0.021504
-0.000889368
-0.00263209
-0.0170219
-0.0101823
0.000932016
-0.046809
-0.0328434
-0.009984
-0.0442095
-0.0393759
-0.0218591
0.0149549
-0.0232441
0.0282311
0.0193658
-0.0491603
-0.0466334
0.011321
-0.0506718
0.0576402
0.0360437
-0.0480119
-0.0744412
0.0456704
-0.0247882
0.0753588
0.0415129
-0.0503722
-0.0723486
0.0421797
-0.037443
-0.0799771
6.03011e-07
0
1.81067e-05
0
0
5.44197e-08
8.0353e-06
-1.98078e-05
1.31836e-05
6.8206e-07
2.10296e-06
0
0
0
0
0
0
0
0
0
0
0
0
0
0
0
0
-0.0106833
0.011319
0.0408331
-0.0289034
0.0688423
-0.009256
-0.0171937
0.000878402
0.0428969
0.0302639
-0.00868947
0.0429028
0.0508844
0.0228154
-0.00897232
0.0341284
0.0624452
-0.00426276
0.00162547
0.026516
0.018367
-0.0242439
0.00389195
0.0141902
0.0332205
-0.0422485
-0.0775884
0.0345204
-0.0365532
0.0750602
0.0320947
-0.0381683
-0.0692365
0.0279323
-0.0468543
0.0837602
0.0415451
-0.0505044
0.0793462
0.0524057
-0.0481217
-0.0842782
-0.00387728
-0.0424785
-0.0268782
0.006286
0.0131974
0.0536384
-0.0189966
0.0427572
0.00912879
-0.0169268
0.0186226
0.00206897
0.00325442
-0.0151786
0.0461414
-0.061277
0.0686685
-0.0494821
-0.0859768
0.0619007
-0.0499232
-0.0946788
0.0409417
-0.0482449
-0.0757561
0.0479333
-0.0354919
0.063351
-0.0218611
-0.0257763
-0.00649269
-0.0304342
-0.0162663
-0.000249311
0.0117018
-0.0348645
-0.0288033
0.0122174
0.000367244
-0.0297767
-0.0351445
-0.0134299
-0.0350873
-0.0202231
-0.0415949
0.00689924
0.0428384
0.0214968
0.0133351
-0.0188127
0.00047392
-0.0128089
-0.0301016
0.0521143
0.00701746
0.0156063
-0.00131077
0.00787375
-0.00201055
-0.000588009
0.0145169
0.00155075
0.00739589
0.00788633
-0.00631753
-0.0188955
-0.00383064
0.0037469
-0.0238431
0.00425334
-0.00812062
-0.0250136
-0.0317105
-0.0169835
-0.0604741
-0.0156872
-0.00867865
-0.0374131
-0.0686138
-0.029329
-0.0652022
-0.0835638
-0.0247691
-0.0563842
-0.0895528
0.0391931
-0.0502089
-0.105719
0.0479672
-0.0521429
-0.108364
0.0581753
-0.0421167
-0.106034
0.0552846
-0.0408489
-0.0934694
0.0456035
-0.0393959
-0.0853434
-0.0450978
-0.0334678
-0.0819949
0.047639
-0.0272001
-0.0716578
0.0386203
-0.0488613
-0.0120582
-0.028132
-0.0681188
-0.0252115
-0.0326637
-0.0377008
-0.00792114
-0.0316591
-0.0576145
-0.0239382
0.0252277
-0.0103896
-0.0401488
0.0348866
-0.0194947
0.0133621
-0.0242152
-0.0287589
-0.00772986
-0.0250788
0.0153018
-0.00950164
-0.0135994
0.0243564
-0.0124771
0.0154094
0.0206031
0.0206731
0.00282656
0.00500741
0.03446
0.0136311
-0.00220491
0.0147165
-0.0619023
-0.0328729
-0.0115059
-0.0787517
-0.0312724
0.00850427
0.028173
-0.00239698
-0.0235338
-0.0338286
0.0209513
-0.0287729
-0.11236
-0.0212787
0.00065037
0.0161939
-0.0753088
-0.0282085
0.000644219
-0.0123661
-0.0455436
0.0126239
-0.0221906
0.0303723
0.0233322
-0.0502679
0.00724914
0
0
0
-0.0246533
0
-0.0139567
-0.00550123
0.0446413
0.0448381
0
0
0
0
0
0
0
0
0
0
0
0
0
0
0
0
0
0
0
0
0
0
0
0
-1.42837e-05
0
-6.82763e-06
0
-2.75917e-05
0
-1.10812e-05
0
5.43002e-06
-4.46948e-05
0
0
5.18018e-06
0
0
0
0
0
0
0
0
0
0
0
0
0
0
0
0
0
-0.0108086
-0.0453952
0.0160625
-0.0100916
-0.0514115
-0.00448727
-0.0399637
-0.0175408
-0.0188962
-0.019118
-0.0355617
0.0169153
-0.015374
-0.0580725
0.0565587
0.00379561
-0.0384111
-0.0594631
0.0306233
-0.0396277
0.0700943
0.0290278
-0.0468762
0.0610093
0.0381584
-0.0378571
-0.0730753
0.0348254
-0.0394602
0.0607667
0.0319151
0.0682933
-0.0334737
0
0
0
0
0
0
0
0
0
1.5126e-06
0
0
0
0
0
0
0
0
0
0
0
0
0
0
0
0
0
0
0
0
0
0
0
0
0
0
0
0
0
0
0
0
0
0
-0.0313116
0
-0.0280098
-0.0303215
-0.0138522
0.0104809
-0.0343366
-0.0257257
-0.0238225
-0.0121394
-0.0159047
-0.0130582
0.0391915
0.0177922
-0.000462313
0.0326159
0.0281407
0.0185545
0.0329651
0.0339315
0.00195839
-0.000774822
0.0145115
0.0210862
-0.0308308
0.0222457
-0.0135762
2.07758e-05
0
0
-5.07129e-05
-1.95102e-06
0
0
2.4353e-05
0
0
0
0
0
0
0
0
0
0
0
0
0
0
0.0353314
-0.0297573
-0.0598382
0.0310275
-0.0314
-0.0556482
0.0285372
-0.0345562
0.0670969
0.0323481
-0.0516635
0.0739279
0.0308998
-0.0398246
0.0753214
0.0329093
-0.0469455
-0.0823292
-0.0401753
-0.0481406
0.0303177
0.00133181
-0.0634475
-0.0500716
-0.0164649
-0.00768907
-0.00892923
-0.0139291
-0.0276965
0.0192535
0.0247375
-0.0435784
0.0318857
0.0272951
-0.0665578
-0.0284401
0.0423899
-0.0271521
0.0833597
0.0465604
-0.0273545
-0.0695125
0.0317838
-0.0440015
0.0498911
0.00620094
-0.0499356
-0.0174527
-0.00466157
0.0151788
0.00677077
-0.00443526
0.0118915
-0.0158672
-0.0256378
-0.0283793
0.00969192
0.0053707
0.0124936
-0.00627631
0.0211409
-0.0244822
-0.0209241
-0.0100123
-0.0409419
-0.0202654
0.00787158
-0.00510044
-0.0439135
0.0202672
-0.0273858
-0.036596
0.000743564
-0.0527425
-0.00456923
-0.0128789
0.00860969
-0.00126294
0.00632832
-0.0318582
0.0313147
0.0170716
-0.00240866
-0.00105477
0.00864351
0.0143267
0.0175567
-0.00234177
0.0130431
0.0193781
-0.00789125
0.0132822
-0.00398326
0.00523754
-0.0126889
0.0122808
-0.00728548
-0.0253748
-0.00407182
-0.0162802
0.00631547
-0.0424068
-0.0159866
-0.0474496
0.00988445
-0.0244925
-0.0397555
-0.0773608
-0.0244602
-0.068566
-0.114514
0.0158506
-0.0601862
-0.0985378
-0.0294515
-0.0562889
-0.105147
0.0482526
-0.0537088
-0.108214
-0.0526827
-0.0413784
-0.10317
0.0488112
-0.0385023
-0.0852381
-0.041997
-0.0365192
-0.0736751
0.0430539
-0.0399775
-0.080996
-0.0412817
-0.0450668
-0.0860348
-0.0364188
-0.0613126
-0.0281404
-0.0271214
-0.0709612
-0.029857
0.0244675
-0.0471412
-0.0172363
-0.0251613
-0.052393
-0.0214427
-0.0216946
-0.0136704
-0.0394362
-0.0258357
-0.0157205
-0.00568208
-0.0181147
-0.0271451
-0.00503662
-0.0140453
0.00127017
-0.00985396
-0.0142131
0.00259101
-0.0209218
-0.00771437
0.00104488
-0.0134594
0.0017477
0.00223889
-0.0038357
-0.00678211
0.006278
0.0178958
0.00682002
0.0113959
-0.0168472
0.0148578
0.00817381
-0.03093
0.0214778
-0.00116972
0.0244529
0.00102499
0.0174445
0.0130375
-4.78003e-08
0.0212875
-0.0305371
0.0156617
0.0188152
-0.0116148
0.0293746
0.0305438
0.0172746
0.0263512
-0.0269308
0.0404088
0.0205017
0.0158038
-0.0317122
0.0225904
0.0417666
0.024339
0.00438666
0.0341939
-0.0232921
0.0471808
0.0272863
0.00822319
0.0210496
-0.0131766
0.0447379
-0.0254858
0.00306239
0.0445788
0.0517048
-0.0280271
-0.0247133
0.0229246
-0.0211798
-0.0140129
-0.0193372
0.0326786
-0.0125094
0.045034
-0.0148664
0.0286628
0.0638046
0.0221372
-0.0347235
-0.0150547
0.0176175
0.00751303
0.0404833
-0.00519261
0.00878279
0.0188952
0.0144052
0.0304118
-0.052794
0.0195569
0.0103873
0.0179915
-0.136922
0.00773752
0.0216105
-0.0434364
0.0634498
0.0266005
-0.0105876
0.0585107
0.0191606
-0.0311938
-0.0206245
0
0
0
-0.0170686
0
0
-0.0228005
0
0
0
0
0
0
0
0
0
2.3039e-05
6.98532e-05
0
0
0
0
0
0
0
0
0
0
0
0
0
0.000121547
1.20831e-05
0
0
0
0
0
0
0
0
0
0
0
0
-6.77917e-05
0
0
0
0
0
0
4.96321e-05
0
-7.19284e-05
0
0
0
0
0
0
0
0
0
0
-2.28755e-05
-5.01662e-05
-6.50622e-06
2.7728e-05
0
0
0
0
0
0
0
0
0
0
0
0
0
0
0
0
0
0
0
0
0
0
0
0
0
0
0
0
0
0
0
0
0
-0.0396205
-0.00725688
-0.0104772
-0.023433
-0.0199831
-0.0259998
0.0389438
-0.0176659
0.0120427
-0.00598995
-0.0479919
-0.0625241
0.00967017
-0.0342029
-0.0384624
0.0224322
-0.0448666
0.0600798
0.0272103
-0.0428628
0.0777974
0.0233058
0.0236269
-0.0481567
-0.0275666
0.029754
-0.0393093
0.0528439
0.0282968
-0.0374137
0.05971
0.0500926
-0.0246276
0
0
0
-0.000642009
0.00101537
0.00306193
0
0
0
0
0
0
0.00141366
0
0.000248821
0
0
0
0
0
0
0
0
0
0
0
0
0
0
0
0
0
0
4.5301e-05
4.23688e-05
1.51543e-05
0
-4.28356e-05
0
-0.0264813
-0.000836792
0.0140454
-0.0561247
-0.0434543
0.015936
-0.0392143
-0.0134049
0.0223504
-0.0219269
-0.0308116
0.0227269
0.0171037
-0.00684134
-0.00629679
0.0370629
0.0288485
0.00228645
0.0283081
0.048758
0.00737118
-0.000813426
0.0622811
0.00753712
0.0110025
-0.000112138
0.00806159
4.4912e-05
0.00847052
0.00632603
3.94342e-05
0
3.05474e-06
0
-6.99925e-07
0
4.14758e-07
0
-8.87563e-07
-1.01047e-08
0
0
0
0
0
0
0
0
0
0
0
0
0
0
0
0
0
0
0
0
0
0
0.00439626
0
0.0110263
0.0197092
-0.0262132
0.0388114
0.0145622
-0.0325661
0.0427927
0.0340242
-0.0460113
0.0464296
0.0486165
-0.01051
-0.0706433
0.0590038
-0.0321758
0.056905
0.0528571
-0.0248741
0.0615064
0.0104716
-0.0454248
0.0544945
-0.0105642
-0.0547036
-0.0248136
0.0053462
-0.00137663
0.0239915
-0.00789177
-0.0247623
-0.058864
-0.0216278
-0.0432578
-0.0309346
-0.0270655
-0.0355894
0.0386065
0.0289556
-0.0393993
0.0438107
-0.0358541
-0.0856576
0.049027
-0.0506319
-0.0284094
0.000951594
-0.0493984
-0.00784645
0.0160246
0.00346287
-0.0184834
-0.0255566
-0.0152443
-0.0279099
-0.0144223
-0.0284422
-0.0382815
-0.0303142
-0.0243334
-0.00532021
-0.0235803
0.0225047
-0.00571993
0.0379561
0.0127991
-0.0214493
-0.0404163
0.00219811
0.0289427
-0.0428051
0.0216361
0.0423131
0.0323707
0.0204796
0.0510254
-0.0404855
0.0118225
0.0608945
-0.0536901
0.0143652
0.06203
0.0597472
0.0245536
0.0673291
0.0400086
0.0492251
0.00240028
-0.0376438
0.0276705
0.00978527
0.0638224
0.0349499
-0.0214556
-0.0390101
-0.0318613
-0.000671341
-0.0503805
-0.0315923
-0.00553814
-0.0281353
-0.0375927
0.00370238
-0.033433
0.000253673
-0.0304993
-0.0284243
-0.0332546
-0.0225264
0.024998
0.0309876
-0.0131782
-0.0160174
0.0197105
0.0101031
-0.0147381
0.0105701
0.0151783
0.0130028
0.00964702
-0.0046471
0.000137514
0.00793643
-0.0173732
0.0107133
-0.000706916
-0.018807
0.00909199
0.00500686
0.00152998
-0.072306
0.0154407
-0.038242
-0.0288391
-0.150937
-0.0298692
-0.0845434
-0.0165299
0.00561725
-0.0711407
-0.091782
0.0260747
-0.0654957
-0.068041
0.0308439
-0.0669265
-0.0961246
0.0367181
-0.0615473
-0.112908
-0.0469369
-0.0528687
-0.0996039
0.0422869
-0.0392535
-0.091414
-0.0397873
-0.0383194
-0.0773135
0.0372393
-0.0444963
-0.0836586
-0.0400638
-0.0483292
-0.0888782
0.0394834
-0.0444371
-0.0779617
-0.0335735
-0.0609344
-0.0335976
-0.0222832
-0.0719501
-0.0407554
0.0263743
-0.0496948
-0.0225442
0.0218345
-0.0569659
-0.0207698
-0.0193746
-0.00404998
-0.0343601
-0.0134869
-0.0137387
0.00348046
-0.0181884
-0.0278702
-0.0162737
0.0090043
-0.0104387
-0.0292851
-0.0148693
-0.0140674
-0.0336968
0.0109924
-0.0070554
-0.0143969
0.00347834
0.00217317
0.000900549
0.0058212
-0.009454
0.0130305
-0.00701169
-0.0055257
0.00871538
-0.00602589
-0.00442139
0.00473748
0.00888814
-0.0105052
-4.52783e-05
0.0132224
-0.0223264
-0.000492151
0.0179332
-0.0296326
-0.000220873
0.0197898
-0.0236956
-0.00674945
0.0213143
-0.00449275
-0.00860462
0.0285522
-0.0320257
0.0234932
-0.000862134
-0.0115231
-0.0244871
0.0329969
-0.0123036
0.0111413
0.0169972
0.00580534
-0.0123364
0.0231292
0.0060592
-0.00646182
-0.00579222
0.0148901
0.0213217
0.00352643
0.00347149
-0.00911678
-0.0330835
0.000438139
-0.0710564
0.0312228
0.0329954
-0.0370442
-0.00461655
0.00234838
-0.0070742
0.00419836
-0.0355114
-0.00303884
-0.0033821
-0.0147089
-0.0357364
0.0213255
-0.0108945
0.0216063
0.0232119
-0.0461613
0.0255119
-0.0644392
-0.164613
0
0.0454246
0.00532704
0.153116
-0.129831
0.0473089
0.012495
0.00178902
0.0185558
-0.017443
0.0127409
-0.0483531
0.14371
-0.13534
0
0
0
0
0
0
-2.87866e-05
0.00019142
-0.000112262
0
0
0
-1.04248e-05
0
7.85016e-05
0
-2.47801e-05
0
0
0
0
0
0
0
0
3.88861e-06
0.000190631
0
0
0
0
8.46501e-05
0
0
0
0
0
0
0
0
-6.96488e-08
-7.49657e-07
0
0
0
0
0
0
0
0
0
0
-1.2082e-05
0
0
0
0
-2.07066e-07
0
0
0
-8.4402e-06
-1.54324e-06
0
0
0
0
0
0
0
0
0
0
0
0
0
0
0
0
0
0
0
0
0
0
6.80457e-07
0
0
0
0
-0.0297574
0.020863
-0.0011669
-0.0162883
-0.00328087
0.00594885
0.00474768
-0.030265
0.0659725
0.0367043
-0.0122682
0.0459691
0.00110823
-0.0590488
0.0794227
0.0259038
-0.0203788
-0.0227834
0.0266573
-0.0404329
-0.0622996
0.0146675
0.0116759
-0.0259634
-0.0256771
0.0210441
0.0403648
0.0237878
0.0260222
-0.0296917
0.0469205
0.0439889
-0.0200661
-0.00921665
0.0147747
-0.0154141
0.00025111
0.00439419
-0.00114833
0
0
0
0
0
0
0
0
0
0
0
0
0
0
0
0
0
0
0
0
0
0
0
0
-6.08722e-05
0
0
0
0
0
-0.00757655
0
0
0.00653909
0.0267208
0.0494075
-0.0494344
-0.0188118
0.00344504
-0.0240793
-0.0191916
0.000162647
0.000551887
-0.0138525
-0.00550305
0.0248403
-0.0229118
0.0167162
0.0542316
0.0324549
-0.0208292
0.0235267
0.0401004
0.00641953
0.0344651
-0.0139829
-0.0193651
-0.00402609
0.0404067
0.00014412
0
0
0
0
0
0
0
0
0
0
3.03901e-07
0
0
0
0
0
0
0
0
-0.00668729
0
0
0
0
0
0
0
0
0
0
-0.00834191
0
0.00253265
0
0
0
0
0
0
0
0
0
0
-0.00582872
0
0.0027645
-0.029391
0.0311354
0.00484085
-0.039017
-0.0379001
0.0166152
-0.000129109
0.0286138
0.0215376
-0.0403865
-0.0357221
0.010976
-0.00327937
0.0197807
-0.0280315
0.00309695
-0.0225106
0.048713
0.0103471
0.0106614
-0.0692171
-0.036496
-0.0291075
0.0535576
-0.000153931
-0.0275073
0.0269048
0.0233479
-0.00855969
-0.0173141
-0.00259969
-0.010211
0.0579964
-0.0170374
-0.0473903
-0.0274314
0.0258924
-0.00385365
0.011719
0.00278612
-0.0374397
-0.0154634
-0.0183372
0.000379841
-0.0522711
0.0159462
-0.00488034
-0.00152554
-0.0410491
-0.0425573
0
0.011522
0.0290857
-0.00286616
0.0219461
-0.032948
0.00560404
-0.00699574
-0.0132545
-0.0196491
-0.022262
0.0189912
-0.022334
0.0230441
-0.00308094
-0.0245643
-0.0392094
0.0153969
0.0118309
-0.0128099
0.0103515
-0.0114258
0.00975037
-0.0199225
0.0232922
0.0018222
-0.0210857
0.000363018
-0.0302331
0.0344356
-0.0177812
0.0263588
-0.027593
0.0378061
0.00134814
-0.022863
-0.0347825
0.0193941
0.0420086
0.0101965
0.0198914
0.0384223
-0.0105193
0.0198622
0.0311228
0.00191941
-0.00182894
-0.031949
-0.0269862
-0.0180617
-0.038882
-0.0194998
-0.031091
-0.050309
0.0342335
-0.0373034
-0.0116199
-0.0234436
0.0224779
-0.0135489
0.0569658
0.00165814
-0.0425179
0.049114
0.0105404
0.038905
0.0436561
0.0101691
0.0526063
0.0530684
5.57834e-05
0.0653149
0.0772935
0.000654372
0.0722771
0.0801019
0.0156812
0.0816526
0.0683504
0.0359891
0.0737941
0.0444647
0.0588289
0.0344851
0.0180778
0.0707876
0.0372756
0.0297865
-0.038817
-0.0369043
0.00295256
-0.033804
-0.0297387
-0.0423669
-0.00708319
-0.0512126
-0.0398202
0.00902245
-0.00931524
-0.0130704
-0.00444433
0.00562074
-0.0136109
0.0522524
-0.0126963
-0.0150288
-0.0268318
-0.0105575
-0.00525931
-0.0281977
0.020464
0.00909156
-0.0163101
-0.0264408
0.0140885
-0.0155686
-0.0312426
0.0163777
-0.0139924
-0.0224857
0.00616282
-0.00878817
-0.0248412
-0.00204193
-0.0187555
-0.0288278
-0.0201845
-0.0066971
-0.0276612
-0.0308817
-0.0419414
-0.00486519
0.0249106
0.00126821
-0.0110791
-0.012473
-0.0193675
0.0275967
0.0106075
0.0226478
0.0026464
-0.0361415
-0.003188
0.00459958
0.00341782
-0.0117846
-0.00964485
-0.000263123
-0.0878521
-0.0242804
0.00764627
-0.0678303
0
0
0.000618298
0
-0.361154
-0.0862964
0.0314889
-0.0695938
-0.0109947
-0.01447
-0.0565839
-0.0568475
-0.0700529
-0.059959
-0.0671853
-0.103264
0.0376166
-0.0621635
0.014031
-0.0932405
-0.0488908
-0.0789209
0.0368623
-0.0388329
-0.0886756
-0.0328302
-0.0409034
-0.0859755
-0.0339515
-0.0441675
-0.0822963
0.0383042
-0.0463978
-0.0826039
0.0392253
-0.0394071
-0.0773462
0.0313466
-0.0533925
-0.0315814
-0.017934
-0.0565758
-0.0309167
-0.02497
-0.0407943
-0.0148818
0.0208286
-0.0411491
-0.020237
-0.022147
-0.0280585
-0.0389123
-0.017983
-0.0352167
-0.0092338
-0.0113616
-0.0441233
-0.0202675
0.00992468
-0.0202248
-0.0357189
0.0180775
-0.00920586
-0.0155409
-0.0126687
0.00198938
-0.00333463
-0.00317914
-0.00368844
0.00807397
-0.0135174
-0.00970468
-0.0056458
0.00281753
-0.0067135
-0.0064474
0.000629245
-0.0122618
-0.0125135
0.00226828
-0.0209763
-0.0144251
0.00391473
-0.0247818
-0.0091554
-0.00868724
-0.0272447
-0.0101492
0.00929636
-0.0113637
-0.0144122
-0.01125
-0.025406
-0.00705742
0.00830622
0.0107923
-0.0203422
0.0435917
-0.0193561
0.0257981
0.0256693
-0.010739
-0.0293457
-0.0112085
0.00746773
-0.0159925
-0.100534
0.0792443
-0.156922
0.106516
-0.00612013
-0.0165231
0.0287989
-0.00940666
-0.0326527
-0.0559723
-0.00406953
-0.0212729
0.0352399
0.0384533
-0.0180605
-0.00640619
-0.0074229
-0.00681092
-0.0322741
-0.00659117
0.00336314
0.0197008
-0.250948
-0.140603
0
0.000319544
3.30553e-05
0.0503147
0.01982
0.0903885
-0.0448456
0.0633766
0.0284137
0.0240194
-0.175857
-0.0329472
0
0
0
0
0
2.99012e-05
4.31449e-05
-1.42555e-05
-7.09462e-05
0
-0.000307053
0
9.89438e-05
0
0
0
0
0
0
0
0
0
0
0
0
0
-3.50876e-05
0
-9.30382e-05
0
0
0
0
0
0
0
0
0
0
0.00328495
0.00208244
0
0
0
0
0
0
0
0
0
0
0
0
0
0
0
0
0
0
0
-2.58667e-06
2.69127e-06
-1.03592e-05
0
0
0
-3.81163e-05
2.91068e-06
0
0
0
0
0
0
0
0
0
0
0
0
0
0
0
0
0
0
0
0
0
0
0
0
0
0
0
8.76339e-06
0
-3.85787e-05
0
0
0
-7.99721e-06
0
1.53758e-05
-0.0203004
-0.0177333
0.0241077
0.00245572
-0.0347337
0.0335626
-0.0301216
-0.0081792
-0.0218399
-0.0251365
0.0431006
0.00742679
-0.014415
-0.0469501
-0.0146311
-0.0191473
0.00568461
0.0200966
-0.012883
-0.0158408
0.0212172
-0.0210771
0.0515448
0.0208278
-0.0246438
0.0327284
0.0249474
-0.021429
-0.039637
0.0121995
0.0278213
-0.0153566
0.0173169
0.0384508
0.0152929
-0.015727
0.0337028
-0.00109435
0
0
0
0
0
0
0
0
0
0
0
0
0
0
0
0
0
0
0
0.00316756
-0.022483
-0.00911531
-0.00850502
0
0
0
0
0
0
0
0
0
0
0
0
0
0
0
-0.0227465
0
-0.0250079
-0.0167761
-0.00555963
-0.0185319
-0.0255339
0.00590636
0.0125797
-0.0342644
0.00839263
0.000836241
0.0129117
-0.0223825
-0.0132579
0.0288446
-0.00955014
-0.00729465
0.0431075
-0.00928275
0.0021562
0.0112914
-0.0130522
0.00971511
-0.000250434
0.0167771
0
0
9.26082e-06
7.7074e-07
0
0
0
0
0
0
0
0
0
0
0
0
0
0
0
0
0
0
0
0
0
0
0
0
0
0
0
0
0
0
0
0
0
0
0
0
0
0
0
0
0
0
0
0
0
0
0
0
0
0
0.0425336
0.00999744
0.00791734
0.0102888
0.00853559
-0.0211885
0.0387637
0.00566163
0.00560405
0.0242708
0.0107082
-0.0148162
0.0289365
0.0271398
0.0133225
-0.0343843
-0.0160816
0.011331
-0.0386882
0.021191
-0.0458423
0.00237424
0
-0.000290429
0
0.0549274
-0.0104166
0.0107226
-0.0309475
-0.024483
0.0723713
0.0215752
0.00983627
-0.0644853
0.0274325
-0.000807916
-0.0166886
-0.0361904
0
0
-0.0229381
0
0
-0.00210088
0
0
-0.0169031
0
0
0
0
0
0
0
0
-0.0217755
-0.038999
-0.00934483
-0.00221694
-0.0259077
-0.0220482
-8.22788e-05
-0.0164705
0.0176867
0.0383152
-0.0296851
0.0113347
0.0177681
0.0199219
-0.000827887
0.0161857
0.00617873
-0.0135078
0.00773857
0.000958338
0.0245865
-0.0149459
-0.0212483
0.0310102
0.0306988
0.0495069
-0.0078515
0.0329154
0.050461
0.00216925
0.0230704
0.0367251
-0.0131528
-0.0166663
-0.0494084
-0.0296687
-0.0313008
-0.0462825
0.0234261
-0.03346
-0.0597409
-0.0228812
-0.0541625
-0.0284548
0.0237697
0.0107867
-0.0086486
0.059197
0.0677055
-0.0159932
-0.0629006
0.0500978
0.0453854
-0.00660399
-0.0725517
0.00990525
-0.0353356
0.0775714
-0.0120517
0.0580363
0.0835908
-0.00659304
0.0745467
0.0908145
0.0075671
0.0749679
0.0821642
0.0341132
0.0803028
-0.0504676
0.0389877
0.0869885
-0.0356693
0.0731923
0.0471055
-0.0115355
0.0692275
0.0446948
0.0394931
-0.0172563
-0.0157702
-0.0105945
-0.0483163
-0.0372784
-0.00711007
-0.0378106
-0.049181
-0.0238569
-0.049793
-0.0458372
-0.0128341
-0.0207702
-0.00502453
-0.00502062
-0.0338201
-0.00260006
-0.0318031
-0.017576
-0.019371
-0.0354719
0.00619579
-0.00360671
-0.0238214
0.021393
0.00944349
-0.025954
-0.026546
0.0123392
-0.0096667
-0.024791
0.010685
-0.0146616
0.0240557
0.0156052
-0.0163531
-0.0263612
0.0160889
-0.0128594
0.0356953
0.00854132
-0.0127107
-0.0367988
0.00024117
-0.0241975
0.0356709
0.00665866
-0.016385
0.019381
-0.0292922
-0.0123986
-0.0324715
-0.0373452
-0.0309516
0.0106854
-0.025596
0.0338331
-0.0154132
-0.0428873
-0.0281497
0.00688514
0.0858279
-0.0425733
-0.116183
-0.0166797
0.0560067
-0.0219471
-0.0367529
-0.0369569
-0.0391803
-0.0232024
0
0
0
0
0
0
0
-0.295413
0
0
-0.033998
0.00352938
0.0257284
-0.0166313
-0.0483306
-0.0119871
-0.0660174
-0.0406115
0.0118898
-0.0831222
-0.0451707
-0.0320609
-0.0584329
-0.0415711
-0.0129672
-0.0496985
-0.0769718
0.0327867
-0.0415992
-0.0796282
0.0332784
-0.0387363
-0.0729706
-0.0349398
-0.0416664
-0.0725584
0.0374449
-0.0378725
-0.0668338
-0.0314384
-0.0308763
-0.0604035
-0.0270847
-0.0432141
-0.0304731
0.0199707
-0.0604102
-0.0309262
0.0124602
-0.04742
-0.027338
-0.0247948
-0.0541174
-0.0233932
0.0275527
-0.0267139
-0.0486832
-0.025623
-0.0396057
-0.0199525
-0.0113731
-0.0440702
-0.0199985
-0.0181832
-0.0100006
-0.0199506
-0.00975537
-0.00208966
-0.0205389
-0.0106178
-0.00183698
-0.0138782
-0.0131399
-0.0231567
-0.00963501
-0.0106616
-0.0191999
-0.00479224
-0.0115901
-0.0189664
-0.00689989
-0.0181146
-0.020613
0.00768484
-0.0214644
-0.0174045
-0.00363548
-0.0197203
-0.0145092
-0.00223813
-0.0181874
-0.0165509
-0.000736418
-0.0275834
-0.0189694
-0.00889235
0.0140976
-0.0352464
0.0183432
-0.0418242
0.0106883
0.046613
0.0131615
-0.0378801
-0.0479519
0.0255468
0.0104741
-0.0673476
0
0
0
-0.0134295
0
0.0846142
-0.0995797
-0.0464806
-0.139836
-0.00893731
0.108867
0.0612038
-0.0109284
-0.112586
0
0
0
0
-0.0591192
0
0
-0.0638091
0
0
0
0
0
0.010189
0
0
0.00586911
0
0
0
0
0
0
-2.90811e-07
1.60841e-06
0
0
2.4841e-05
-2.03458e-05
-2.12332e-05
0
-1.08138e-07
0
0
0
0
0
0
0
0
0
0
0
0
0
0
0
0
0
0.00365936
-0.00301105
-6.06988e-05
0
0
0
0
0
0
0
0
0.00367706
0
-0.00179289
0
-0.00348813
0
0
0
0
5.29275e-06
0
-2.93932e-05
0
0
0
0
0
0
0
0
0
7.0463e-06
-2.98502e-06
3.33135e-05
0
-4.56085e-06
0
-2.96339e-05
3.96461e-05
-4.98422e-05
0
2.47299e-05
0
0
0
0
8.68625e-06
0
-5.93677e-05
0
-1.1727e-05
-1.98246e-05
0
0
0
0
0
0
0
0
0
0
0
0
0
0
0
0
0
0
0
0
0
-4.7113e-06
0
6.5875e-06
0
0
0
-4.00402e-05
0
0
0
0
0
0
0
0
-0.0118165
-0.0161725
-0.0745005
-0.0211884
-0.0127861
-0.0219697
-0.0155789
-0.0299623
-0.0513002
-0.0278066
-0.0292388
0.0510639
-0.0402097
0.0184221
-0.0348425
0.0717501
0.0213832
-0.0213703
0.0113168
-0.036419
0.021585
0.0239518
0.0645201
-0.00278983
-0.00106923
0.0038494
0.0223469
0.00629454
-0.024162
0.014367
-0.0136714
0.0297796
0.00955174
-0.00785215
0.0233849
0.0101235
0.0197135
0.0110556
-0.00497212
0.0237859
0
0
0
0
0
0
0
0
0
0
0
-0.012458
-0.033009
0.00450084
-0.028309
0
0
0
0
0
0
0
-0.0137809
-0.0066716
0
0
0
-3.21732e-07
0
6.29761e-07
0
3.07314e-07
0
0
0
0
0
0
0.0249919
-0.0108174
0.0205625
-0.00459583
-0.0156555
-0.015736
-0.00844859
-0.0100814
-0.0246105
-0.0094094
0.00919726
-0.0198401
0.00733512
-0.00590933
-0.0266256
0.0266165
0.0154168
-0.00295089
-0.0266347
0.0155567
0.0312044
0.0509805
0.0250522
0.0260877
-2.55765e-08
0
0
7.28341e-07
0
-7.78969e-06
0
0
0
0
7.84745e-08
0
-3.29427e-06
0
3.37955e-06
0
0
0
0
0
0
0
7.35171e-05
0
1.33092e-05
-5.22241e-05
2.24488e-05
3.39585e-05
0
0
0
0
0
0
0
0
0
0
0
0
0
0
0
0
-2.57428e-05
7.58244e-05
0
0
0
0
0
0
0
0
0
0
0
0
0
0
0
0
0
-2.02957e-05
0
2.39694e-05
0.0242719
0.00810598
-0.00545353
0.00612401
0.0148147
-0.00228862
0.0175418
0.0404701
0.0247046
0.0111098
0.0276787
0.00452849
-0.0225012
-0.018145
0.0148523
0.00439196
0
0.0366025
-0.0111626
-0.00373407
0.0160169
-0.0105528
0
0
0
0
0
0
0.000459139
0
0
0.0297091
-0.00166986
-0.0393918
-0.0215982
-0.0198002
-0.0386571
-0.00763409
0.0241735
0.0168929
0
1.76772e-05
1.05259e-05
0
0
0
0
0
0
0
0
0
0
0
0
-7.2079e-06
0
2.67892e-05
-0.0108453
-0.0264981
0.0196899
0.00747286
-0.05051
0.0036451
-0.0220373
-0.00993538
-0.0330667
-0.00174626
-0.0171815
-0.0294275
0.0153608
-0.00632626
-0.0420605
0.00804235
-0.00707716
0.0204936
0.0270125
-0.0166954
0.0193204
0.0309292
0.000572743
0.020081
0.0194867
-0.00302138
0.0124442
0.0105733
-0.0268269
-0.00844138
-0.0191076
-0.0342296
0.0529852
0.0610454
0.000179901
0.0321359
0.052381
-0.00486825
0.0219805
0.0498206
0.0193991
-0.0363772
-0.0692104
-0.0242771
-0.0438413
-0.0546052
0.0192572
-0.0482934
-0.056976
0.00389566
-0.0690803
-0.0449382
0.0139413
-0.00998078
-0.0715242
0.0683985
-0.0407608
-0.0762405
-0.0364224
0.0387174
-0.0291891
0.085129
0.00232584
-0.0571588
-0.0756556
-0.0221713
0.0478273
-0.0881801
0.000650606
0.0571959
-0.0732099
0.0342543
0.0740776
0.0436546
0.0383512
0.0714288
0.0445202
0.0457652
0.0716027
-0.0273625
0.0675009
0.0666107
0.00648003
0.0885162
0.0656123
-0.00383136
-0.0252397
-0.0296391
0.0221524