/*--------------------------------*- C++ -*----------------------------------*\
  =========                 |
  \\      /  F ield         | OpenFOAM: The Open Source CFD Toolbox
   \\    /   O peration     | Website:  https://openfoam.org
    \\  /    A nd           | Version:  8
     \\/     M anipulation  |
\*---------------------------------------------------------------------------*/
FoamFile
{
    version     2.0;
    format      ascii;
    class       volScalarField;
    location    "12420";
    object      H;
}
// * * * * * * * * * * * * * * * * * * * * * * * * * * * * * * * * * * * * * //

dimensions      [0 1 0 0 0 0 0];

internalField   nonuniform List<scalar> 
526318
(
0.690372
0.654722
0.733314
0.639743
0.71232
0.658654
0.683563
0.596945
0.654602
0.537025
0.51007
0.640305
0.585922
0.626154
0.581972
0.604271
0.589708
0.780883
0.697266
0.733379
0.732616
0.685054
0.444224
0.688363
0.567012
0.435918
0.710021
0.709745
0.707568
0.724991
0.746042
0.793037
0.785007
0.665739
0.661798
0.628111
0.632478
0.725348
0.651502
0.59988
0.671501
0.636078
0.29587
0.348084
0.257953
0.309089
0.272923
0.406504
0.582278
0.483161
0.56861
0.569431
0.520776
0.485713
0.00102554
0.225886
0.215253
0.0208589
0.739181
0.750763
0.769287
0.723461
0.671798
0.794735
0.789892
0.75034
0.738723
0.73861
0.643035
0.637328
0.750235
0.5254
0.583428
0.473549
0.428199
0.423304
0.518554
0.511703
0.429224
0.465677
0.553157
0.545997
0.499955
0.459186
0.487064
0.553553
0.554432
0.5293
0.480034
0.553782
0.458957
0.405106
0.405893
0.330893
0.327956
0.333457
0.333112
0.331302
0.326901
0.330567
7.97638e-05
2.15653e-06
0.000359499
9.88543e-11
0.000880407
0.000148343
0.236456
0.0444467
0.364953
0.321936
0.364398
0.484111
0.711384
0.596058
0.710327
0.720724
0.788296
0.761457
0.804198
0.325223
0.325682
0.326204
0.328798
0.284337
0.322876
0.239502
0.276797
0.187904
0.239976
0.187971
0.190101
0.176149
0.152976
0.144088
0.171622
0.111447
0.166523
0.114709
0.134936
0.0804536
0.0868507
0.109837
0.139216
0.122686
0.0819716
0.0820889
0.0986818
0.084345
0.0794331
0.0888344
0.100252
0.0881221
0.0906695
0.0945661
0.0906473
0.057836
0.094352
0.0880971
0.0596953
0.0154615
0.09276
0.0429917
0.102868
0.589983
0.684155
0.632586
0.608863
0.419949
0.487803
0.419818
0.420989
0.4213
0.418079
0.438166
0.423029
0.355175
0.324844
0.291141
0.230456
0.292067
0.335839
0.330287
0.335181
0.222909
0.272682
0.1591
0.166484
0.175155
0.168836
0.171133
0.174375
0.161007
0.16568
0.161599
0.150015
0.133854
0.156726
0.148793
0.121831
0.0965575
0.125356
0.11113
0.108822
0.120626
0.111075
0.117798
0.0781654
0.0983212
0.123307
0.124216
0.573219
0.586416
0.616887
0.603273
0.581596
0.572153
0.58192
0.455061
0.487526
0.247285
0.209446
0.221546
0.341298
0.475739
0.354199
0.39395
0.384048
0.334611
0.319497
0.000960588
1.33217e-16
5.66639e-07
0.167172
0.00027704
9.76159e-09
0.000995694
0.000255125
0.000396609
0.000963311
0.788255
0.769544
0.821245
0.812457
0.782641
0.769193
0.679427
0.766987
0.609836
0.555236
0.555506
0.55684
0.553764
0.552874
0.542292
0.543054
0.4558
0.5234
0.338601
0.397055
0.327998
0.338671
0.00100536
4.55059e-11
0.000154997
0.00100202
0.000103589
0.000987509
6.84537e-11
0.00101895
0.33309
0.144247
0.384647
0.382709
0.491138
0.600965
0.716941
0.725358
0.760696
0.736766
0.804587
0.831905
0.297296
0.307262
0.26764
0.23647
0.134808
0.171354
0.097406
0.106283
0.0968433
0.0897573
0.080863
0.0873006
0.0131521
0.0377045
0.0725717
0.108448
0.167335
0.132317
0.0932786
0.0899368
0.02695
0.0166621
0.0646699
0.118453
0.0445887
0.0808638
0.0793663
0.0506535
0.0433191
0.013782
0.0110731
0.000973896
0.000938289
0.000990484
0.00050453
0.0890636
0.128595
0.0899458
0.132429
0.48253
0.451606
0.352853
0.436467
0.356724
0.409038
0.419273
0.407383
0.416876
0.422082
0.334365
0.243207
0.172194
0.154944
0.231798
0.174566
0.159657
0.269829
0.162977
0.213404
0.150258
0.150282
0.162276
0.149084
0.167107
0.157873
0.159946
0.160515
0.163173
0.159409
0.169823
0.164536
0.171909
0.169012
0.175061
0.151611
0.172448
0.152296
0.125756
0.126244
0.155429
0.183488
0.183133
0.151409
0.135912
0.162592
0.198513
0.190535
0.20405
0.172767
0.204438
0.217499
0.260763
0.205911
0.223757
0.245326
0.277399
0.397476
0.479717
0.399067
0.427485
0.503727
0.559548
0.481932
0.339087
0.455888
0.353236
0.372892
0.107741
0.0538346
0.0838383
0.0672037
0.187635
0.307299
0.241555
0.308738
0.310152
0.334031
0.308875
2.95166e-09
0.000699573
0.000471767
5.32963e-06
0.000595999
0.000451314
0.000599399
0.00100998
0.000476803
0.00100962
0.000664765
0.00100889
0.000730728
0.000955715
0.000582482
0.000952703
0.815175
0.802519
0.840673
0.829985
0.810433
0.781458
0.70246
0.620334
0.556206
0.566457
0.541566
0.544767
0.522372
0.525989
0.502584
0.500887
0.45575
0.493311
0.414716
0.364306
0.308769
0.262121
0.000934392
0.00107455
0.00107453
0.000663073
0.000608932
0.000731205
0.000595105
0.00107452
0.00107465
0.00107458
0.00100999
0.00100984
0.000550093
0.00100942
0.000924102
0.000172183
0.000288255
0.000487392
0.000977135
0.00096135
7.31626e-08
0.000978536
0.000793614
1.85613e-05
0.0442149
7.17912e-09
0.248902
0.413419
0.421732
0.517576
0.736772
0.623775
0.744946
0.74989
0.761413
0.790322
0.82113
0.839075
0.219944
0.224595
0.176434
0.201733
0.142483
0.103148
0.0977715
0.097521
0.0904228
0.0958258
0.0482448
0.0408111
0.000978081
0.00478119
0.0611011
0.0318228
0.00589719
0.056374
0.0494928
0.0670481
0.000563312
0.000877153
0.000798003
0.000947682
0.00147988
0.000860867
0.000880608
0.000873914
0.000898651
0.000387281
0.000872478
0.241607
0.226543
0.227032
0.21743
0.242977
0.346535
0.300171
0.280941
0.167208
0.207033
0.189857
0.202379
0.0994693
0.0372275
0.214871
0.327326
0.212471
0.222981
0.198227
0.285709
0.259093
0.337556
0.366677
0.294032
0.271073
0.311491
0.185071
0.158761
0.157288
0.162333
0.0709862
0.12102
0.0526714
7.36668e-09
0.000810048
0.102757
0.101836
0.151645
0.150376
0.149938
0.15481
0.15076
0.156287
0.154829
0.161646
0.157033
0.179506
0.167855
0.178546
0.18245
0.198289
0.186344
0.209109
0.216548
0.162269
0.145072
0.213244
0.19047
0.182278
0.189325
0.17938
0.166171
0.227618
0.198286
0.307708
0.315701
0.269117
0.305231
0.310798
0.279638
0.376567
0.336684
0.411031
0.428795
0.451874
0.363475
0.37323
0.373609
0.337924
0.315592
0.286263
0.369819
0.221303
0.203958
0.252889
0.272034
9.58342e-05
0.00475666
0.083206
0.202006
0.241001
0.275483
0.182843
0.141117
0.10572
0.0475811
0.000965631
0.000310861
1.42674e-06
1.84795e-07
0.000778321
0.00100068
0.000993891
0.000234006
0.00100979
0.000545241
0.00024476
0.000470015
0.000926911
0.000208943
0.000889372
0.000986846
0.000766556
0.000551352
0.000138864
0.000388285
0.00097475
0.00101
0.000135983
0.000999779
0.000912173
0.000354496
0.00117652
0.000892711
0.00107833
0.000994476
0.00117629
0.00117631
0.000904683
0.000999494
0.0009727
0.000201819
9.59135e-05
0.000989075
0.000892979
0.0009482
0.00100959
0.000881287
0.00100965
0.000996543
2.65749e-05
0.000931251
0.808544
0.820278
0.839693
0.82905
0.810316
0.739139
0.551941
0.639224
0.524247
0.526144
0.507237
0.502415
0.495294
0.495629
0.490542
0.48575
0.430192
0.405368
0.305964
0.346232
0.204675
0.240499
0.000962709
0.000624444
0.000948563
0.000967574
0.000969466
0.000982262
0.000974459
0.000870723
0.00101047
0.000765589
0.000677989
0.000965569
0.000971308
0.000759356
0.000380116
0.000991326
0.000690401
0.00100737
0.000803925
0.000839513
0.000369052
0.000975289
0.000889611
0.000439439
0.000917861
0.00068906
0.00101
0.000641909
7.67008e-06
6.82991e-05
0.000555011
0.000719123
0.000407572
0.000998702
0.225126
0.0520222
0.435577
0.389142
0.455693
0.565077
0.664926
0.749963
0.760175
0.746076
0.790665
0.81881
0.805592
0.803635
0.00116502
0.000881145
0.000886173
0.00026238
0.000743875
0.000922867
0.00081396
0.000937011
0.000890554
0.000725685
0.000975785
0.00092383
0.000794854
2.99799e-07
0.000880516
0.00101
0.000170373
0.204052
0.202375
0.204683
0.170741
0.0892959
0.122606
0.0488813
0.0433851
0.00739702
0.000645164
0.000908599
0.000468003
0.000264567
0.00040806
0.000421143
0.000871801
0.000899819
0.0214513
0.000267649
0.00417612
0.000712611
0.000921773
0.000703425
0.000545433
0.000771027
0.000818397
0.000964289
0.000555971
0.000325844
0.000996791
0.000920408
0.000390313
0.446437
0.407094
0.454385
0.458355
0.410322
0.370778
0.531066
0.555551
0.613488
0.631005
0.178468
0.220167
0.274086
0.346131
0.170516
0.12333
0.150847
0.153213
0.00085219
0.0503232
0.0975602
0.000191637
0.199221
0.202238
0.201523
0.199173
0.220697
0.201969
0.211887
0.224998
0.104988
0.100744
3.01531e-09
0.0894106
0.0808855
0.0377565
0.00343472
0.00723684
1.41778e-76
0.000921635
0.00092864
0.0357866
0.097316
0.0304547
0.102272
0.152218
0.148499
0.151024
0.150103
0.156684
0.175874
0.171358
0.186103
0.175503
0.205338
0.189091
0.222339
0.220123
0.221405
0.219358
0.22618
0.223103
0.260216
0.234782
0.200557
0.20376
0.268142
0.239721
0.245606
0.280935
0.324059
0.312992
0.318852
0.316463
0.356355
0.413197
0.465194
0.490364
0.495097
0.472794
0.621736
0.556897
0.680865
0.721575
0.717455
0.753024
0.804952
0.672844
0.759044
0.781633
0.861475
0.911352
0.931503
0.959481
0.988597
0.923719
0.986703
0.94302
1.02075
1.0227
1.07307
1.04276
1.09393
1.1311
1.11428
1.06924
1.12759
1.15574
1.11767
1.1182
1.1842
1.1572
1.19084
1.12955
1.12969
1.19556
1.16296
1.11423
1.11268
1.1475
1.18046
0.175025
0.137898
0.311258
0.297638
0.277677
0.271306
0.272584
0.0360243
0.170225
9.54177e-05
0.000711077
0.000672531
8.33917e-06
0.000109428
0.000957838
0.000676156
0.103197
0.00824208
0.00729902
0.000659159
0.000903801
0.000440719
0.00051585
0.000348275
0.00101
5.27544e-07
5.8384e-05
9.70941e-06
5.35186e-05
0.00101
0.000966006
0.000995857
0.000574463
1.34773e-05
0.00164783
0.000842141
0.000928041
0.000844807
0.000691483
0.00038817
0.00069126
0.000943677
0.000831092
0.00130243
0.000407416
0.00012748
0.000146108
0.000949
0.000431299
6.93167e-06
1.61879e-05
0.000990101
0.00093513
0.00100829
0.000797155
0.000911134
0.000410555
0.00100928
0.00100997
0.000810376
0.000940595
0.00075839
0.000978582
0.000974989
0.000926586
0.00101
0.00057983
0.000953242
0.00102671
0.00105968
0.000949619
0.00102636
0.000932926
0.00101
0.00101
0.000467339
0.000585417
0.000993933
0.000773625
0.000877713
0.00099375
0.000922247
0.000776475
0.0010078
0.000994205
0.000136415
0.000956593
0.000950381
0.000921886
0.000915695
0.000919934
0.000615976
0.00101
0.000623175
0.000968314
0.798688
0.785127
0.7564
0.758928
0.673155
0.750929
0.571519
0.504481
0.497811
0.491957
0.495849
0.495474
0.434054
0.436693
0.278448
0.244273
0.204299
0.377534
0.373327
0.325938
0.325237
0.326395
0.000832139
0.000411936
0.00106975
0.00106602
0.000962471
0.000414864
0.000930377
0.000410365
0.00106607
0.000947566
0.000161511
0.00100893
0.000972717
0.000941946
0.000297472
0.000985833
0.000726155
0.00091818
0.00021426
0.00071546
0.00043532
0.000951565
0.00136866
0.0013688
3.81621e-05
5.96515e-06
0.000169957
0.000987693
0.0549015
3.61359e-09
0.219291
0.385932
0.419867
0.452995
0.53101
0.648291
0.710981
0.687208
0.730831
0.668016
0.721077
0.756101
0.716056
0.709175
0.00110329
0.000990728
0.00101
0.000849207
0.000930793
0.0011946
0.000759084
0.000800868
0.0011946
0.000964874
0.000981161
0.000996251
9.04222e-05
1.14836e-05
0.000984709
0.000373012
9.59805e-10
0.00072123
0.00101
0.000253336
0.000277025
0.000765241
0.00096459
0.000879022
0.00202197
0.0010118
0.177734
0.179035
0.0976005
0.114065
0.000712196
0.0135601
0.000657292
0.000792621
0.000602755
0.00135796
0.000275067
0.000751573
0.000686785
0.000630537
0.000181673
0.000341046
0.000135339
0.000926802
0.00123086
0.00122599
0.000577422
0.0002975
0.000448278
0.0008342
0.00030944
0.000950196
0.000717662
0.000602104
0.000980152
0.000764758
0.0012164
0.00070327
0.663883
0.662339
0.490331
0.406385
0.393722
0.389387
0.655963
0.573745
0.814458
0.900445
0.795166
0.711126
0.91623
0.888878
0.961762
1.00705
1.03436
1.04237
1.06294
1.03991
1.09126
1.11584
1.11223
1.1109
1.12954
1.11359
1.11576
1.16133
1.10542
1.10055
0.237097
0.151283
0.299333
0.362918
0.150555
0.106065
0.153168
0.155155
0.000863769
0.0364856
8.04342e-05
0.0387635
0.000596456
0.198837
0.144064
0.198655
0.191734
0.199462
0.0919495
0.000724982
0.000271247
8.53099e-15
2.57846e-06
0.000822034
1.67982e-322
7.23461e-29
1.81001e-06
0.000998818
0.000713049
0.000810978
3.63154e-05
8.99743e-05
0.0443454
0.000883723
0.0998418
0.04802
0.0836679
0.1471
0.172758
0.158733
0.188001
0.193115
0.209152
0.194987
0.22228
0.231762
0.237322
0.251597
0.249238
0.2529
0.287296
0.296422
0.287736
0.283113
0.285477
0.279963
0.299364
0.31997
0.361235
0.362942
0.32277
0.353846
0.350987
0.376624
0.415068
0.476766
0.505893
0.510035
0.519863
0.5898
0.670156
0.747891
0.75441
0.885139
0.758946
0.810074
0.961566
0.986846
0.984132
1.023
1.06533
1.11862
1.12508
1.13113
1.16046
1.18759
1.21639
1.21236
1.21333
1.21561
1.21407
1.19486
1.13004
1.19429
1.1626
1.11528
1.1163
1.14925
1.1794
1.19088
1.11736
1.17956
1.13872
2.48328e-05
0.000679353
0.0260823
0.105072
0.000699691
0.0577418
0.195022
0.132062
0.159168
0.000755357
0.000535661
1.93585e-06
0.000715816
0.00323875
5.51689e-08
0.000188427
9.89528e-07
0.000833507
0.000978156
0.00126241
0.00126299
0.000284872
0.000476757
0.000269009
0.00100999
0.000871197
0.000795729
0.000978231
0.000487958
0.00143639
0.00144154
0.00086849
0.000172666
0.000464036
0.00164767
0.000981197
0.000717459
0.000478021
0.000315336
0.000478171
0.00101
0.000948737
0.00130301
0.000928609
0.00101
0.000506032
0.000660221
0.000998234
0.000701989
0.000938544
0.000874495
0.0010521
0.000945515
0.000791252
0.000751098
0.000990039
7.57449e-05
0.00099613
0.000976554
0.000151024
0.000650036
0.000544652
0.000936558
0.000835023
0.000981756
0.000966102
0.00103759
0.000978339
0.000943996
0.000974885
0.00092222
0.000207016
0.000979907
0.000919067
0.00101
0.000732523
0.00100962
0.000641972
0.000367709
0.000916152
0.000960434
0.000962995
0.000892128
0.000598384
0.000479733
0.709091
0.70032
0.6866
0.697007
0.619132
0.690431
0.493449
0.561683
0.454421
0.455476
0.397242
0.382281
0.325996
0.32659
0.241684
0.137726
0.11304
0.281676
0.328111
0.330323
0.325888
0.327191
0.00106478
0.000996352
0.00107238
0.000571404
0.000973634
0.000973647
0.00094649
0.000972052
0.00100548
0.000830393
0.000135327
0.000443538
0.00093376
0.000997208
0.00060297
0.00100999
0.00098232
3.53596e-05
0.000985985
0.000873381
0.000276721
0.000469444
0.000655599
0.00101
0.000321117
3.32274e-05
0.00016739
0.000935205
0.12531
1.34171e-27
0.256395
0.388943
0.366031
0.479566
0.646976
0.546597
0.624885
0.620859
0.61795
0.643238
0.702674
0.695106
0.696969
0.675607
0.000769413
0.000922585
0.000566899
0.000958878
0.000712787
0.000933944
0.000627141
0.000452485
0.000819033
0.000879841
0.000957505
0.000856862
0.000968979
2.09914e-11
0.000922039
0.000873917
0.00096514
0.000987798
0.000743529
0.00100999
0.000468733
6.03989e-06
0.00187064
0.000901385
0.00101
0.000860782
0.000668131
0.000489708
0.000136748
6.65156e-10
0.00098545
0.0542796
0.0522978
0.0159092
0.000869719
0.000273559
0.000311044
0.000956993
0.000401406
0.0948105
0.0375764
0.0171108
0.000187059
0.0009323
0.000408908
0.00100989
0.00126687
0.00126686
0.000245179
0.000583215
0.000283539
0.000807948
0.000325481
0.000801456
0.000830286
0.000590582
0.000349619
0.000324396
0.000587295
0.00100971
1.30661e-05
0.00052455
0.000737284
0.000689738
0.000594218
0.000809643
1.23687
1.24822
1.27671
1.25162
1.29996
1.28326
1.30924
1.29954
1.35336
1.34266
1.30588
1.35719
1.32674
1.3777
1.20534
1.15924
1.17919
1.2278
1.2066
1.17901
1.18243
1.23358
1.23543
1.21474
1.19442
1.24564
1.23009
1.23868
1.26423
1.11469
1.11566
1.11714
1.11421
1.1344
1.15711
0.712204
0.650218
0.549502
0.455914
0.369789
0.44765
0.639991
0.633828
0.861506
0.894574
0.77334
0.864445
0.897886
0.950827
0.99933
1.03792
1.03867
1.03705
1.03421
1.06251
1.07775
1.10194
1.0894
1.09053
1.09178
1.10383
1.08143
1.07959
0.285025
0.203517
0.152095
0.142978
0.190628
0.366152
0.346015
0.078169
0.137965
0.00761877
0.000902699
1.22316
1.24345
1.2599
1.26535
1.27116
1.28235
1.28413
1.31381
1.29925
1.32012
1.31747
1.36957
1.38984
1.41462
1.41278
1.41298
1.43236
1.44989
0.000701751
0.000687244
0.0014557
0.125101
0.0123927
0.181777
0.0864373
0.00371946
0.00131539
4.35042e-05
0.00131544
0.00131538
0.000150505
0.000197713
0.000879062
0.000634227
1.56935e-49
6.10001e-120
0.000377734
0.000793005
0.000395231
0.000569185
0.00122367
0.000632348
0.0485626
0.00795649
0.131227
0.0794934
0.164784
0.131725
0.17136
0.187409
0.217657
0.237448
0.260565
0.266349
0.270254
0.261032
0.324227
0.30894
0.302259
0.304218
0.348641
0.327968
0.399956
0.355973
0.335061
0.382937
0.424082
0.422194
0.438438
0.471178
0.472906
0.420633
0.530001
0.56206
0.533169
0.520097
0.601388
0.687003
0.754409
0.827247
0.773566
0.789639
0.917852
0.980129
1.0188
1.0032
1.06301
1.09619
1.13669
1.15226
1.149
1.16634
1.2226
1.20682
1.21508
1.22572
1.21747
1.21311
1.21342
1.21447
1.21287
1.2128
1.21257
0.00100753
8.51415e-06
0.00229465
2.61283e-05
0.000308718
0.000172741
0.000391132
7.08732e-09
0.000349998
0.000541021
0.000515719
0.000992538
8.58466e-05
0.000356853
0.00145565
0.000972826
0.000894993
0.000193591
4.28478e-05
0.00126234
0.000334174
0.00038011
0.000799268
0.000714013
0.000735431
0.000980699
0.00100999
0.00091291
0.00111881
0.00111879
0.00143189
0.00081004
0.00101352
0.0009928
0.000776109
0.00096702
0.000896738
0.000998449
0.00026155
0.000888291
0.00100984
0.000894905
0.00111871
0.000262424
0.000398457
0.000668916
0.00101
0.000330569
0.000740386
5.31435e-15
5.97444e-10
0.00241285
0.000379096
0.000850418
0.000694792
0.000545923
0.000997667
0.0003892
0.00100993
0.000972649
0.000977525
0.000963111
0.000999516
0.000734483
0.00103607
0.000927097
0.000709215
0.000996023
0.000757742
0.00103523
0.00089779
0.000955844
0.000631827
0.000258775
0.000747308
0.000964465
0.000941166
0.000838222
0.00101
0.000334973
0.000769708
0.000685233
0.000978177
0.000925692
0.000935309
0.00089543
0.00091709
0.000695524
0.000567275
0.00205422
0.000189383
0.000674617
0.000835469
0.0009434
0.00205418
1.40268
1.37412
1.34218
1.4474
1.48036
1.47981
0.685657
0.685461
0.677533
0.673674
0.595324
0.661771
0.492886
0.414756
0.341595
0.360174
0.326502
0.329971
0.325962
0.324863
0.205542
0.119974
0.209598
0.291219
0.291918
0.00093523
0.000799827
0.000875173
0.000890082
0.000922295
0.0009764
0.000965395
0.000493094
0.000931051
0.000554111
0.00100943
0.000959595
0.000969088
0.000968182
0.000172336
0.000506239
0.00100998
0.000498781
0.000128694
0.000927014
4.59314e-06
0.000276179
0.000921556
0.000785239
0.00052174
0.000783296
0.000978157
0.0957064
0.236409
0.347574
0.342663
0.661442
0.584262
0.599848
0.383718
0.476663
0.562431
0.616742
0.614802
0.618402
0.632717
0.660619
0.655307
0.000709583
0.00115294
0.000624681
0.000982796
0.000704864
0.000720222
0.00100904
0.000845157
0.000722509
0.000865554
0.000823186
0.000932446
0.000763197
0.000831138
0.000896425
0.000595888
0.000627663
0.00100504
0.000978863
0.000935387
0.000938185
0.000682923
0.000770427
0.000937995
0.000997599
0.000978674
0.000347723
0.000953032
0.000978459
0.000973622
0.00101
0.000984843
0.000871643
0.000978065
0.000827832
0.000835042
0.000811322
0.0492466
0.0854679
0.0765633
0.0152668
0.015714
0.00094251
0.00854683
0.00018178
0.000413787
0.000337004
0.000919076
0.024211
0.00882254
0.000406768
0.000986977
0.000612942
0.000962556
0.000490688
0.000432878
0.000753925
0.000136085
7.42918e-05
0.00065721
0.000224512
0.000734143
5.79952e-05
0.000680105
0.000702988
0.000416117
0.000653842
0.000551523
0.000693939
9.93495e-05
0.000358069
0.000994303
5.96522e-05
0.000979051
1.23833
1.25146
1.27486
1.29903
1.30138
1.30516
1.34011
1.32405
1.17358
1.17024
1.15533
1.17656
1.2101
1.17183
1.21288
1.19226
1.10375
1.08973
1.09077
1.12332
1.15335
1.12631
0.717273
0.636127
0.53975
0.620761
0.477895
0.380007
0.644511
0.630538
0.869286
0.878567
0.891981
0.786922
0.867691
0.98191
0.925384
0.865015
0.910033
1.012
1.02714
1.01604
1.02487
1.02932
1.05569
1.08099
1.0705
1.08114
1.0839
1.07814
1.08033
1.07947
1.08158
0.121981
0.130728
0.261896
0.352204
0.126185
0.196993
0.362002
0.382127
0.113045
0.0560745
0.000872284
0.0344841
1.25386
1.21371
1.23298
1.27755
1.27535
1.27751
1.28682
1.31083
1.33214
1.34502
1.34506
1.3483
1.37511
1.41114
1.39367
1.41471
1.42814
1.47796
1.45327
1.28536
1.2952
1.31173
1.48636
1.47824
1.48064
0.00145552
0.00145548
0.00145554
0.000536157
0.000292517
0.000528227
7.29869e-08
0.000928091
0.000397538
0.000659527
0.000757232
0.000881632
0.000578176
0.00101
0.000702905
0.00100987
0.000969713
4.06496e-06
0.000753117
2.26479e-09
0.00186206
0.000811296
3.42813e-05
0.000626889
0.0713328
0.098898
0.0320211
0.0693285
0.136977
0.0949764
0.225702
0.166699
0.23336
0.252592
0.258832
0.241101
0.301582
0.337522
0.377995
0.377362
0.38251
0.365088
0.393518
0.376549
0.423512
0.428464
0.450742
0.448908
0.428332
0.428498
0.550488
0.594567
0.494893
0.557029
0.605119
0.569142
0.665746
0.713618
0.810066
0.851571
0.829753
0.919145
0.974686
1.07154
1.05923
1.11629
1.08981
1.18667
1.19114
1.1843
1.21559
1.245
1.24027
1.2963
1.25928
1.28861
1.25042
1.24957
1.28701
1.21745
1.25624
1.21923
0.000278737
3.2016e-06
0.000809039
0.000599838
0.000769361
0.000964183
0.00057408
5.96862e-07
0.00101
0.000199154
0.000130371
0.000512431
0.000261742
0.000632165
0.000559852
0.000340651
0.000373144
0.000186251
0.000508679
2.86606e-05
0.000124015
4.98173e-05
5.50518e-07
0.000221904
0.000787488
0.001031
0.000966117
0.000106485
0.00111878
0.00111878
0.000976171
0.000995782
0.000992745
3.82214e-05
0.00101
0.000912008
0.0010004
0.000112849
0.00044385
0.000919656
2.38435e-10
0.000297927
0.00218107
7.21486e-10
0.000984734
6.02973e-05
0.0009581
0.000364482
0.00101
0.000172236
0.000988038
0.00220028
0.000980326
0.000134455
0.00096781
0.00100982
0.00127605
0.000393344
0.00100983
0.000979813
0.000465046
0.000983408
0.00101
0.000808151
0.00103594
0.00103583
0.000896998
0.000927678
0.00103535
0.00103557
0.000955402
0.000879755
0.000711032
0.000919589
0.0015559
8.02693e-05
0.00155575
0.000807653
0.00098702
0.000966821
0.00099923
0.00100984
0.00101
0.00100994
0.000799141
0.000805878
0.000827454
1.20946e-05
9.12481e-06
0
0.00090453
0.000799517
0.000430028
0.000853428
0.00127599
0.000898711
0.00100958
0.00100997
0.000838862
0.000998553
0.000946811
0.000914726
0.00101
1.36403
1.3767
1.37866
1.37527
1.4156
1.52719
1.49974
1.5001
1.53141
1.46509
0.599154
0.584597
0.517773
0.520693
0.477201
0.51042
0.4194
0.373823
0.361463
0.328157
0.302145
0.300914
0.211835
0.219246
0.0929428
0.131083
0.13319
0.000529692
0.000965684
0.000913493
0.00101
0.000949844
0.000924031
0.000585991
0.00103315
0.0660387
0.000104707
0.000919443
0.000220381
0.000959565
0.000979614
1.45545e-06
0.000368616
0.00101
0.000973661
0.000815969
0.00102173
0.000849804
0.000994704
0.000944045
0.000847483
0.00025022
0.465407
0.461797
0.507793
0.207364
0.354632
0.341588
0.3846
0.508265
0.573793
0.541806
0.440171
0.528264
0.553164
0.559771
0.480621
0.50944
0.000957717
0.000982641
0.00115297
0.00101
0.000657629
0.000823908
0.00101
0.00117968
0.000964441
0.00099025
0.000160682
0.000986054
0.000875008
0.000936631
0.000510229
0.00102327
0.000966969
0.0010234
0.0010233
0.00101
0.000771965
0.000895476
0.000833864
0.000976221
0.00092185
0.00100577
0
0
0
0.00076343
0.00107141
0.000962901
0.00100563
0.000944429
0.000473953
0.000911195
0.000978965
0.000968087
0.00097325
0.000338297
0.000895901
0.000914242
0.000926795
0.000943664
0.00102333
0.0701838
0.0809115
0.090235
0.000868797
4.23266e-05
0.000958955
0.000341638
0.000926634
0.000750894
0.00147414
0.000672371
0.000831477
0.0014743
0.000471063
0.000491909
0.000406739
0.000485044
0.000242686
0.000584634
0.000434679
0.0010348
0.000270985
0.000575667
0.000666396
0.000877991
0.000572306
4.3442e-07
0.000152108
0.00118425
0.000499086
0.00103475
0.000312228
0.000747328
0.000797378
0.000346646
0.00101
0.000942721
0.000570947
0.00118423
1.24141
1.19506
1.27988
1.23818
1.24416
1.30533
1.28265
1.33536
1.30362
1.36486
1.3119
1.2874
1.36596
1.31596
1.14016
1.13862
1.12953
1.14339
1.15717
1.16629
1.1681
1.17251
1.07928
1.07717
1.10205
1.08622
1.11858
1.12706
0.714349
0.642972
0.560498
0.635643
0.425139
0.526507
0.642807
0.640803
0.865161
0.866989
0.86943
0.79848
0.953394
1.00218
0.911811
0.866091
1.00955
1.0056
1.02447
1.00343
1.04339
1.0734
1.07486
1.0833
1.0792
1.07554
1.08089
1.07868
1.07675
1.07956
0.126254
0.114164
0.287078
0.366209
0.261718
0.181434
0.416283
0.361266
0.0936917
0.115692
0.0815838
0.00259634
1.25589
1.29237
1.27578
1.30005
1.31799
1.30489
1.3443
1.35185
1.33172
1.34535
1.33381
1.34407
1.34882
1.37152
1.39428
1.40942
1.41157
1.46168
1.4432
1.49367
1.49639
1.36685
1.378
1.49727
1.50461
0.000415286
9.08486e-05
0.000696944
0.000551543
0.000525579
9.3846e-05
0.000260243
0.000189484
0.00101
1.00585e-05
0.000927799
0.000258474
0.000705117
0.000657476
5.07035e-06
0.000780461
0.00186201
0.000438875
0.000872027
0.000687083
0.000483852
1.85227e-16
0.000987772
2.10624e-226
0.0894655
0.0890852
0.0528746
5.4872e-05
0.119118
0.167181
0.225503
0.206773
0.237994
0.220175
0.341113
0.293855
0.398243
0.387374
0.406501
0.418373
0.3864
0.442831
0.490526
0.463532
0.444987
0.47401
0.522723
0.510182
0.491369
0.537058
0.620145
0.620841
0.613585
0.635075
0.764682
0.676969
0.849307
0.875446
0.876839
0.940308
1.0181
1.09228
1.10227
1.11232
1.16167
1.20717
1.2467
1.2413
1.28
1.25791
1.30819
1.3202
1.32216
1.32211
1.32283
1.32146
1.28998
1.32463
1.29382
0.000852705
0.000168715
0.00692184
0.0010251
0.000696531
7.73581e-05
0.000686777
0.000538285
0.000919765
0.000700239
0.00101
0.00132831
0.00132912
0.00132767
0.00132881
0.00132706
0.00132595
0.000998489
0.00132496
0.0070205
0.00098161
0.000638589
0.000184916
0.00103126
0.000432466
0.00103103
0.00103099
0.000424365
9.88617e-05
0.00100217
0.000993637
0.000687571
0.000856518
0.000794625
0.00101
0.00103665
0.000781672
0.000959982
0.00100986
0.000887496
0.000962023
0.000994655
0.00186379
0.000974856
0.000146754
1.36216e-05
0.000607696
0.00096357
0.000988249
0.000479144
0.000826696
0.000961729
0.00100941
0.00031059
3.53153e-05
0.000987756
0.00100992
0.000817418
0.000560979
0.000723119
0.00101
0.000799183
0.00096874
0.000279366
0.000905419
0.000941315
0.000942499
0.0010008
0.000939674
0.000880492
0.000886752
0.00100949
0.00097168
0.000773375
0.000984106
0.000952799
0.000581055
0.00098992
0.000934564
0.000964099
0.000974876
0.000974485
0.00101
0.00099424
0.000905098
0.000464111
0
0
0
0
0
0
0
0
0
0
0
0
0
0
0
0
0
0
0
0.00099334
0.000892704
0.000937661
0.000812305
0.000916541
0.000434354
0.000930589
0.00106414
0.000325168
0.000811332
0.000461629
0.000885277
1.54454
1.54194
1.55995
1.54446
1.55517
1.55489
1.39821
1.37857
1.46663
1.42602
1.52358
1.54866
1.52653
1.4271
1.35629
0.455049
0.461293
0.456308
0.446931
0.457913
0.390114
0.429635
0.222207
0.277314
0.146223
0.142763
0.0895748
0.0899413
0.0927562
4.53839e-05
0.000789373
0.000495047
0.000982711
0.000951591
0.0895702
0.000182486
0.000948865
0.000967043
0.00110341
0.000789719
0.000977274
0.000825577
0.000970402
0.000977458
0.000717645
0.000335301
0.00101399
0.00101359
0.000301003
0.00101303
0.000932938
0.0004632
0.000564851
0.459439
0.468738
0.460848
0.461423
0.460611
0.17292
0.290881
0.234301
0.358086
0.411601
0.437586
0.365879
0.454677
0.406105
0.402356
0.388322
0.000954778
0.00110765
0.00082815
0.000970576
0.000973219
0.000935143
0.000760343
0.00101464
0.000147894
0.000893331
0.00101277
0.00065279
6.92933e-05
0.000748182
0.00102041
0.000508825
0.000763669
0.00083654
0.000976168
0.000946123
0.00094707
0.000991399
0.000740767
0.000908685
0.000621516
0.00100955
0.000627569
0.000973579
0.000348921
2.15212e-05
0
0
0
0
0
0.000871157
0.00107132
0.000978274
0.00107112
0.000988902
0.000872265
0.00078846
0.000950347
0.00098805
0.00100037
0.00093197
0.000953825
0.000956596
0.000997349
0.000778615
0.00101
0
0
0
0
0
0
0.0669015
0.000658938
0.000139698
0.000661385
0.000589451
0.000680509
0.00078824
0.000960083
0.000791447
0.000311719
0.00100956
0.000847473
0.000375808
0.000550644
0.00033854
0.000760208
0.000752664
0.000795758
0.000905726
0.000971356
0.000988815
6.51335e-05
0.000629647
1.79748e-05
0.000486704
0.000783736
0.000634249
0.000404769
0.000958393
0.00027789
0.000609182
1.31742e-05
0.000467482
0.00183094
0.00183078
0.000646851
0.000959699
0.000281529
0.000798649
0.00100972
0.000818552
1.20386
1.19738
1.20302
1.20413
1.22369
1.21699
1.25635
1.30191
1.27547
1.28866
1.35693
1.31609
1.28298
1.12716
1.1268
1.15508
1.14274
1.16584
1.17087
1.18811
1.17849
1.08039
1.08423
1.10735
1.09156
1.10663
1.11475
0.75717
0.68401
0.5985
0.638831
0.586109
0.493424
0.676922
0.63678
0.871231
0.870679
0.834583
0.873036
0.962866
1.00786
0.874285
0.91831
1.01408
1.01038
1.0364
1.01191
1.05224
1.07605
1.07843
1.07255
1.07271
1.07598
1.07694
1.07406
1.07441
1.07418
0.115542
0.172433
0.36161
0.337803
0.255471
0.340505
0.365553
0.435198
0.109744
0.10295
0.0994058
0.0151932
5.3971e-05
3.0611e-07
0.000545264
1.32206
1.33114
1.35868
1.34705
1.36858
1.3842
1.38527
1.38194
1.41857
1.39689
1.41024
1.37792
1.40706
1.41675
1.43925
1.46078
1.47532
1.47338
1.5232
1.52437
1.54793
1.52599
1.43699
1.44407
1.55639
1.55023
0.00016622
0.000334169
0.00101
7.43084e-06
0.000729054
0.00124045
0.00124049
0.000988742
0.000305007
0.000126014
0.000112945
0.00204588
0.00106748
0.000735322
0.000822227
0.00085719
0.00100232
0.000626775
0.000320397
0.000824137
8.63116e-05
0.000995528
0.000301624
0.000786917
0.000885078
0.036238
0.0986931
0.000957958
0.203131
0.150458
0.213784
0.224044
0.304576
0.247419
0.36921
0.396755
0.396674
0.40236
0.525908
0.491212
0.460849
0.514091
0.537813
0.532604
0.53044
0.517154
0.534128
0.535435
0.614302
0.660172
0.697276
0.651224
0.697101
0.722202
0.863034
0.797155
0.891497
0.87284
0.957812
1.02793
1.12011
1.1118
1.15139
1.18519
1.25876
1.25296
1.27091
1.27981
1.30557
1.31298
1.33274
1.32473
1.33846
1.33266
1.32384
1.3354
1.32673
1.32392
0.000954627
0.000863994
0.00101
0.00067133
0.000949162
0.000657298
0.000566723
0.000789161
0.000642839
0.00132711
0.000385362
0.000931445
0.000295436
0.0013271
0.00132736
0.00132594
0.0013272
0.00132582
0.00132605
0.00044062
0.000371652
0.00100968
0.000655711
0.000938422
0.000788581
0.00100179
0.000700342
0.000997704