/*--------------------------------*- C++ -*----------------------------------*\
  =========                 |
  \\      /  F ield         | OpenFOAM: The Open Source CFD Toolbox
   \\    /   O peration     | Website:  https://openfoam.org
    \\  /    A nd           | Version:  8
     \\/     M anipulation  |
\*---------------------------------------------------------------------------*/
FoamFile
{
    version     2.0;
    format      ascii;
    class       volScalarField;
    location    "12420";
    object      nut;
}
// * * * * * * * * * * * * * * * * * * * * * * * * * * * * * * * * * * * * * //

dimensions      [0 2 -1 0 0 0 0];

internalField   nonuniform List<scalar> 
526318
(
0.000122312
8.4467e-05
0.000128786
0.000147248
2.02358e-05
0.000177655
0.000328951
0.000175343
5.81307e-05
0.000395958
4.85813e-05
0.000137234
5.86462e-05
0.000369373
0.000165583
0.000182683
2.72162e-05
4.5432e-05
0.000185649
0.000184186
0.000209763
0.000135793
0.000349152
0.000426692
9.82784e-05
0.000115744
0.000123512
0.000426059
0.00012599
0.000122762
0.000170761
0.000165282
0.000198586
0.00016692
4.47195e-05
5.53942e-05
0.000102791
0.000183358
3.63108e-05
6.08499e-05
0.000165137
0.000133628
0.000276763
4.45521e-05
0.000211781
0.000348859
0.000175104
0.000122824
0.000119256
0.000178364
2.81144e-05
0.000128145
7.12586e-05
6.92139e-05
6.71954e-07
0.000301
0.000193929
3.76867e-06
0.000237524
0.000237331
4.60646e-05
5.96937e-05
8.46716e-05
0.000182313
0.000213178
0.000120954
0.000216163
2.96821e-05
0.000164895
0.000164173
0.000127251
5.88936e-05
0.000194997
0.000156901
9.37876e-05
8.91474e-05
0.000181777
0.000153064
8.35345e-05
0.000166223
0.00013236
0.000103605
8.30591e-05
0.000142784
7.80933e-05
9.09001e-05
4.14822e-05
7.70649e-05
7.80691e-05
0.000114209
0.000119707
0.000135723
9.84419e-05
3.87185e-05
2.32381e-05
3.82617e-05
4.54516e-05
8.28753e-05
2.86933e-05
1.49535e-05
0
0
0
0
0
0
0.00022011
1.75638e-05
0.000322016
0.000298476
0.000176744
0.000328706
0.000352532
0.000191448
0.000200578
0.000220229
0.000187844
8.66177e-05
0.000126478
1.96974e-05
4.4583e-05
0.000119652
4.60946e-05
2.79402e-05
0.00010993
1.52812e-05
5.82424e-05
4.60808e-05
6.11495e-05
4.20075e-05
3.84131e-05
4.42123e-05
3.02541e-05
3.23828e-05
3.51795e-05
1.79647e-05
4.03969e-05
2.4354e-05
3.19573e-05
3.1774e-05
3.09958e-05
3.31265e-05
5.6337e-05
5.63287e-05
1.02947e-05
3.0027e-05
1.65674e-05
2.77137e-05
1.10219e-05
2.45228e-05
2.87163e-05
3.10753e-05
1.35353e-05
1.27514e-05
1.4533e-05
1.29749e-05
1.82516e-05
3.23038e-05
1.07562e-05
5.49586e-06
1.67894e-05
8.11827e-06
2.47104e-05
0.000111182
0.000193104
7.34948e-05
0.000134196
9.24581e-05
8.7685e-05
1.77001e-05
1.43273e-05
8.77417e-05
0.000140062
3.47005e-05
9.16672e-05
4.52408e-05
6.43478e-05
9.759e-05
3.32193e-05
6.48922e-05
4.71441e-05
4.28407e-05
8.2372e-05
4.17221e-05
1.52743e-05
4.97416e-05
3.46058e-05
3.58571e-05
4.54236e-05
5.01806e-05
4.28e-05
4.42383e-05
3.81079e-05
5.26061e-05
3.76438e-05
4.06701e-05
5.93692e-05
5.08086e-05
2.31623e-05
2.65823e-05
3.11753e-05
6.34696e-05
7.39741e-05
1.84702e-05
3.00558e-05
1.41978e-05
3.2932e-05
5.38601e-05
3.99118e-05
6.63626e-05
9.617e-05
9.01258e-05
4.76902e-05
7.71286e-05
0.000132178
0.00012052
0.000107685
5.0983e-05
4.69936e-05
4.21334e-05
0.000242883
9.45006e-05
0.000182441
5.03341e-05
4.27363e-05
4.19449e-05
6.27616e-05
2.17163e-05
4.24172e-05
0
0
0
0.000122834
0
0
0
0
0
0
0.000142019
0.000212655
0.000176882
0.000195526
0.000154803
0.000154105
0.000154604
0.000205821
0.000170515
0.000125631
0.000149023
0.000118384
8.77999e-05
9.59708e-05
7.32625e-05
0.000125216
3.20934e-05
5.63323e-05
3.82078e-05
5.55658e-05
3.96297e-05
2.06674e-05
0
0
0
0
0
0
0
1.19659e-06
0.000223211
0.000330361
0.000243234
0.000440116
0.000306177
0.000254513
0.00027928
0.000237785
0.000137967
0.000196854
7.08399e-05
0.000100981
5.21517e-05
2.14674e-05
3.94416e-05
2.58127e-05
2.90603e-06
3.0247e-05
2.29271e-05
2.66944e-05
1.93791e-05
3.45763e-05
1.76145e-05
2.69615e-05
2.05598e-05
9.2462e-06
2.4403e-05
2.77259e-05
4.35869e-05
8.32859e-06
2.65293e-05
1.14203e-05
1.22312e-05
7.49393e-06
2.25719e-05
3.02925e-05
1.47952e-05
1.68896e-05
6.87158e-06
2.72627e-05
2.57277e-05
7.19967e-06
6.48038e-06
0
0
0
0
2.10745e-05
1.95735e-05
2.5346e-05
3.19187e-05
6.95665e-05
6.54213e-05
6.44888e-05
0.000140203
7.23444e-05
0.000104829
0.00011426
7.49995e-05
0.000155779
9.06718e-05
0.000109001
1.33736e-05
4.10026e-05
1.16751e-05
6.73912e-05
1.84569e-05
7.06227e-05
3.08466e-05
9.74213e-05
5.06394e-05
2.22854e-05
3.19087e-05
4.52699e-05
4.22212e-05
5.34193e-05
1.96042e-05
3.77069e-05
6.34185e-05
6.21676e-05
7.39356e-05
3.32839e-05
6.87179e-05
1.73026e-05
3.60186e-05
2.681e-05
5.40526e-05
5.31974e-05
6.25797e-05
3.78522e-05
3.8394e-05
4.34261e-05
9.65092e-05
6.69797e-05
5.18758e-05
6.79317e-05
5.5179e-05
7.3245e-05
4.3901e-05
6.05046e-05
3.08028e-05
5.55931e-05
6.7739e-05
0.000108787
5.03863e-05
5.98762e-05
4.8342e-05
7.12021e-05
8.06461e-05
2.45864e-05
2.43785e-05
1.51401e-05
6.52792e-05
5.51982e-05
0.000145757
4.29963e-05
6.15732e-05
1.72082e-05
6.25085e-05
5.4303e-05
3.36291e-05
5.24424e-05
3.24192e-05
3.79675e-05
1.62266e-05
4.48368e-06
3.59029e-05
8.55956e-05
6.08537e-05
4.97896e-05
0
0
0
0
0
0
0
0
0
0
0
0
0
0
0
0
0.000152471
0.000144982
0.000115665
9.01708e-05
0.000143772
0.000126082
0.000138759
4.53089e-05
3.28103e-05
0.000102077
7.00088e-05
7.57748e-05
7.71763e-05
9.02884e-05
8.1632e-05
2.54671e-05
1.21048e-05
7.16392e-05
2.94254e-05
4.8091e-05
1.45769e-05
1.61764e-05
0
5.71073e-10
1.2896e-10
0
0
0
0
1.94959e-10
5.47842e-10
4.40489e-10
0
0
0
0
0
0
0
0
0
0
0
0
0
0
0.000101119
0
0.000321527
0.000148361
0.000322171
0.000169272
0.000166161
0.00025931
0.000291416
0.000105623
0.00013885
5.49333e-05
0.000103811
4.33319e-05
3.91633e-05
3.86672e-05
4.14639e-05
2.67475e-05
3.71432e-05
2.85919e-05
1.60149e-05
7.87265e-06
3.53352e-05
2.04703e-05
3.49779e-05
1.55349e-05
0
9.1589e-07
2.72631e-05
1.57832e-05
1.90147e-06
1.86267e-05
3.14608e-05
1.18417e-05
0
0
0
0
5.08755e-07
0
0
0
0
0
0
9.93422e-05
4.56196e-05
9.08578e-05
7.661e-05
9.27935e-05
8.85934e-05
0.000110886
5.28973e-05
4.04539e-05
2.75046e-05
3.63752e-05
4.55679e-05
1.83816e-05
2.60678e-05
6.25334e-05
0.000146643
5.2007e-05
3.87453e-05
7.86266e-05
0.000108194
9.84961e-05
0.000124785
0.00014448
0.000106548
8.9749e-05
0.000146052
0.000113385
1.41891e-05
4.52097e-05
0.000134997
6.0581e-05
0.000158371
7.82242e-06
0
0
2.31765e-05
1.21021e-05
2.80024e-05
3.19874e-05
2.26826e-05
7.93423e-05
2.78632e-05
5.84809e-05
6.96965e-05
2.79682e-06
5.31132e-05
6.86798e-05
3.44153e-05
8.33804e-05
8.87647e-05
3.17162e-05
0.000100721
5.34904e-05
8.646e-05
9.33572e-05
1.95762e-05
3.14189e-05
8.11049e-05
9.04234e-05
3.45229e-05
7.63881e-05
6.55949e-05
9.27786e-05
5.92481e-05
0.00010797
0.000152254
0.000144653
0.000132461
5.00889e-05
0.000165136
0.00010051
9.41164e-05
5.58152e-05
2.81505e-05
6.03202e-05
9.04444e-05
9.55633e-05
7.80904e-05
2.77894e-05
3.52528e-05
5.31429e-05
7.55563e-05
7.76469e-05
0.000145433
6.33107e-05
6.26509e-05
0
5.38399e-06
0.000152233
7.38361e-05
0.000139944
6.32861e-05
5.93022e-05
2.13423e-05
6.62004e-05
3.18477e-05
0
0
0
0
0
0
0
0
0
0
0
0
0
0
0
0
0
0
0
0
0
0
0
0
0
0
2.1985e-09
0
2.18125e-10
0
8.97686e-10
2.3721e-09
0
0
0
0
0
0
0
0
0
0
0
0
0
0
8.84351e-05
0.000132543
0.000159965
4.70399e-05
7.43217e-05
5.43314e-05
5.28018e-05
8.52202e-05
5.6837e-05
2.73343e-05
3.25597e-05
4.86015e-05
4.87621e-05
2.42776e-05
4.32037e-05
6.00783e-05
3.30872e-05
2.99646e-05
5.11423e-05
5.75852e-05
1.59475e-05
4.74587e-05
0
0
0
0
0
0
0
0
4.85945e-09
0
0
0
0
0
0
0
0
0
0
0
0
0
0
0
0
0
0
0
0
0
0
0
0
0
0.000171231
1.70598e-05
5.92985e-05
0.000292623
0.000268251
8.65007e-05
0.000270868
7.68967e-05
0.000134439
0.000247191
0.00015156
0.000207291
0.000138676
0.000173373
8.36939e-10
0
0
0
0
0
0
0
0
0
0
0
0
0
0
0
0
2.12228e-05
2.94558e-05
7.98664e-06
2.02288e-05
1.30885e-05
2.51573e-05
3.20854e-05
1.41629e-05
3.61335e-06
0
0
0
0
0
0
0
0
7.04005e-06
0
1.85752e-07
0
0
0
0
0
0
0
0
0
0
0
0
5.25553e-05
6.36234e-05
0.000127585
7.58311e-05
0.000104672
0.000150454
8.88529e-05
0.000155505
0.000186812
0.000128379
5.69046e-05
3.06823e-06
5.50599e-05
0.000136909
3.61783e-05
5.84697e-05
4.09307e-05
4.18018e-05
0
1.82905e-05
8.28512e-05
0
4.75336e-05
0.000117731
3.72132e-05
0.000114362
0.000136062
0.000105537
0.000143838
0.000101907
8.06159e-05
5.35892e-05
0
8.63486e-05
0.000137174
1.76682e-05
4.36564e-06
3.29653e-05
0
0
0
1.2815e-05
2.16718e-05
7.09147e-06
2.65479e-05
4.42433e-05
4.70646e-05
4.54224e-05
1.40859e-05
5.01413e-05
7.45323e-05
0.000111207
8.46428e-05
6.11546e-05
0.00015277
7.35303e-05
0.000170294
2.67815e-05
4.95312e-05
8.53046e-05
3.85402e-05
9.95648e-06
7.47377e-05
2.95199e-05
3.49419e-05
9.28835e-05
0.000114349
9.16845e-05
0.000156752
2.67629e-05
5.00657e-05
9.75824e-05
2.28309e-05
0.000144846
0.000107416
0.000169216
0.000151821
0.000130134
0.000137594
0.000128944
0.000198765
0.000113928
0.000238678
0.000228587
0.000204021
0.000178999
0.00023869
0.000170178
0.00024836
0.000209508
0.000280221
0.000255191
0.000262421
0.000258802
0.000266015
0.000332839
0.000330667
0.000338187
0.000311071
0.000277325
0.000367481
0.000333881
0.000352497
0.000364024
0.000351606
0.000337891
0.000383545
0.000399896
0.000352905
0.000390727
0.000371556
0.000329931
0.000427265
0.000398927
0.00043174
0.000381895
0.000475526
0.000434302
0.000476721
0.000454255
0.000399648
6.82281e-05
0.000116823
8.93699e-05
6.93029e-05
0.000151877
7.25627e-05
6.0641e-05
1.2943e-05
9.41388e-06
0
0
0
0
0
0
0
6.05155e-05
1.55728e-06
1.58116e-06
0
0
0
0
0
0
0
0
0
0
0
0
0
0
0
3.88635e-09
0
0
0
0
0
0
0
0
6.4765e-09
0
0
0
0
0
0
0
0
0
0
0
0
0
0
0
0
0
0
0
0
0
0
0
0
4.32542e-10
6.73924e-10
0
4.60564e-10
0
0
0
0
0
0
0
0
0
0
0
0
0
0
0
0
0
0
0
0
0
0
0
0.000132092
4.39542e-05
7.13699e-05
0.000172411
8.26816e-05
5.20098e-05
4.52004e-05
6.50177e-05
5.94505e-05
4.27573e-05
3.74302e-05
3.91975e-05
4.26147e-05
2.27981e-05
2.57188e-05
4.67085e-05
2.78215e-05
3.17695e-05
2.58382e-05
5.38848e-05
3.58344e-05
4.09096e-05
0
0
5.7962e-09
7.98452e-09
0
0
0
0
4.23824e-09
0
0
0
0
0
0
0
0
0
0
0
0
0
3.69755e-09
3.07719e-09
0
0
0
0
4.16786e-05
0
4.20485e-05
0.00012448
0.000225846
0.000159518
0.000292256
0.000218437
0.000244689
0.000286112
0.000262516
0.000268209
0.000200277
0.000256533
0.000208699
0.000145491
8.53954e-09
0
0
0
0
3.4053e-11
0
0
1.23669e-11
0
0
0
0
0
0
0
0
0
0
0
0
0
0
0
4.78213e-07
0
8.6112e-06
1.95525e-05
1.37663e-05
8.6304e-06
0
4.80202e-06
0
0
0
1.79189e-09
0
0
0
0
0
0
0
0
2.76622e-08
3.84935e-08
0
0
0
0
0
0
0
0
0
0
3.96257e-10
0
0.000159811
8.37217e-05
0.000128588
0.000109448
7.91443e-05
0.00011486
0.000108782
0.000122676
0.000338165
0.000214743
0.000153974
0.000211214
0.000262453
0.000314453
0.000279078
0.000321806
0.000317865
0.00028434
0.000341491
0.00033618
0.000374335
0.0003928
0.000448569
0.000431881
0.000444914
0.000465509
0.0004368
0.000402619
0.000479151
0.000486359
7.22869e-05
7.20008e-05
1.21208e-05
0.000180851
6.22414e-05
1.76446e-05
5.80957e-05
2.51357e-05
0
7.38102e-07
0
1.81843e-05
0
4.48326e-05
8.72089e-05
0.000129744
0.000117362
0.000118043
0.000117823
0
0
0
0
0
0
0
0
0
0
0
0
0
6.17316e-06
0
3.79541e-05
2.35455e-05
3.19253e-05
6.45691e-05
7.54339e-06
8.8216e-05
5.57509e-05
6.36047e-05
0.000102125
0.000105793
6.21581e-05
8.889e-05
4.03012e-05
9.47463e-05
0.000126982
5.37182e-05
0.000100459
2.89564e-05
6.75973e-05
6.62823e-05
0.000100299
0.000109838
0.000126178
0.000135527
0.000137711
0.000116431
0.000121438
0.000169193
0.000161657
0.000112011
0.000140048
0.000189632
0.000156865
0.000215035
0.000188597
0.000247365
0.000213948
0.000265134
0.000256389
0.000252486
0.000231425
0.000284231
0.000267489
0.000317316
0.000247929
0.000347092
0.000317799
0.000355804
0.000383003
0.000394634
0.000389721
0.000426192
0.000376518
0.000426593
0.000447744
0.000373104
0.000380578
0.000437689
0.000384807
0.000375242
0.000420705
0.000416894
0.00038948
0.000370788
0.000389904
0.000376011
0.00037893
0.000340295
0.000402309
0
0
5.39564e-06
3.51147e-05
0
4.14825e-05
0.00011002
4.7817e-05
0.000108123
0
0
0
0
8.95376e-07
0
0
0
0
0
5.31136e-09
5.99772e-09
0
0
0
0
0
0
0
0
8.72322e-10
1.08319e-08
0
0
0
4.66584e-09
0
0
0
0
0
0
0
6.00837e-09
0
0
0
0
0
0
0
0
2.51625e-11
0
0
0
0
0
0
0
0
0
0
0
0
0
0
8.49394e-10
0
0
0
0
0
0
0
0
0
0
0
0
0
0
0
0
0
0
0.000106337
6.5231e-05
7.9344e-05
0.00015434
6.98635e-05
3.54285e-05
6.09851e-05
2.2766e-05
2.8166e-05
1.35746e-05
3.70471e-05
1.56746e-05
2.9761e-05
3.73504e-05
2.86434e-05
1.71128e-05
3.6485e-05
3.28348e-05
3.35013e-05
2.41409e-05
1.49342e-05
3.82959e-05
1.36082e-08
0
6.06728e-09
0
0
0
0
0
0
0
0
0
0
0
0
0
0
0
0
0
0
0
0
0
0
0
0
0
0.000119131
0
3.21079e-05
6.35126e-05
9.89362e-05
0.000107215
0.000160149
0.00017335
0.000175723
0.000171303
0.000179962
0.000195049
0.000169806
8.08536e-05
0.000154677
0.000134212
0
0
0
0
0
0
0
0
0
0
0
0
0
0
0
0
0
0
0
0
0
0
3.70347e-07
0
0
0
0
0
0
0
0
2.28826e-05
1.4777e-05
3.67948e-06
0
0
0
0
0
2.04965e-05
1.68903e-05
4.57406e-06
0
0
0
0
4.2483e-10
6.80619e-10
0
0
0
0
0
0
0
0
0
0
0
0
0
0
0
0
0
0
0.000350896
0.00034785
0.00029191
0.000339595
0.000302197
0.000367432
0.000284544
0.000350255
0.000291838
0.000284628
0.000289433
0.000348417
0.000267782
0.000296202
0.000344863
0.00036487
0.000378797
0.000382144
0.000391796
0.000375258
0.000390321
0.000388926
0.000405647
0.000410384
0.000382496
0.000446492
0.000455204
0.000368345
0.000396802
0.000442335
0.000444112
0.000437511
0.000430142
0.00041614
0.000421676
0.000188084
0.000140666
2.21729e-05
0.000200339
3.0589e-05
6.85544e-05
0.000169341
0.000123257
0.00035023
0.000251798
0.000231354
0.000208664
0.000291497
0.000292086
0.000252897
0.00031702
0.000271055
0.000357001
0.000364833
0.00037296
0.000415778
0.000411934
0.00043484
0.000455125
0.000499597
0.000490465
0.000461881
0.000488616
0.000103092
8.38925e-05
6.45257e-05
4.65976e-05
8.91345e-05
0.000111736
8.24946e-05
9.7543e-06
3.55047e-05
3.10285e-06
0
0.000297998
0.000353075
0.000314974
0.000356243
0.000368301
0.000393004
0.000371889
0.000422796
0.000323752
0.000342252
0.000304666
0.00032584
0.000324356
0.000340929
0.000289762
0.000399849
0.000278981
0.000277383
0
0
1.13987e-09
8.51486e-05
5.49835e-06
0.000138233
8.08474e-05
5.74128e-07
8.02533e-10
0
2.12937e-09
3.18759e-09
0
0
0
0
0
0
0
0
0
0
2.14286e-09
0
1.94511e-05
2.92483e-06
3.72069e-05
2.77184e-05
6.60157e-05
9.18886e-05
7.05263e-05
4.25807e-05
2.47028e-05
7.6461e-05
1.93202e-05
8.36927e-05
5.89083e-05
0.000102265
6.90148e-05
0.000163433
0.00013673
9.71828e-05
0.000140536
8.15572e-05
0.00012052
0.000134122
0.000120155
0.000131572
0.000161929
0.000174882
7.53037e-05
0.000112991
0.000105114
0.000139178
0.00015065
0.000175699
0.000206522
0.000150702
0.00019052
0.000246545
0.000275242
0.000287112
0.000235694
0.000304058
0.000301974
0.000341776
0.000273001
0.00032389
0.000290507
0.000343364
0.000358488
0.000337476
0.000367474
0.00038813
0.000400603
0.00033593
0.000346253
0.000301347
0.000301003
0.000365919
0.000362149
0.000317588
0.000350845
0.000350004
0.000350278
0
0
1.38308e-06
0
0
0
0
0
0
0
0
0
0
0
3.2477e-09
0
0
0
0
3.95514e-09
0
0
0
0
0
0
0
0
7.88338e-10
8.96123e-10
1.16541e-07
0
2.44906e-10
0
0
0
0
0
0
0
0
0
2.93455e-09
0
0
0
0
0
0
0
0
2.72448e-07
0
0
0
0
0
0
0
0
0
0
0
0
7.12981e-10
0
0
0
0
1.43662e-09
0
0
0
0
0
0
0
0
0
0
0
0
0
0
0
0
0
0
0
2.37174e-09
0
0
0
0
2.69462e-09
0.000321208
0.000557861
0.000345344
0.000193252
0.000293688
0.000382312
9.51847e-05
7.00805e-05
7.97796e-05
7.9788e-05
7.82733e-05
5.32488e-05
5.40679e-05
3.84035e-05
1.59064e-05
2.82181e-05
3.10588e-05
1.30004e-05
4.0209e-05
4.62672e-05
2.86033e-05
3.54731e-05
1.27072e-05
6.97899e-05
2.99787e-05
0
0
0
0
0
0
0
0
0
0
0
0
0
0
0
0
0
0
0
0
0
0
0
0
0
0
0
2.24061e-05
4.91035e-05
4.44868e-05
6.96081e-05
3.88036e-05
9.11946e-05
9.05991e-06
7.66516e-05
5.80285e-05
0.000101182
5.51169e-05
9.90993e-05
5.75242e-05
3.97031e-05
8.99185e-05
5.5575e-05
0
2.81972e-10
0
0
0
0
0
0
0
0
0
0
0
0
0
0
0
0
0
0
0
0
0
0
0
0
0
0
0
0
0
0
0
0
0
0
0
2.41291e-05
1.43637e-05
6.89411e-06
3.21264e-06
4.17142e-06
0
2.05677e-06
0
0
0
0
8.86326e-06
1.96912e-06
0
0
0
0
0
0
0
0
0
0
0
0
0
0
0
0
0
0
0
0
0
0
0
0
0.000366761
0.000374048
0.00032583
0.000310723
0.00040047
0.000194994
0.000239772
0.000340613
0.000401844
0.00039713
0.000419027
0.000374895
0.000367929
0.000385413
0.000327867
0.000354803
0.000508469
0.00046861
0.00045712
0.000501676
0.000443735
0.000431188
0.000263963
0.000176434
6.26253e-05
0.000121846
8.63595e-05
0.000134637
9.37622e-05
0.00021101
0.00034097
0.000330258
0.000345105
0.000255968
0.000272003
0.000329401
0.000322522
0.000340386
0.000401321
0.000329192
0.000362505
0.000398067
0.000374697
0.000409447
0.000411673
0.000406634
0.000424485
0.00039022
0.000486112
0.000508696
0.000507996
0.000430178
0.000456768
1.72489e-05
4.53607e-05
0.000124354
6.23196e-05
2.65471e-05
0.000165639
1.16921e-05
6.10876e-05
5.94217e-05
3.46622e-05
0
1.9933e-05
0.000255482
0.000252324
0.000322791
0.000303183
0.000338502
0.000336308
0.000304591
0.000344109
0.000276576
0.000263134
0.000300747
0.000313317
0.000307187
0.000288254
0.000264382
0.000275972
0.000276121
0.000250871
0.000282275
0.000247215
0.00025409
0.000227082
0.0001521
0.000311549
0.000191054
1.69706e-09
4.1212e-09
2.33159e-09
0
0
0
0
0
0
0
0
0
0
0
0
0
0
0
0
0
2.94209e-09
0
0
0
3.96773e-05
6.85071e-05
2.97162e-05
6.08473e-05
0.000103046
3.74538e-05
6.32327e-05
8.40024e-05
3.55948e-05
6.17099e-05
6.95402e-05
3.22058e-05
9.98498e-05
5.55721e-05
0.000185668
5.09574e-05
0.000140751
0.000126123
0.000168591
0.000143958
0.000142286
0.000153288
0.000156279
0.000154023
0.000177141
0.000113628
0.00013969
0.000176493
0.000210634
0.000184786
0.000210878
0.00017418
0.000231624
0.000179284
0.000370976
0.000307029
0.000338513
0.000383534
0.000358903
0.000333431
0.000354289
0.000342455
0.000323798
0.000339063
0.000353749
0.000375996
0.000333734
0.00028633
0.000343693
0.000217077
0.000287462
0.000174964
0.000246945
0.00028113
0.000216722
0.000264752
0.00024467
0.000293876
0
0
0
0
0
0
0
0
0
0
0
0
0
0
0
0
0
0
0
0
0
0
0
0
0
4.41195e-10
0
0
2.08893e-09
5.52975e-10
0
0
0
0
0
0
0
0
0
0
0
0
2.95955e-07
0
0
0
0
0
0
0
0
2.92432e-07
0
0
0
0
1.30386e-09
0
0
0
0
0
0
0
2.36447e-09
2.45943e-09
0
0
2.13941e-09
2.98921e-09
0
0
0
0
3.19388e-09
0
4.3458e-09
0
0
0
0
0
0
0
0
0
0
0
0
0
0
0
0
0
1.4635e-09
0
0
0
0
0
0
0
0
0.000369335
0.000348614
0.000359169
0.00042184
0.000353032
9.76154e-05
0.000248022
0.000256613
0.00017861
0.000353865
1.74184e-05
9.84132e-05
4.21433e-05
6.62406e-05
2.67273e-05
4.1388e-05
2.97437e-05
2.77189e-05
4.85651e-05
2.85316e-05
2.58922e-05
4.897e-05
3.49517e-05
3.48274e-05
9.96944e-06
2.2161e-05
3.24482e-05
0
0
0
0
0
0
0
3.0416e-10
1.84838e-05
0
0
0
0
0
0
0
0
0
0
1.99058e-11
0
0
0
0
0
1.95524e-05
7.18304e-05
5.65459e-05
3.59684e-05
9.89603e-05
0.000116288
5.75539e-05
9.64507e-05
4.05874e-05
0.000136762
0.0001024
6.45881e-05
2.016e-05
2.17375e-05
4.2254e-05
3.1955e-05
0
0
2.65743e-10
0
0
0
0
2.8475e-09
0
0
0
0
0
0
0
2.31883e-09
0
9.49528e-10
1.72948e-09
0
0
0
0
0
0
0
0
0
0
0
2.6464e-09
0
0
0
0
0
0
0
0
0
0
0
0
0
8.31181e-10
2.96811e-05
2.0152e-05
7.7496e-06
0
0
0
0
0
0
2.68017e-10
0
0
9.34907e-10
0
0
0
0
0
0
0
6.86624e-10
0
0
0
0
0
0
0
8.24817e-10
0
9.79946e-10
0
0
0
0
0
0
0
1.09083e-09
0.000347762
0.000393098
0.00031055
0.000584118
0.000358863
0.000502702
0.000485799
0.00056197
0.000569738
0.000307248
0.000457959
0.000317368
6.65566e-05
0.000213448
0.000436155
0.000363259
0.000413801
0.000335428
0.000383807
0.000293492
0.00037324
0.000315997
0.000522021
0.000475893
0.000479278
0.000488754
0.000466153
0.000429029
0.000276879
0.000171328
0.000137394
0.000163188
0.000117449
7.66492e-05
9.4616e-05
0.000169636
0.000303116
0.00031176
0.000274693
0.000225168
0.000357223
0.000386222
0.000422605
0.000340958
0.00039938
0.000368517
0.000358337
0.000428779
0.000463834
0.000323301
0.000342494
0.000382026
0.000417089
0.000376854
0.000416504
0.000521526
0.000361678
0.000411745
9.36559e-06
1.96424e-05
4.71096e-05
4.99577e-05
0.000160111
0.000110589
5.5904e-05
5.10002e-05
1.87921e-05
1.67767e-05
1.54815e-05
1.02252e-06
0.000177876
0.000267829
0.00016752
0.000199142
0.000280308
0.000279249
0.000174676
0.000170504
0.000180765
0.000235876
0.000271008
0.000230853
0.000249265
0.000266984
0.000295768
0.000295328
0.000253928
0.000191023
0.000231853
0.000241952
0.000246022
0.000201957
0.000216035
0.000216737
0.000219518
0
0
0
0
0
0
0
0
0
0
0
0
0
0
0
0
2.95119e-09
0
0
0
0
0
0
0
1.79424e-06
6.48292e-05
9.6309e-06
0
2.67113e-05
8.99528e-05
6.41455e-05
5.84897e-05
0.000110041
8.39148e-05
9.85823e-05
8.65826e-05
0.000150011
0.000156621
0.000194914
0.000212276
0.00016515
0.000190567
0.000150742
0.000189145
0.000140511
0.000181261
0.000207609
0.000178382
0.000249824
0.000186356
0.000214869
0.000262122
0.000272464
0.000285569
0.000310454
0.000262763
0.000413456
0.000441943
0.000464595
0.000397744
0.000415808
0.000398298
0.000395072
0.000359507
0.000377435
0.00038186
0.000350995
0.000371539
0.000335121
0.000251908
0.000144077
0.000233401
8.4509e-05
0.000211054
8.49746e-05
0.000215514
0.000189836
0.000118011
0.000202357
0
0
1.39626e-07
4.12385e-11
0
0
0
0
0
0
0
3.40011e-09
6.312e-09
7.13873e-09
6.8968e-09
5.95654e-09
5.39466e-09
0
3.84235e-09
9.85138e-07
0
0
0
1.6044e-09
0
1.39416e-09
9.97511e-10
0
0
0
0
0
0
0
0
1.37681e-11
0
0
0
0
0
0
1.91796e-06
0
0
0
0
0
0
0
0
0
0
0
0
0
0
0
0
0
0
0
0
0
0
0
0
0
0
0
0
0
0
0
0
0
0
0
0
0
0
0
0
0
0
0
0
0
0
0
0
0
0
0
0
0
0
0
0
0
0
0
0
0
0
0
0
0
0
0
0
0
2.98015e-11
0
0
0
0
0.000159731
0.000235713
0.000184359
0.000295001
0.000304369
0.000118092
0.00016812
0.000278284
0.000175782
0.00010854
0.000313804
0.000200194
0.000758135
0.000452034
7.90535e-05
7.64474e-05
4.76522e-05
4.1951e-05
4.26357e-05
0.000130234
4.92089e-05
9.3812e-05
5.44687e-05
4.56721e-05
3.36135e-05
9.14515e-06
8.92424e-06
8.62466e-06
2.03435e-05
0
0
0
0
0
4.0908e-05
0
0
0
7.55119e-09
0
0
0
0
0
0
0
1.74443e-09
1.81607e-09
0
2.28439e-09
0
0
0
3.39564e-05
9.16572e-05
5.04486e-05
8.70333e-05
5.24462e-05
4.69561e-05
3.96387e-05
2.71765e-05
0.000156227
7.45485e-06
7.97031e-05
6.26921e-05
6.386e-05
4.65081e-05
1.01624e-05
4.54713e-05
0
8.61918e-10
0
0
0
0
0
2.93665e-11
0
0
2.02358e-09
0
0
0
1.74195e-10
0
0
0
0
0
0
0
0
0
0
0
0
0
0
0
0
0
0
0
0
0
6.11692e-10
0
2.14849e-09
0
0
0
0
0
0
0
0
0
0
0
0
0
0
0
0
0
0
2.39512e-05
0
0
0
0
0
0
0
0
0
0
0
0
0
0
0
0
0
0
0
0
0
0
0
0
0
0
0
0
0
0
0
0
1.15469e-08
1.11873e-08
0
0
0
0
0
0
0.000319026
0.000101589
0.000479693
0.000674562
0.000452608
0.000751285
0.000217445
0.000936827
0.000449569
0.000618744
0.000500532
4.38173e-05
0.000160339
0.000348833
0.000415849
0.000297868
0.000394232
0.000263338
0.000316741
0.000330031
0.000347474
0.00046674
0.000507401
0.00043903
0.000433309
0.000457383
0.000325605
0.00023326
0.000121916
0.00025045
0.000140247
7.12095e-05
7.97876e-05
0.000170871
0.000226084
0.000333171
0.000356516
0.000239956
0.000333978
0.000350357
0.000409589
0.000368991
0.000408286
0.000345541
0.000333777
0.000313998
0.000355149
0.000372027
0.00026632
0.000404787
6.8841e-05
0.000401817
0.000432151
0.000406437
0.000349471
0.000222716
0.000438496
3.11036e-05
9.8843e-05
6.70587e-05
0.000106446
6.38328e-05
2.5209e-05
0.000120024
6.69767e-05
6.0173e-06
5.31156e-05
4.45754e-05
1.9362e-06
0
0
0
0.000134448
0.000152555
8.59138e-05
0.000151912
0.000201994
0.000116423
9.78436e-05
0.000128178
0.000175642
0.000153399
0.000198254
0.000241903
0.000289508
0.000227095
0.00027139
0.000216902
0.000268757
0.000214335
0.000187481
0.000158898
0.000218053
0.000230505
0.000160165
0.000241465
0.000323045
0.000227554
0
0
0
0
0
1.79476e-09
3.57741e-09
0
0
0
0
3.75225e-09
1.29644e-09
0
0
0
0
0
0
0
0
0
0
0
0
1.91261e-05
2.18126e-05
0
7.65779e-05
7.96217e-05
2.45128e-05
0.000157865
0.000153845
8.88921e-05
0.000257966
0.000193147
0.000263138
0.000260192
0.000256202
0.000268839
0.000267795
0.000263608
0.000249671
0.000223773
0.000223871
0.00027646
0.000289917
0.000283382
0.000316203
0.000284124
0.00035353
0.000287373
0.000361414
0.000347393
0.000488926
0.000389946
0.000495411
0.000434654
0.000459363
0.000430788
0.000464238
0.000429135
0.000450037
0.000427955
0.0003991
0.000405322
0.000303406
0.000260907
8.91931e-05
0.000197939
3.81085e-05
0.000182877
8.5187e-05
0.000171367
0.000191858
5.77265e-05
9.95441e-05
8.24906e-06
0
0
0
0
0
0
0
0
0
2.38168e-09
0
0
0
6.16419e-09
7.65994e-09
8.82606e-09
9.05633e-09
7.44582e-09
2.08219e-08
0
0
0
0
0
0
0
0
0
0
0
0
0
0
0
0
2.77269e-11
0
0
0
5.72684e-07
0
0
0
0
0
0
0
0
0
0
0
0
0
0
0
0
0
0
3.48444e-07
0
0
0
0
0
7.87197e-10
6.18477e-10
1.42796e-09
0
0
0
0
0
0
0
0
0
0
0
0
0
0
0
0
0
0
0
0
0
0
0
0
0
0
0
0
0
0
0
0
0
0
0
0
0
0
0
0
0
2.69241e-09
0
7.24566e-10
0
3.33414e-09
0
0
0
0.000191189
0.000164983
0.000302051
3.49785e-05
0.000163914
0.000518773
0.000163233
0.000271127
0.000523984
0.000456337
0.000166887
0.000173098
0.000636607
6.58216e-05
0.000386491
0.000424508
0.000124037
0.000121248
5.40488e-05
7.71546e-05
2.29212e-05
5.71665e-05
9.57102e-05
3.89284e-05
6.87245e-05
4.09252e-05
4.22709e-05
1.84181e-05
9.37188e-06
1.20492e-05
2.65313e-05
2.48849e-05
1.80231e-05
0
0
2.16454e-06
4.27131e-05
0
0
0
0
0
0
0
0
0
0
0
0
0
0
0
0
0
0
0
0
6.8627e-05
5.53929e-05
4.16819e-05
3.03961e-05
4.16503e-05
8.6982e-05
7.43858e-05
0.000129968
1.81903e-05
3.26841e-05
3.95816e-05
6.92949e-05
4.71137e-05
0
0
0
0
0
0
4.86797e-09
2.91307e-09
0
0
0
0
0
0
0
0
0
6.52159e-08
0
0
0
0
0
0
0
1.26093e-09
0
0
4.57817e-09
0
0
0
0
0
0
0
0
0
0
0
0
0
0
0
0
0
0
0
0
0
0
2.17351e-09
0
0
0
0
0
0
0
0
0
0
0
0
0
0
1.33358e-09
5.56903e-10
0
0
0
1.25675e-09
0
0
0
0
0
0
0
0
0
0
0
0
0
0
0
0
0
0
0
0
0
0
0
0
0
1.33557e-09
0
0
0
0
0
0
0
0
0.000501495
0.000834946
0.00129131
0.000639356
0.000825528
0.000290624
0.000515958
0.000181315
0.000327333
0.000138527
0.000266383
0.000146264
7.57213e-05
8.48316e-05
0.000365196
0.000308535
0.000370158
0.00029125
0.000299374
0.000258229
0.000430111
0.000259545
0.000381313
0.000379135
0.000329906
0.000433016
0.000343079
0.00029324
0.000225604
0.000250306
0.000168537
0.000108773
0.000165234
6.03272e-05
0.000218856
0.000175887
0.000324453
0.000293294
0.000271482
0.000258396
0.000288013
0.000307603
0.000266518
0.000236824
0.000202643
0.00024263
0.000231328
2.2725e-05
0.000298028
0.000203941
0.000443576
0.000368939
0.000332684
9.54078e-05
0.000192665
0.000209403
0.000181719
0.000180589
2.96024e-05
3.03461e-05
0.000153754
8.27912e-05
2.90796e-05
0.000123075
0.000130778
9.27978e-05
1.66559e-05
3.04564e-05
7.18918e-05
6.70973e-06
0
4.91612e-05
0.000129689
0.000148827
0.000138678
0.000100115
0.000245626
0.000175498
0.000107162
0.000220524
0.000174151
0.000185292
0.00026334
0.000255721
0.000271571
0.000232092
0.000247184
0.000224048
0.000241599
0.000183779
0.000234506
0.000226324
0.000159357
0.000222999
0.000235764
0.000264937
0.000226786
0
0
0
0
0
0
0
0
0
4.12691e-09
0
0
0
0
0
2.82236e-11
3.52105e-11
0
0
0
0
0
0
0
0
2.01033e-05
2.78989e-05
1.41147e-05
7.59659e-05
9.98024e-05
0.000157022
6.92351e-05
0.000181684
0.000193393
0.000152242
0.000185841
0.000182785
0.000205743
0.00033694
0.000232697
0.000297073
0.000329387
0.000241455
0.000288473
0.000300681
0.000345814
0.000377541
0.000347437
0.000394774
0.000401383
0.0003926
0.000472773
0.000414707
0.000484766
0.000481318
0.000529931
0.000471575
0.000491677
0.000527166
0.000521421
0.000492925
0.000541917
0.000481634
0.000448116
0.000325792
0.000333811
9.6235e-05
0.000169541
0.000166196
2.64284e-05
0.000169825
8.83567e-05
0.00014017
0.000174745
0.000152327
8.93314e-05
7.07128e-05
9.01344e-05
0
0
0
0
0
0
0
0
0
9.28508e-11
0
0
0
0
0
0
0
3.90977e-08
0
0
3.20622e-08
0
0
0
5.40602e-10
0
0
0
0
0
6.42475e-10
0
0
0
0
0
0
0
0
0
0
0
0
0
0
0
1.28842e-09
1.89925e-09
1.48948e-09
0
0
0
0
1.014e-09
0
0
1.20072e-09
0
0
0
0
2.59647e-09
0
2.42033e-09
0
0
0
0
0
0
0
0
0
0
0
0
0
0
0
0
0
0
0
0
0
0
0
0
0
0
0
0
0
0
0
0
0
0
0
0
0
0
0
0
0
0
0
0
0
0
0
0
0
0
0
0
0
8.05316e-10
0
0
0
3.09243e-09
0
0
0.000195129
0.000191851
0.000110495
0.000161668
6.63697e-05
0.000128232
6.33674e-05
0.000117244
0.000175238
0.000128164
0.000116151
0.000349246
0.000804434
0.000260834
6.78965e-05
0.000238804
0.000428278
0.00020022
1.94201e-05
0.000262581
9.0168e-05
9.90211e-05
6.96306e-05
5.79832e-05
3.20407e-05
4.8372e-05
4.1268e-05
5.57921e-05
5.54531e-05
6.1368e-05
2.38899e-05
8.34746e-05
3.20292e-05
4.11639e-05
4.54175e-06
2.60427e-05
7.40859e-06
0
0
3.2085e-05
8.60253e-05
0
0
3.59075e-09
0
0
0
0
0
0
0
1.99252e-09
0
0
0
0
8.18257e-10
0
0
0
0
4.54593e-05
3.06568e-05
3.84023e-05
3.33234e-05
4.19037e-05
8.1183e-05
0.00012194
7.99708e-05
8.17632e-05
8.23478e-05
7.37237e-05
1.48164e-10
0
0
1.13284e-10
0
0
2.17172e-09
7.29137e-10
0
0
0
0
0
0
0
0
1.40382e-08
4.85508e-08
0
0
1.03215e-07
0
2.07304e-09
0
0
0
0
5.71853e-08
0
1.72987e-09
8.51762e-08
0
0
0
0
0
0
0
0
0
0
0
0
0
0
0
0
0
0
5.28106e-09
0
0
0
0
0
0
0
0
0
0
0
0
0
0
0
0
0
0
0
0
0
0
0
0
0
0
1.31414e-09
1.27049e-09
0
0
0
0
0
0
0
0
9.7063e-10
0
0
0
0
0
0
6.61392e-10
0
0
0
0
0
0
0
0
0
0
0
0
0
0
0
0
0
0
0
0
0
0
0
0
0.000481757
0.000548997
0.000257319
7.80988e-05
0.000149199
0.000177736
7.41844e-05
0.000120469
6.96791e-05
0.000157683
0.000111967
5.71435e-05
0.000183835
6.9005e-05
9.94295e-05
0.00024014
0.000325352
0.000284553
0.000306537
0.000290519
0.000318311
0.000338374
0.000275653
0.000309446
0.000153396
0.000152147
0.000237596
0.0003186
0.000274531
0.000276994
0.000297551
0.00011999
0.000157404
0.000234518
0.000159153
0.000315813
0.000141135
0.000142296
0.000199943
0.000240067
0.000280747
9.01776e-05
0.000105603
4.13462e-05
0.000126044
7.08721e-05
0.0001543
5.84943e-05
0.000303231
0.000270539
0.000369213
0.000382314
0.000528673
0.00012524
0.000323786
2.78071e-05
0.000193132
0.000158693
5.07296e-05
4.02773e-05
0.000189669
0.000158058
7.10127e-05
0.000198497
0.000122093
0.000186275
7.80034e-05
1.52125e-05
0.000149171
2.21088e-05
0.000102571
9.15403e-05
0.000123044
9.55344e-05
0.000147828
0.000103683
0.000222646
0.000180765
0.000260942
0.000270388
0.000286105
0.000320181
0.00028148
0.000309707
0.000281641
0.000263573
0.000207726
0.000254565
0.000247397
0.000302378
0.000225103
0.000154501
0.000291128
0.00031845
0.000259183
0.000155728
1.83176e-09
1.22559e-09
3.36656e-09
0
0
0
0
0
0
0
0
0
0
0
0
0
0
0
0
0
0
0
0
0
2.24687e-05
2.46464e-05
6.42103e-05
5.60379e-05
0.000155067
4.61676e-05