/*--------------------------------*- C++ -*----------------------------------*\
  =========                 |
  \\      /  F ield         | OpenFOAM: The Open Source CFD Toolbox
   \\    /   O peration     | Website:  https://openfoam.org
    \\  /    A nd           | Version:  8
     \\/     M anipulation  |
\*---------------------------------------------------------------------------*/
FoamFile
{
    version     2.0;
    format      ascii;
    class       volScalarField;
    location    "14040";
    object      alpha;
}
// * * * * * * * * * * * * * * * * * * * * * * * * * * * * * * * * * * * * * //

dimensions      [0 0 -1 0 0 0 0];

internalField   nonuniform List<scalar> 
526318
(
0.00030085
0.000279478
0.000348495
8.20617e-05
0.000312415
0.000373371
0.000413774
0.000348813
0.000262139
0.000440495
0.000141347
0.000433612
0.000503985
0.000236515
0.000393781
0.000213292
0.000119885
0.000442109
0.000335584
0.000319823
0.000273558
0.000295339
0.000314697
0.000208648
0.000417102
0.000354388
0.000236704
0.000410719
0.000240176
0.000272234
0.000219004
0.000255218
0.00029419
0.000298318
0.000455291
0.000243477
0.000493308
0.000109736
0.000355239
0.000529988
0.000317717
0.000557107
0.000618418
0.00112586
0.000513225
0.000412354
0.000479231
0.000857502
0.000198852
0.000721594
0.000262802
0.000464475
0.000293863
0.000315332
0.0114477
0.00108851
0.00099729
0.00624922
0.000321401
0.000287712
0.000219539
0.000245926
0.000140303
0.000221584
0.000364131
0.00021858
0.000380653
0.000309599
0.000408034
0.000570132
0.000204442
0.000105529
0.000473858
0.000653804
0.000641656
0.000483297
0.000664784
0.000423661
0.000606198
0.00053092
0.00057006
0.000367809
0.000409369
0.000471745
0.000166049
0.000453873
0.000420848
0.000191294
0.00099054
0.000900013
0.000764059
0.00106462
0.00178784
0.00238794
0.00201555
0.00206933
0.00205138
0.00135129
0.00192881
0.00159059
0
0
0
0
0
0
0.00133416
0.00521896
0.000433335
0.000697323
0.000462242
0.000222604
0.000285981
0.000317968
9.87246e-05
0.000408697
0.000172911
0.000277893
0.000244076
0.00173862
0.00153931
0.00125229
0.00165234
0.00203118
0.001378
0.0023392
0.00204092
0.00352914
0.00191279
0.00287192
0.00367065
0.00417228
0.00308599
0.00447746
0.00293551
0.00421595
0.00380886
0.00352798
0.00405382
0.00535331
0.00494801
0.00518506
0.00449243
0.00505762
0.00550581
0.00635966
0.00604412
0.00705391
0.00572338
0.00645685
0.00663805
0.00586599
0.00455567
0.00520513
0.00625718
0.00663813
0.004997
0.00499126
0.0069439
0.0111207
0.00218794
0.0116754
0.00366487
0.000457731
0.000216306
0.000407134
0.000216452
0.000404468
0.00038248
0.000461719
0.000525668
0.000356085
0.000610581
0.000714905
0.000330609
0.000795726
0.00124035
0.00127206
0.000592142
0.00230166
0.0022238
0.00250077
0.000811114
0.00237855
0.00197802
0.0037142
0.00348567
0.00342211
0.0040578
0.00371951
0.00427351
0.00413447
0.00444727
0.00430829
0.00374633
0.00453604
0.00420151
0.00355642
0.00390032
0.00436706
0.00339142
0.00714027
0.00252442
0.00187424
0.00296727
0.00443901
0.00417968
0.00192123
0.00433377
0.00452445
0.000813647
0.000453315
0.000451193
0.000739435
0.000173491
0.000743153
0.0002882
0.000297507
0.000380856
0.00179421
0.00108122
0.00325317
0.000459688
0.000304967
0.0013548
0.000458573
0.000357901
0.000173785
0.000670219
0
0
0
0.00380815
0
0
0
0
0
0
0.000237201
0.000240505
0.000268444
0.000197936
0.000282506
0.000195102
0.000345969
0.000426116
0.000661541
0.00068489
0.000384644
0.000654639
0.000653589
0.000771738
0.000524182
0.000749145
0.00110877
0.000934334
0.00145228
0.00130772
0.00168219
0.00145037
0
0
0
0
0
0
0
0.00609365
0.000440452
0.00260617
0.000953361
0.000724793
0.000468955
0.000451967
0.000164879
0.000305196
0.000314112
2.70181e-05
0.000113528
0.000147262
0.00161492
0.00154076
0.00155511
0.00221468
0.00437252
0.00238778
0.00472281
0.00403731
0.00415618
0.00389158
0.00529316
0.00456904
0.00504935
0.00833739
0.00464347
0.00273708
0.00124955
0.00252084
6.94394e-05
0.00390659
0.00226854
0.00581948
0.0080578
0.00407494
0.00590449
0.00291023
0.00604831
0.00634459
0.00518603
0.0070437
0.00823961
0.0157711
0.0186659
0.00308831
0.0167412
0.000332214
0.000971804
0.00384274
0.000941181
0.000274906
0.000487606
0.000904513
0.000499165
0.000591198
0.000377373
0.000830408
0.000442565
0.000769858
0.000430404
0.000821403
0.00154338
0.00421303
0.00272424
0.00137431
0.00236758
0.00655575
0.00297905
0.00793975
0.000808913
0.00387881
0.00366001
0.00370598
0.00468752
0.00404489
0.00438487
0.00477509
0.00453128
0.00440788
0.00469769
0.00449328
0.00401581
0.00312179
0.00341845
0.00293323
0.0036622
0.00241435
0.00281195
0.00604572
0.00427632
0.00319108
0.00296353
0.00315094
0.00293035
0.00325857
0.00291901
0.00188887
0.0029763
0.00135278
0.000945645
0.000661762
0.000952228
0.00214475
0.000297986
0.00102988
0.000285546
0.00195885
0.000732378
0.000279938
0.000951352
0.00110547
0.000227529
0.000107732
0.000518724
0.000219557
0.000849515
0.00046546
0.000331603
0.00305199
0.00740355
0.00690362
0.00396676
0.00195415
0.00104972
0.00016652
0.000747743
0.000478379
0.000603494
0.00062753
0
0
0
0
0.0323743
0
0
0
0
0
0
0
0
0
0
0
0.000262695
0.000116648
0.000232921
0.000188691
0.000307799
0.000248087
0.000387485
0.000562619
0.000689275
0.000347526
0.000646475
0.000577183
0.000646661
0.000747669
0.0007293
0.000643586
0.000698101
0.000554238
0.000930393
0.00109969
0.00128992
0.00161101
0
0.000752325
0.000941874
0
0
0
0
0.000416282
0.000432879
0.00223775
0
0
0
0
0
0
0
0
0
0
0
0
0
0
0.0101578
0
0.00106685
0.000668143
0.000308754
0.000502218
0.000270548
0.000309001
0.000167625
0.000168264
0.000147083
0.000117306
0.000151408
0.0001262
0.00145071
0.00197708
0.00237566
0.001165
0.0020859
0.00517436
0.00324565
0.00443814
0.00324111
0.0045675
0.00686582
0.00882812
0.01992
0.0107377
0.00662376
0.0113389
0.0116312
0.00169726
0.000956965
0.00429744
0.0284389
0.0291562
0.0221601
0.00896627
0.00654863
0.00973903
0.00872332
0.00725798
0.0116874
0.0326703
0.0559608
0.00086481
0.000304762
0.000838647
0.000314732
0.0007087
0.000434558
0.000682126
0.000234683
0.00126026
0.000764962
0.000910643
0.000387753
0.00232038
0.00512984
0.000564655
0.000959451
0.00100016
0.000349944
0.000421423
0.000733318
0.000854992
0.00101211
0.000897039
0.000403584
0.00124182
0.000735053
0.00234436
0.0042158
0.00296232
0.00678181
0.0135967
0.00509403
0.0206245
0.0518463
0.0407866
0.00385237
0.000985971
0.0032403
0.00405301
0.00272453
0.00445044
0.00447428
0.00421942
0.00415278
0.00422559
0.00425134
0.00347336
0.00415656
0.00318229
0.00222077
0.00235928
0.00160553
0.00288666
0.00302052
0.0030025
0.00293667
0.00307946
0.00303053
0.00074615
0.00277603
0.00266587
0.00291245
0.0017838
0.00247105
0.00110437
0.000784984
0.00110911
0.00124187
0.00162992
0.000814495
0.000434963
0.000766037
0.000887474
0.000879043
0.000712088
0.000599937
0.000287309
0.000617697
0.000721534
0.000358227
0.00155238
0.000127528
0.00118407
0.00159365
0.000415449
0.00116277
0.0246825
0.0175712
0.00347153
0.00273728
0.00116209
0.000571583
0.00116352
0.00217264
0.00302999
0.00285058
0
0
0
0
0
0.0275751
0
0
0
0
0
0
0
0
0
0
0
0
0
0
0
0
0
0
0
0
0.00719529
0
0.000956032
0
0.0027809
0.00774628
0
0
0
0
0
0
0
0
0
0
0
0
0
0
0.00028057
0.00015258
0.000176952
0.000306795
9.98642e-05
0.000381842
0.000420798
2.04082e-05
0.000435704
0.000713414
0.000538353
0.000729464
0.000503896
0.000635219
0.000507029
0.000537075
0.000607788
0.000691069
0.000771583
0.000841034
0.00149397
0.00109661
0
0
0
0
0
0
0
0
0
0
0
0
0
0
0
0
0
0
0
0
0
0
0
0
0
0
0
0
0
0
0
0
0.0333687
0.0862721
0.00190173
0.00182726
0.00102541
0.000520194
0.00039624
0.000436897
0.000103924
0.000117426
3.6132e-05
0.000300732
0.000137761
0.00014374
0.000284503
0.000246355
0.00305122
0
0
0
0
0
0
0
0
0
0
0
0
0
0
0
0
0.000481819
0.0015711
0.000196952
0.00247969
0.0047089
0.000598523
0.0028122
0.00532938
0.0071274
0.00870279
0.0184324
0.0195382
0.0323821
0.0202479
0.0350583
0.011671
0.0214099
0.00383287
0.0115155
0.00526376
0.00949728
0
0
0.0018228
0.0224005
0.0145993
0.0885182
0.0710972
0
0
0
0
0.000603016
0.000245182
0.000779158
0.000788328
0.000745705
0.000567666
0.000357031
0.00075428
0.000683194
0.000755153
0.0012538
0.00111413
0.000704911
0.000261667
0.00130578
0.00548445
0.0020936
0.00214438
0.0244945
0.00169069
0.000839179
0.0128572
0.000994308
0.000757199
0.00122563
0.00163859
0.00117252
0.000474497
0.00079083
0.000965891
0.00166433
0.00419471
0.00608285
0.00800711
0.0293161
0.0140743
0.0519138
0.0873454
0.0709008
0.0113106
0.0843678
0.0087122
0.00549518
0.00646085
0.00305665
0.00355023
0.00381393
0.00290372
0.00393867
0.00430642
0.0028028
0.00338113
0.00206189
0.00249068
0.00319068
0.0030139
0.00287906
0.0019352
0.00205823
0.00244569
0.00235516
0.00129139
0.00162027
0.00147572
0.00215306
0.00196202
0.00126863
0.00213744
0.00182724
0.00163053
0.0020132
0.00158398
0.00167081
0.00209678
0.000886219
0.00159702
0.000512147
0.000981564
0.000231878
0.00117439
0.00086573
0.000596479
0.000554726
0.0004298
0.000689249
0.000478012
0.000636761
0.000739349
0.000366307
0.00068794
0.000396227
0.000379273
0.000526333
0.000428467
0.000382731
0.00048428
0.000502915
0.000532556
0.000409389
0.000385493
0.000449773
0.000489916
0.00034249
0.000418868
0.000325555
0.00049087
0.000353727
0.00044487
0.000380477
0.000457631
0.000301797
0.000414607
0.000421662
0.000413753
0.000477312
0.000315475
0.000403004
0.000423087
0.000436756
0.000384076
0.000345274
0.000758693
0.0023045
0.00103268
0.000792682
0.000805482
0.00126435
0.000193316
0.0147198
0.00152684
0
1.8498
0.00575044
0.00492666
0
0.0619182
0.0399253
0.00400708
0.00463899
0.00412463
0.0435003
0.134189
0.0103308
0.0164917
0
0
0
0
0
0
0
0
0
0
0
0.00608712
0
0
0
0
0
0
0
0
0.0119132
0
0
0
0
0
0
0
0
0
0
0
0
0
0
0
0
0.00846388
0
0
0
0
0
0
0.0120239
0
0.0139427
0
0
0
0
0
0
0
0
0
0
0
0
0
0
0
0
0
0
0
0
0
0
0
0
0
8.98949e-05
0.000354477
0.000210234
0.000305558
0.000184841
9.52388e-06
0.000390713
0.000245227
0.000402764
0.000495674
0.000299128
0.000550932
0.000686698
0.000553017
0.00048829
0.000561823
0.000790016
0.000462204
0.000501382
0.000505799
0.000527162
0.000541574
0
0
0.00653981
0.0175696
0
0
0
0
0.0104095
0
0
0
0
0
0
0
0
0
0
0
0
0
0.00873323
0.00736225
0
0
0
0.0463266
0.00446282
0.0355156
0.000745851
0.000975303
0.000112521
0.000812803
0.000145072
0.000271763
7.5472e-05
0.000397084
0.000146727
0.000336618
0.000329898
0.000346488
0.000299453
0.000343372
0.00906204
0
0
0
0
0.000103661
0
0
3.72049e-05
0
0
0
0
0
0
0
0
0
0
0
0
0
0
0
0.528278
4.93275
0.00148813
0.000389879
0.0038338
0.000188062
0.00817046
0.0066777
0.00683644
0.0174624
0.0150308
0.0268519
0.0510748
0.0479536
1.19025
0
0
0.20729
0.0228836
0.0513645
0.0178649
0.0230241
0
0
0
0
0
0
0
0
0
0
0.0013028
0
0.00068358
0.000607639
0.000299071
0.000226882
0.000293231
0.000539785
0.000710708
0.000597985
0.000545013
0.000483424
0.000571243
0.000606922
0.00047321
0.000447011
0.00046475
0.000417661
0.000398522
0.00046876
0.000426561
0.000485257
0.000442939
0.00043505
0.000413923
0.000462953
0.000308815
0.000412012
0.000383061
0.000321151
0.000462323
0.000453466
0.000557002
0.00182121
0.00114391
6.47317e-05
0.00236899
0.0100643
0.00126474
0.00104183
0.0176495
0.00893364
0
0.00303867
0.0574679
0.00100812
0.00135145
0.000862937
0.00163892
0.00113285
0.00131775
0.00645998
0.0434523
0
0
0.0439735
0
0
0
0
0.0364488
0.042187
0
0.0101956
0.0071725
0.00520454
0.00335729
0.000274749
0.00362741
0.00359264
0.00240046
0.00156465
0.00288088
0.0040614
0.00309771
0.00381213
0.00119451
0.00123192
0.00192576
0.00152116
0.00179538
0.001458
0.00163326
0.00148003
0.0013064
0.0018445
0.00174954
0.00182062
0.00131057
0.00174622
0.00118294
0.00156537
0.000990083
0.00165203
0.00121638
0.000938746
0.00067103
0.000837714
0.000826326
0.000441482
0.000582348
0.000945667
0.000617086
0.000675423
0.000515409
0.000521027
0.000633012
0.000593707
0.000446835
0.000470987
0.000393637
0.000454449
0.000353088
0.000395661
0.000351177
0.000390436
0.000268478
0.000364196
0.000200172
0.000352687
0.000324698
0.000222859
0.000229699
0.000305499
0.000289346
0.000247747
0.000267797
0.000287437
0.00027185
0.000249928
0.000208603
0.00020509
0.000291012
0.000239639
0.000255867
0.0081679
0.00320195
0.0107876
0.00285211
0.0132906
0.00328827
0.0015636
0.00702691
0.00472744
0.00779707
0
0
0
0.0115748
0.0210625
0
0
0
0
0.394019
0.291903
0.0558578
0.201046
0.0377035
0.0134175
0
0
0
0
0.00796533
0.0288053
0
0
0
0.00723722
0
0
0
0
0
0
0
0.0180122
0
0
0
0
0
0
0
0
0.000102258
0
0
0
0
0
0
0
0
0
0
0
0
0
0
0
0
0
0
0
0
0
0
0
0
0
0
0
0
0
0
0
0
0
0.000358931
0.000156706
3.46238e-05
0.000333784
0.000188796
0.000237278
0.000176807
0.000350503
0.000319388
0.000598737
0.000411657
0.000300536
0.000401944
0.000561496
0.00047588
0.000882738
0.000316182
0.0001656
0.000428399
0.000447664
0.000180667
0.000219362
0.002367
0
0.00582313
0
0
0
0
0
0
0
0
0
0
0
0
0
0
0
0
0
0
0
0
0
0
0
0
0.0283147
0.00203373
0.00420884
0.000534786
0.000712537
0.000609045
0.000509245
0.000134869
0.000772485
0.000556373
0.000176389
0.000435028
0.000236819
9.05781e-05
0.000323725
0.000309627
0.000448661
0
0
0
0
0
0
0
0
0
0
0
0
0
0
0
0
0
0
0
0
0
0
0.488114
0
0
0
0
0
0
0
0
0.00506408
0.00119986
0.00581474
0.00938548
0.00624539
0.0164577
0.0378491
0.0607278
0.000204561
0.00237731
0.00419651
0
0
0
0
0.0339842
0.00587994
0
0.355358
0.0180992
0.198305
0.0278572
0.0214852
0
0
0
0
0
0
0
0
0
0
0
0
2.46276e-05
7.4851e-05
0.000123929
0.000104294
0.000172407
6.89138e-05
0.000273292
0.000167154
0.000207225
0.000170903
0.000268766
0.000115436
0.000294256
0.000256322
0.000174515
0.000275915
0.000246805
0.000180185
0.000102189
0.000214428
0.000224731
0.000185343
8.42871e-05
0.000171909
0.000177521
0.000152231
0.000111347
0.000148693
0.000148392
0.000350912
0.000358369
0.000330537
0.000334073
0.000319517
0.000271521
0.000730613
0.000425392
0.00011998
0.000654596
0.000937301
0.000509727
0.00101271
0.00068258
0.000475329
0.000473421
0.000448004
0.000459501
0.000457769
0.000418138
0.000409848
0.000374329
0.000419164
0.00040905
0.000396856
0.000486406
0.000400181
0.000461889
0.000444957
0.000460503
0.00046321
0.00047475
0.000493866
0.000511194
0.000632865
0.00150595
0.00368146
0.00314057
0.00220889
0.000581596
0.000958757
0.00537047
0.00304525
0.0109636
0.0381202
0.000237082
0.000148073
0.000160343
9.42356e-05
0.000122275
0.000109699
5.69207e-05
8.29337e-05
4.33912e-05
8.28384e-05
0.000141749
0.00017382
0.000151126
0.000187276
0.000122611
0.000172226
0.000140443
9.72898e-05
0.0565291
0
0.0248375
2.59512e-05
0.00369907
0.000683253
0.00194819
0.00480367
0.056521
0
0.0362996
0.058197
0
0
0
0
0
0
0.0247024
0.975904
0
0.00815368
0.00848359
0.0082677
0.00552988
0.00870144
0.00326586
0.00348683
0.00562796
0.00366985
0.00378706
0.00146872
0.0007664
0.000844667
0.00121551
0.00152769
0.00150824
0.00131645
0.00109967
0.00186139
0.00166492
0.00190629
0.00195511
0.000977782
0.000938509
0.00115642
0.00129235
0.000884431
0.000607285
0.00106315
0.000574371
0.000448972
0.000596268
0.000650488
0.000555201
0.000403557
0.000893617
0.000845081
0.000824409
0.000728398
0.000736879
0.00051032
0.000498227
0.000612301
0.00051
0.000450599
0.000401363
0.000429852
0.000370818
0.000375026
0.000346744
0.000356905
0.000291556
0.000328604
0.000273044
0.000194222
0.000271974
0.000157352
0.000173869
0.00027997
0.00027329
0.000198926
0.000256914
0.000189152
0.000168876
0.0148877
0.0140098
0.0124171
0
0
0.025642
0
0.0197389
0
0
0
0
0
0
0.0137337
0
0
0
0
0.641434
0
0
0
0
0
0
0
0
0.00273487
0.00315775
0.158548
0
0.000748825
0
0
0
0
0
0
0
0
0
0.0103518
0
0
0
0
0
0
0
0
0.197095
0
0
0
0
0
0
0
0
0
0
0
0
0.00121919
0
0
0
0
0.00446154
0
0
0
0
0
0
0
0
0
0
0
0
0
0
0
0
0
0
0
0.00238342
0
0
0
0
0.00268193
0.000142406
0.000303191
0.000294371
0.00018538
6.82165e-05
3.59904e-05
7.17265e-05
0.000224022
6.02142e-05
0.000138506
8.10826e-05
0.000234341
8.91112e-05
0.000129621
0.000210621
0.000538991
0.000505
0.000184264
0.000289814
0.000626576
0.000896718
0.000655879
0.000286534
0.00072538
0.000141597
0
0
0
0
0
0
0
0
0
0
0
0
0
0
0.0824081
0.0102884
0
0
0
0
0
0
0
0
0
0
0
0.00213976
0.000614258
0.00057313
0.000103451
0.000172134
2.26444e-05
0.00032474
0.000715176
9.92074e-05
0.000431019
0.000177393
0.000181378
0.000571673
0.00031652
0.000411413
0.000376603
0
0.00103071
0
0
0
0
0
0
0
0
0
0
0
0
0
0
0
0
0
0
0
0
0
0
0
0
0
0
0
0
0
0
0
0
0
0
0
0.000928123
0.00151687
0.00127095
0.0116664
0.00562803
0.0242863
0.00583064
0
1.07308
0
0
0.00173701
0.00167364
0
0
0
0
0
0
0
0
0.171812
0
0.136662
0.0322291
0
0
0
0
0
0
0
0
0
0
0
0
0.000152919
9.65815e-05
0.000164712
0.000132568
0.000277654
0.000130257
0.000368942
0.000167788
0.000253814
0.000295594
0.000247831
0.000262912
0.000240785
0.000267314
0.000165517
0.000214221
0.000453642
0.000449743
0.000389181
0.000342382
0.000281852
0.00032688
0.000932374
0.000568237
0.000643603
0.000279251
0.000994201
0.00122308
0.000888046
0.00096012
0.000465557
0.000446452
0.000462141
0.000430235
0.000537616
0.000388001
0.000500241
0.000551549
0.000452097
0.000457399
0.000451213
0.000451823
0.00057711
0.000484099
0.000583073
0.000553328
0.00046937
0.000521033
0.00048295
0.000534768
0.000510157
0.000560955
0.00048971
0.000875668
0.00183137
0.0010994
0.000359409
0.0034191
0.00167377
0.000244741
0.000355387
0.00268118
0.0171854
0.0375405
0.00513248
0.000214709
0.00027894
0.000161331
0.000133573
0.000112734
7.73977e-05
8.21127e-05
5.87309e-05
3.48003e-05
6.95817e-05
0.000111876
0.000126821
0.000121052
9.23638e-05
0.000177466
0.00012525
4.42765e-05
8.3758e-05
7.33953e-05
0.000123612
9.89397e-05
5.74513e-05
6.35405e-05
0.000116414
0.000189276
0.0410685
0.0212631
0.0150966
0
0.0233421
0.0157124
0
0
0
0
0
0
0
0
0
0
0
0
0
0
0.0036946
0.156784
0.0124108
1.5463
0.00765497
0.00882595
0.0281731
0.00896313
0.00216169
0.00776229
0.00150886
0.00130996
0.00137047
0.00066705
0.000600461
0.00163177
0.00159972
0.0010072
0.00170157
0.000872295
0.00142962
0.000866702
0.00119395
0.0014766
0.000936067
0.00106267
0.000874092
0.000967559
0.00069105
0.000718226
0.000509703
0.000673148
0.000487982
0.000973798
0.000839569
0.000647573
0.000650533
0.000490299
0.000667809
0.000395702
0.000471175
0.000478122
0.000417225
0.000376641
0.000394782
0.00036714
0.000383853
0.000342983
0.000304238
0.000261529
0.000300638
0.000217134
0.000205023
0.000159483
0.000183332
0.000163703
0.000214606
0.000218081
0.000164838
0.000262785
0.000180247
0.000182475
0
0
0
0
0
0
0
0
0
0
0
0
0
0
0
0
0
0
0
0
0
0
0
0
0
0.000367758
0
0
0.00762717
0.00208277
0
0
0
0
0
0
0
0
0
0
0
0
0.275397
0
0
0
0
0
0
0
0
0.983156
0
0
0
0
0.00369609
0
0
0
0
0
0
0
0.000541074
0.00271084
0
0
0.00317989
0.000522684
0
0
0
0
0.00645567
0
0.00866441
0
0
0
0
0
0
0
0
0
0
0
0
0
0
0
0
0
0.00411572
0
0
0
0
0
0
0
0
0.000335829
0.000284199
0.000149456
0.000129882
9.32728e-05
0.00012894
0.000121401
6.9508e-05
8.76571e-05
1.04357e-05
0.00021743
0.000160171
0.000376576
0.000303478
0.000215715
0.000416615
0.000225865
0.000308199
0.000186038
0.000377721
0.00049609
0.000347965
0.000662355
0.000169284
0.00201351
0.00138073
0.000759226
0
0
0
0
0
0
0
0.0622593
0.00106197
0.0137022
0
0
0
0
0
0
0
0
0
8.33048e-05
0
0
0
0
0
0.000420807
0.000480375
0.000286388
0.000195152
0.000108091
0.000645387
0.000242287
0.000233639
0.000298243
0.000312005
0.000717588
0.000585621
0.000180215
0.000197288
0.000406732
0.000102428
0
0
0.000972351
0
0
0
0
0.000665299
0
0
0
0
0
0
0
0.010177
0
0.00440212
0.00765615
0
0
0
0
0
0
0
0
0
0
0
0.00467728
0
0
0
0
0
0
0
0
0
0
0
0
0
0.00378272
0.00376724
0.00379783
0.00198325
0.0231135
0.0175771
0.0629868
0.0416259
0
0
0.00181158
0
0
0.00212373
0
0
0
0
0
0
0
0.00312498
0
0
0
0
0.0324309
0
0
0.00280076
0
0.004426
0
0
0
0
0
0
0
0.00367431
6.07023e-05
0.000112689
0.000171256
0.00015175
0.000225952
0.000362335
0.00046801
0.000149391
0.000193632
9.3117e-05
0.000131693
3.29318e-05
0.000236529
0.000176787
0.000276949
0.000295386
0.000299352
0.000305551
0.000302738
0.000285658
0.000283844
0.000296379
0.000483082
0.000516567
0.000405072
0.000408291
0.000356988
0.000339241
0.00103387
0.00100851
0.000241516
0.000298006
0.00118916
0.000829603
0.000451499
0.000421214
0.000425587
0.000467611
0.000651046
0.000622204
0.000542941
0.000486503
0.000482206
0.000594161
0.000605806
0.000545319
0.000710255
0.000571522
0.000538813
0.000637729
0.000547657
0.000534095
0.000478213
0.000469248
0.0005377
0.000522904
0.000480792
0.000361024
0.00318314
0.000778327
0.000907547
0.000188995
0.00153699
0.00268281
0.000186735
0.000590843
0.00964927
0.000892831
0.00392087
0.00614195
0.000250929
0.000210962
0.000197633
0.000193785
0.000139841
8.66263e-05
0.000138343
0.000141868
0.000109808
5.25357e-05
0.000110646
0.000127315
0.000116921
0.000134883
8.19315e-05
9.84842e-05
5.99935e-05
0.000128644
5.57907e-05
8.23219e-05
5.95346e-05
7.2499e-05
0.000114228
0.000101905
0.000187305
0
0
0
0
0
0
0
0
0
0
0
0
0
0
0
0
0.0036844
0
0
0
0
0
0.0609576
0
0.00427109
0.00626006
0.0115494
0.026835
0.0018574
0.00291297
0.00199908
0.0010705
0.0017757
0.000859603
0.000889949
0.00109169
0.00112673
0.00105172
0.0013318
0.00148582
0.00080067
0.000961545
0.000708938
0.000672013
0.000955342
0.000717085
0.000545041
0.000812166
0.000769723
0.00109751
0.000779101
0.000634292
0.000682859
0.000739615
0.000430759
0.000699799
0.000484962
0.000531007
0.000541475
0.000462884
0.000428166
0.000388834
0.000375608
0.000373339
0.000344718
0.000292256
0.000250685
0.000202792
0.000131083
0.000178921
0.000148663
0.000125901
0.000139226
0.000125266
0.000172786
0.000160375
0.000190555
0.000234505
0.000187596
0
0
0.250484
0.000189588
0
0
0
0
0.0233079
0
0
0.00885515
0
0.00782728
0.00687815
0.0121785
0.0134718
0
0.00852092
0.456525
1.73733
0
0
0.00504721
0
0.00448179
0.000496456
0
0
0
0
0
0
0
0
0.0343141
0
0
0
0
0
0
0.474337
0
0
0
0
0
0
0
0
0
0
0
0
0
0
0
0
0
0
0
0
0
0
0
0
0
0
0
0
0
0
0
0
0
0
0
0
0
0
0
0
0
0
0
0
0
0
0
0
0
0
0
0
0
0
0
0
0
0
0
0
0
0
0
0
0
0
0
0
0
0.000108653
0
0
0
0
0.000109112
9.168e-05
0.000177432
0.000167077
0.00010095
0.000118368
0.00027683
2.03739e-05
0.00026978
0.00016565
0.000153442
6.01251e-05
0.000288894
0.000309476
0.000347555
0.000781508
0.000328891
0.000215406
8.45136e-05
7.39739e-05
0.000122474
0.000370154
3.99235e-05
0.000455537
0.00129312
0.00184395
0.0024843
0.00132475
0.00135368
0
0
0
0
0
0.00431173
0.0609222
0
0
0
0
0
0
0
0
0
0
0.0124024
0.00856749
0
0.00728012
0
0
0
0.000202414
0.000211454
0.000427868
0.000224049
0.000224329
0.000657205
0.000327399
0.000790187
0.000172976
0.000330423
0.000320703
0.000592355
0.000224847
0.000314412
9.2696e-05
7.76791e-05
0
0.00343436
0
0
0
0
0
0.000116577
0
0
0.000538583
0
0
0
0.000818408
0
0
0
0
0
0
0
0
0
0
0
0
0
0
0
0
0
0
0
0
0
0.0271277
0
0.0333137
0
0
0
0
0
0
0
0
0
0
0
0
0
0
0
0
0
0
0.00160497
0.00184963
0.00391822
0.272305
0.333838
0
0
0
0
0
0
0
0
0
0
0
0
0
0
0
0
0
0.0480047
0
0
0
0
0
0
0
0
0
0
0.0112667
0.0138191
0
0
0
0
0
0
0.000202702
0.000270925
0.000232514
0.000331612
0.000448718
0.000362391
5.65438e-05
0.00068476
0.000208146
0.000335468
0.000169157
0.000344318
0.000326753
0.000326986
0.000291478
0.000306414
0.000313336
0.000317353
0.000346067
0.000241563
0.000306523
0.000550351
0.000485482
0.000419221
0.000540267
0.000397115
0.000438736
0.000734655
0.000900244
0.000720485
0.000197034
0.000544929
0.000618849
0.000363621
0.000554526
0.000536338
0.000582653
0.000694407
0.000767814
0.00057144
0.000522533
0.000633629
0.000512383
0.000543656
0.000606239
0.000615729
0.000573226
0.000507766
0.000597336
0.000536488
0.00064683
0.000734407
0.000495811
0.000455005
0.000486692
0.000561361
0.000377117
0.00403657
0.00135655
0.000197285
0.00141291
0.00130863
0.000863945
0.00122881
0.00103586
0.00290539
0.00263628
0.00143875
0.00502665
0
0
0.0151934
0.000167459
0.000131962
0.000158339
0.00013063
0.000104274
5.88087e-05
5.802e-05
0.000100165
3.7809e-05
7.94609e-05
0.000117033
6.8602e-05
4.30001e-05
7.9949e-05
4.20487e-05
8.52749e-05
6.23953e-05
7.59368e-05
0.000103879
0.000116123
7.79088e-05
0.00018952
4.79869e-05
2.35649e-05
5.6264e-05
9.1053e-05
0
0
0
0
0
0.0053329
0.0114348
0
0
0
0
0.00382538
0.00558554
0
0
0
0
0
0
0
0
0
0.102778
0.033032
0.0578864
0.0108288
0.00215417
0.0292811
0.00100671
0.000653727
0.00145586
0.000284195
0.00152692
0.00158512
0.00101069
0.000698204
0.00103475
0.00129516
0.00086504
0.000950934
0.000729444
0.000855718
0.000419919
0.000544757
0.00109742
0.000817178
0.000910592
0.000951985
0.000843184
0.000730912
0.000641846
0.000836823
0.000745377
0.000816981
0.00060291
0.000696893
0.000678444
0.000631217
0.000555132
0.000455205
0.000385529
0.000367364
0.000323734
0.000282779
0.000172422
0.000199027
9.35784e-05
9.82623e-05
7.35106e-05
8.5495e-05
9.62737e-05
0.000131305
0.000140505
0.00014109
0.000134264
0.000214178
0.000224231
0.000223418
0
0
0
0
0
0
0
0
0
0.0220423
0
0
0
0.0134702
0.0119072
0.0207752
0.0185243
0.0218267
0.0263835
0
0
0.769021
0
0
0
0
0
0
0
0
0
0
0
0
0
0.0283631
0
0
0
0.177538
0
0
0
0
0
0
0
0
0
0
0
0
0
0
0
0
0
0
0.584135
0
0
0
0
0
0.00237141
0.00211967
0.00447081
0
0
0
0
0
0
0
0
0
0
0
0
0
0
0
0
0
0
0
0
0
0
0
0
0
0
0
0
0
0
0
0
0
0
0
0
0
0
0
0
0
0.00656885
0
0.00279208
0
0.0108404
0
0
0
9.3537e-05
7.94624e-05
7.31988e-05
0.000111044
7.89559e-06
5.49496e-05
7.49653e-05
0.000315984
0.000195784
5.23272e-05
0.000364628
0.000285622
5.99788e-05
0.000161492
0.000304769
0.000347997
0.000105863
0.000107813
0.000174284
0.000457703
6.84773e-05
0.000172956
0.000796301
0.000254516
0.00013565
0.000353658
0.000770029
0.000315455
0.000949041
0.00110086
0.00237893
0.00169287
0.0028146
0
0
0.0100037
0.00318204
0
0
0
0
0
0
0
0
0
0
0
0
0
0
0
0
0
0
0
0
0.000309723
0.000266881
0.0002095
0.000310663
0.000619271
0.00120259
0.0012098
0.000297672
0.000153552
0.000278846
0.000178451
0.000131304
8.80877e-05
0
0
0
0
0
0
0.0179102
0.00668705
0
0
0
0
0
0
0
0
0
0.0026999
0
0
0
0
0
0
0
0.00980045
0
0
0.0195925
0
0
0
0
0
0
0
0
0
0
0
0
0
0
0
0
0
0
0
0
0
0
0.00235524
0
0
0
0
0
0
0
0
0
0
0
0.00537215
0
0
0
0
0
0
0
0
0
0
0
0
0
0
0
0
0
0
0
0
0
0
0
0
0
0
0
0
0
0
0
0
0
0.00401523
0
0
0
0
0
0
0
0
0.000435077
0.000469399
0.000656033
0.00045633
0.000606287
0.000484102
0.000404386
3.16087e-05
0.000298415
2.36455e-05
9.02265e-05
0.000161586
0.000113027
0.000106856
0.000373953
0.000328555
0.000392001
0.000299996
0.000416362
0.000340404
0.000434537
0.000483049
0.000487202
0.000502004
0.000609854
0.00041981
0.000480483
0.000503436
0.000617787
0.000764668
0.000519967
0.000411302
0.0002988
0.000467889
0.000551815
0.000528517
0.000678625
0.000573175
0.000712952
0.000729928
0.000519135
0.000415546
0.000417327
0.000471568
0.0004451
0.000447441
0.000453107
0.000599929
0.000368103
0.000537407
0.000387269
0.000410968
0.000236881
0.000525396
0.000410221
0.000470972
0.000442679
0.00041564
0.00163101
0.00623159
0.000654981
0.00076724
0.00144343
0.00161766
0.00137561
0.00147793
0.00408554
0.00166963
0.00776417
0.00346097
0.0249846
0.002946
0.000135123
0.000107262
4.46272e-05
3.48621e-05
2.26387e-05
1.2478e-05
5.35574e-05
5.00114e-05
5.99875e-06
7.46843e-05
5.4762e-05
6.01097e-05
6.99233e-05
5.99259e-05
0.00010847
0.000127942
0.000100407
0.000139288
5.92002e-05
0.000107827
0.000126549
4.0951e-05
8.12174e-05
9.37776e-05
0.000117094
0
0
0
0
0
0
0
0
0
0.00418791
0
0
0
0
0
0.000106221
0.000126703
0
0
0
0
0
0.0279059
0.0245229
0
0.00387409
0.00401086
0.00189107
0.00199091
0.0019121
0.00246653
0.00238243
0.000673735
0.00136456
0.000998872
0.0011326
0.00127845
0.00136786
0.000853334
0.000881747
0.000921277
0.00108916
0.000683353
0.000739888
0.000707146
0.000981766
0.00106368
0.000822642
0.000851514
0.000812366
0.000779538
0.000685567
0.00104804
0.000850743
0.000631297
0.000663825
0.000488072
0.000627258
0.000341373
0.000434052
0.000259353
0.000308008
0.000167461
0.000132037
6.55593e-05
6.4235e-05
7.30832e-05
8.4092e-05
0.000121062
7.46702e-05
0.000159977
0.000120264
0.000188515
0.000174628
0.000175817
0.00020093
0.000154323
0.000107589
0
0
0
0
0
0
0
0
0
0.000235761
0
0
0
0
0
0
0
0.107167
0
0
0.151111
0
0
0
0.146073
0
0
0
0
0
0.00121689
0.0804267
0
0
0
0
0
0
0
0
0
0
0
0
0
0
0.00492652
0.00811132
0.00811312
0
0
0
0
0.00339782
0
0
0.00399185
0
0
0
0
0.00631573
0
0.00253479
0
0
0
0
0
0
0
0
0
0
0
0
0
0
0
0
0
0
0
0
0
0
0
0
0
0
0
0
0
0
0
0
0
0
0
0
0
0
0
0
0
0
0
0
0
0
0
0
0
0
0
0
0
0.00308343
0
0
0
0.012039
0
0
9.758e-05
5.78298e-05
8.02728e-05
0.000152505
6.09375e-05
6.5438e-05
4.88949e-05
3.28335e-05
0.00011284
0.000185402
2.85566e-05
7.41411e-05
0.000202881
0.000184357
0.000216959
0.000105483
0.000108954
0.000269496
3.97284e-05
0.000249604
0.000139494
7.31083e-05
9.5837e-05
0.000128948
0.00058413
0.000691007
0.000278038
0.000618993
8.87474e-05
0.000116883
0.000806851
0.000392871
0.000841024
0.000355289
0.00141795
0.0017996
0.00172844
0.0165188
0.0161598
0.00667146
0.00125817
0
0
0
0
0
0
0
0
0
0
0.00315792
0
0
0
0
0.000264905
0
0.00771738
0
0
0.000632543
8.17002e-05
0.000420864
0.000339764
0.00210197
0.000726351
0.000294002
0.000367625
0.000156777
0.0002814
0.000229097
0.000520976
0
0
0.000204653
0
0
0.00347891
0
0
0
0
0
0
0
0
0
0.000721956
0.00192961
0
0
0.000248341
0
0.00223709
0
0
0
0
0.0192564
0
0.00761856
0.0336539
0
0
0
0
0
0
0
0
0
0
0
0
0
0
0
0
0
0
0.0167032
0
0
0
0
0
0
0
0
0
0
0
0
0
0
0
0
0
0
0
0
0
0
0
0
0
0
0
0
0
0
0
0
0
0
0
0
0.00169204
0
0
0
0
0
0
0.00116176
0
0
0
0
0
0
0
0
0
0
0.0556722
1.88905
0
0
0
0
0
0
0
0
0
0
0
0
0.000124073
0.000505099
0.000323637
0.000193862
8.76976e-05
0.000160194
0.000202361
0.000199677
9.58669e-05
0.000185084
0.00014817
0.000119808
0.000116905
0.000159131
7.76866e-05
0.000474231
0.00040862
0.000346322
0.000412999
0.000330102
0.000407625
0.00037135
0.00043232
0.000424855
0.000499379
0.000465524
0.000505751
0.000472295
0.000507379
0.000726906
0.000659804
0.000420574
0.000554731
0.000733722
0.000774183
0.000801978
0.000736285
0.000476813
0.000542037
0.000481492
0.00072011
0.000327919
0.00033499
0.000226549
0.000286407
0.00039427
0.000294886
0.000452694
0.000180835
0.000496735
0.000749361
0.000410851
0.000805587
0.000374612
0.00058289
0.000528676
0.000302928
0.000431107
0.00192429
0.00211772
0.00123608
0.00165473
0.00165695
0.000679665
0.00190369
0.00187002
0.00317317
0.00311564
0.00489141
0.00256042
0.00208313
0.00448145
4.67633e-05
3.60109e-05
4.97891e-05
5.66089e-05
8.25017e-05
7.43773e-05
6.09119e-05
7.5542e-05
0.00012329
0.000116225
0.000119488
8.84918e-05
0.000108215
0.000102929