/*--------------------------------*- C++ -*----------------------------------*\
  =========                 |
  \\      /  F ield         | OpenFOAM: The Open Source CFD Toolbox
   \\    /   O peration     | Website:  https://openfoam.org
    \\  /    A nd           | Version:  8
     \\/     M anipulation  |
\*---------------------------------------------------------------------------*/
FoamFile
{
    version     2.0;
    format      ascii;
    class       volScalarField;
    location    "3240";
    object      alpha;
}
// * * * * * * * * * * * * * * * * * * * * * * * * * * * * * * * * * * * * * //

dimensions      [0 0 -1 0 0 0 0];

internalField   nonuniform List<scalar> 
526318
(
0.00041929
0.000504584
0.000278518
0.000273402
0.000362042
0.000752665
0.000435777
0.000690962
0.000203756
0.00011683
0.000537187
0.000236141
0.00043196
0.000523496
0.000488359
0.00030674
0.000385902
0.000164478
0.000212149
0.000279989
0.000642855
0.000888109
0.00106556
0.000281623
0.00101878
0.000600569
0.000443977
0.000192854
0.000207303
0.000261435
0.000145956
0.00019625
5.78938e-05
0.000646694
0.00038013
0.00115944
0.000350511
0.000421941
0.000840451
0.000668323
0.00052694
0.000750642
0.00115575
0.00166241
0.00148957
0.00145486
0.000987629
0.00126399
0.000512596
0.000535351
0.00093384
0.000725385
0.000271849
0.000394206
0.00591062
0.00162014
0.0010301
0.00439236
0.000126606
0.000441901
0.000537418
0.000364608
0.000613148
0.000299321
0.000290814
0.00050811
0.000345681
0.000271998
0.000201254
0.000219896
0.000220858
0.000485657
0.000495938
0.000558446
0.000464937
0.00055387
5.68781e-05
0.000165709
0.000748569
0.000274317
0.000400764
0.000460368
0.000482002
0.000600811
0.00032171
0.000387426
0.000127535
0.000618433
0.000282831
0.00030614
0.000271298
0.000176094
0.000791324
0.000902963
0.000671555
0.000755259
0.000257534
0.000109574
0.000290988
0.000202173
0
0
4.95419
0
0.04946
0
0.0021822
0.00459438
0.00148943
0.000847747
0.00143282
0.000774269
0.000548021
0.000594656
0.000594222
0.000462899
0.000448298
0.000208596
1.37071e-05
0.000464782
0.000250643
0.000178125
0.000662479
0.000469745
0.00034905
0.000430621
0.000619752
0.000455937
0.000238505
0.000360837
0.000850056
0.000824557
0.000389532
0.000533886
0.000808618
0.00073649
0.000952456
0.00090608
0.00122916
0.00161154
0.000921612
0.00107314
0.000569899
0.000859314
0.00143654
0.00196473
0.000548193
0.00147878
0.00100233
0.00117599
0.000606578
0.000651464
0.00147669
0.000989454
0.000945525
0.00208567
0.00151949
0.000422954
0.000398626
0.000684135
0.000463262
0.00259048
0.00194301
0.000243421
0.000359549
0.000134913
0.000159648
0.000412522
0.000302935
0.000915019
0.000710172
0.000715143
0.000185864
0.000530078
0.000516543
0.000559843
0.000475965
0.00105196
0.000340105
0.000311179
0.00046953
0.000742466
0.000235414
0.000274867
0.000775923
0.00132728
0.000563647
0.000498231
0.00133731
0.000893327
0.000703244
0.00109164
0.000241651
0.000213205
0.00112019
0.000413199
0.00111069
0.00112023
0.000719213
0.00169462
0.000655953
0.00130558
0.00144717
0.00139235
0.000916603
0.000173988
0.00291919
0.001544
0.000544367
0.00135718
0.000499869
0.00108251
0.000798316
0.00101586
0.00126793
0.000152518
0.00060668
0.000346969
0.000700975
0.00161226
0.00159619
0.00172525
0.000830992
0.000859019
0.000556912
0.000168553
0.000454648
0.000726885
0.000815694
0
0
0.00840862
0.0022821
0
0
0
0
0
0
0.000476231
0.000306523
0.000196112
0.000551318
0.000106985
0.000208873
9.76406e-05
0.000104664
0.000449595
0.000571685
0.000340288
0.000405693
0.000561447
0.000121351
0.000197739
0.00054306
5.76591e-05
0.000517866
0.000275628
0.000295536
0.000397964
0.000463009
0
0
0
0
1.71661
0
0
0.00117473
0.000491064
0.00164292
0.00095529
0.000659843
0.000786414
0.000672889
0.000668532
0.000277596
0.000284318
0.000293194
0.000255042
0.000295825
0.000336809
0.000393177
0.000207051
0.00044293
0.000558812
0.000184083
0.000503811
0.000926785
0.00106466
0.000162967
0.00163898
0.000575161
0.00277595
0.0012532
0.000578818
0.000570501
0.000573727
0.000861536
0.00110913
0.00127536
0.00195702
0.00150993
0.00397537
0.000811135
0.0014124
0.000705538
0.00125584
0.000280497
0.00166337
0.00127915
0.00105576
0.00204716
0.00236903
0.00285093
0.00441305
0.000602687
0.00104572
0.00145847
0.000307743
0.000704535
0.000607673
0.000441844
0.000828509
0.000950936
0.000563565
0.000174139
0.000996777
0.000255283
0.000541711
0.000705606
0.000447718
0.00110847
0.00145963
0.00143108
0.000973059
0.000536018
0.00082108
0.00091497
0.000336935
0.0015072
0.000617977
0.000351885
0.00117749
0.000309186
0.000447981
0.000440323
0.00108458
0.00144558
0.000794973
0.000946425
0.000806087
0.000849598
0.00117037
0.00121811
0.00157722
0.000934093
0.00084399
0.000690351
0.00148314
0.000548749
0.00133646
0.000937876
0.000750503
0.000577828
0.000667452
2.85649e-05
0.000618124
0.000835796
0.000658948
0.00047974
0.000713762
0.000699507
0.000621806
0.00125184
0.000787117
0.000741301
0.000671982
0.000277553
0.000558616
0.00178849
0.00179219
0.000334394
0.000658614
0.000339582
0.00115255
0.000838228
0.000150153
0.0029941
0.00354957
0.00112878
0.00347109
0.00126022
0.00087251
0.000489473
0.000886702
0.000572628
0.000250043
0.000755032
0
0
0.0082185
0
0.00415703
0.00707406
0
0.00842239
0
0
0
0
0
0
0
0
0.000119693
0.000347877
6.81252e-05
0.000288122
0.000120049
0.000343122
0.000591881
0.000320997
0.000573599
0.000102586
0.000293744
0.000345095
0.000216674
0.000413816
0.000240731
0.000161882
0.000247925
0.000352941
0.000280202
0.000121249
0.000331731
0.00032157
0
0.00784409
0.00854847
0
0
0
0
0
0.000411308
0.00683354
0
0
0
0
0.00725866
0
0
0
0
0
0
0
0.0564099
0.125742
0.00174025
0.0209276
0.0004283
0.000349896
0.000388613
0.000332407
0.000177016
0.000374749
6.96121e-05
0.000401842
0.000174905
0.000385878
0.000144772
7.37779e-05
0.000623962
0.000485424
0.000691187
0.000587873
0.000898304
0.00091549
0.000486545
0.000929326
0.00105252
0.000602589
0.000935741
0.000674325
0.00595913
0.00615549
0.0035892
0.00249619
0.0032981
0.00263814
0.000762146
0.00231423
0.00200543
0.00360509
0.00760133
0.00217292
0.00430795
0.00157344
0.00486133
0.00386497
0.0021659
0.00651369
0.000886496
0.00113988
0.00098262
0.00121704
0.00079397
0.000602037
0.000910459
0.000377343
0.00106471
0.000712176
0.000495115
0.00074359
0.00054659
0.0011925
0.0028233
0.00154541
0.000911876
0.000746694
0.000103217
0.000755393
9.66094e-05
0.000239667
0.00018685
0.000611648
0.000685702
0.000556387
0.000522904
0.0012754
0.0011746
0.00157532
0.00222284
0.00344436
0.00243301
0.00334724
0.00733172
0.00387578
0.00050402
0.001652
0.000443064
0.000570229
0.000234924
0.000936793
0.000538896
0.00177896
0.000751086
0.0020079
0.000929164
0.00137044
0.00127073
0.00145841
0.00118157
0.000744392
0.00137194
0.000221207
0.000867821
0.000781274
0.000333239
0.00028541
0.000414909
0.000542135
0.000591825
0.00073452
0.000745078
0.00090678
0.000775508
0.000263335
0.000625597
0.000306369
0.000625166
0.000418109
0.000154743
0.000449835
0.000601983
0.000593733
0.000745373
0.00059611
0.000408246
0.000180134
0.000380329
0.000238911
0.00158717
0.000538465
0.00108581
0.00106616
0.000876507
0.000856449
0.000423079
0.00926801
0.0049741
0.00115295
0.000970203
0.000336724
0.000923711
0.00060418
0.000462394
0.000679385
0.0032404
0
0
0
0
0.00873657
0.00284917
0
0
0
0
0
0
0
0
0
0
0
0
0
0
0
0
0
0
0
0
0.00219236
0
0
0.00104275
0.000988426
0.00241857
0
0
0
0
0
0
0
0
0
0
0
0
0
0
0.000265856
0.000352462
8.14414e-05
0.000368214
0.000385548
8.26434e-05
0.000507938
0.000492473
0.000266255
0.000835792
0.000915864
0.00036509
0.000179016
0.000535554
8.07106e-05
0.000419959
0.000285802
0.000218899
0.000337134
0.000356104
0.000683956
0.000574438
0
0
0
0
0
0
0
0
0
0
0
0
0
0
0
0
0
0
0
0
0
0
0
0
0
0
0.0314058
0
0
0
0.0189384
0
0.012186
0.00737761
0.000986885
0.00048757
0.000910993
0.00036442
0.000294999
0.000190301
4.85421e-05
0.00022982
0.000457661
0.000368295
0.000238871
0.000172633
0.000315756
0.00017653
0
0
0
0
0
0
0
0
0
0
0
0
0
0
0
0
0
0.000620085
0.000708668
0.000310577
0.000693889
0.000609181
0.000934932
0.00158489
0.00259447
0.00259457
0.00270579
0.00110553
0.00142178
0.0036902
0.00391214
0.00810155
0.00459576
0.0101906
0.00266491
0.000734451
0.00341643
0.00422442
0.00945251
0.0209275
0.00732142
0.00627437
0.00231613
0.00338472
0.00466413
0.00758388
0.021067
0.0686869
0.105559
0.000889684
0.00097711
0.000651246
0.000596369
0.000503889
0.000886305
0.000652801
0.00082367
0.000514183
0.00059149
0.000619726
0.000962348
0.00123254
0.00062225
0.000769597
0.001177
0.000992688
0.00210278
0.00245817
0.000257316
0.00193929
0.00164647
0.00051333
0.000304979
0.000618088
0.000270505
0.000754164
0.000679745
0.000615701
0.000553295
0.000484044
0.00112187
0.00258012
0.00212052
0.00166593
0.00388803
0.0157079
0.00915534
0.0477296
0.0136107
0.00960029
0.00144746
0.00224128
0.00541234
0.00247674
0.00192571
0.0018435
0.00202637
0.00142839
0.00207181
0.00168144
0.000912692
0.00149113
0.00134548
0.00138365
0.00133708
0.00114746
0.00109025
0.00123391
0.000984137
0.000353293
0.00102317
0.00135233
0.000853827
0.000982632
0.00117362
0.000541774
0.000567455
0.000155928
0.000297949
0.00051257
0.000671757
0.000202038
0.000889272
0.000243847
0.000447187
3.82564e-05
0.000467334
0.000442306
0.000493529
0.00058019
0.000692435
0.000741211
0.000587187
0.000480414
0.000696902
0.000456487
0.000686627
0.000539456
0.00035735
0.000404323
0.000453655
0.000376867
0.000375553
0.000333943
0.000340315
0.000306533
0.000307046
0.00025388
0.000259605
0.000199096
0.000231809
0.000132312
0.00012485
0.000139427
9.89811e-05
8.80615e-05
0.000141656
9.20618e-05
7.35141e-05
0.000161206
0.000112041
0.000106779
0.000157826
9.75262e-05
0.000204617
0.000149227
0.000103691
0.000141542
0.000154035
0.000205613
0.000571719
0.00105943
0.000590695
0.000546265
0.000508459
0.000342841
0.000722665
0.00245618
0.000424794
0.0237137
0.00459956
0.00133822
0.00285769
0.00574805
0.00743513
0.00765402
0.00143433
0.000914507
0.00691968
0.00465688
0.00254588
0.00965718
0.00776104
0
0.0158383
0
0
0
0
0
0
0
0
0
0.0136082
0
0
0
0
0
0
0
0
0.0156799
0
0
0
0
0
0
0
0
0
0
0
0
0
0
0
0
0
0
0.0154054
0
0
0.0198928
0
0.00625853
0
0.00715558
0.00822564
0.00327513
0
0.0215381
0.0116517
0
0
0.0136368
0
0
0
0
0
0
0
0
0
0
0
0
0
0
0.0128458
0
0
0.00022495
6.57423e-05
0.000109725
0.000411905
0.000627359
0.000226198
0.000997643
0.000702381
0.00030078
0.000524191
0.000267713
0.00057413
0.000138946
0.000200053
0.000273113
0.000455176
0.000232733
0.00017428
3.86551e-05
0.000271984
0.000284185
0.000245535
0
0
0.0107796
0.00706537
0
0
0
0
0
0.00513139
0
0
0
0
0
0
0
0
0
0
0
0
0.0195856
0.0136945
0
0
0
0.00647866
0.000804743
0.00687986
0.00118334
0.000326808
0.000455243
0.000582244
0.000339278
3.8079e-05
0.000244116
9.06409e-05
0.000459642
1.82679e-05
0.000313367
0.000190578
0.000402955
0.000627509
0.00261156
0
0.0133957
0
0
0.000324218
0
0
0.000324813
0
0
0
0
0
0
0
0
0
0
0
0
0
0
0
0.0149767
0
0.000531943
0.000638976
0.00120596
0.000840176
0.000358022
0.00243752
0.00455308
0.00483567
0.00429769
0.00338571
0.0026552
0.0011034
0.0101034
0.00841824
0.0267173
0.00860546
0.00504516
0.000314724
0.00265549
0.00347562
0
0.214579
0.0260655
0.0332788
0.0256682
0.0164803
0
0
0
0
0.21108
0
0.000589062
0.000664468
0.000475551
0.00092444
0.000615378
0.000489935
0.000384081
0.000735748
0.000491907
0.000476426
0.000502544
0.000681788
0.00039103
0.000353318
0.000347283
0.000234151
4.61034e-05
0.000196394
6.72425e-05
9.60124e-05
4.49386e-06
0.000117144
8.51675e-05
9.78772e-05
0.000199857
0.00017121
0.00010933
0.000175843
2.17724e-05
0.000109356
0.00117734
0.00139856
0.000766929
0.000782517
0.000480097
0.00272549
0.00167929
0.000943226
0.00385818
0.00291461
0.0153444
0.00360114
0.0075788
0.000679624
0.00165331
0.00016214
0.00091807
7.80418e-05
0.000617498
0.00340885
0.00441435
0.0147368
0.000983319
0.00467557
0.00547808
0.0488766
0
0.291948
0.0125185
0.0241798
0.135936
0.015754
0.00541563
0.0115302
0.00304382
0.00583051
0.00352522
0.00177094
0.000309563
0.0012822
0.000317787
0.000291274
0.000677406
0.000803842
0.00033056
0.000468638
0.000503577
0.000664153
0.000538991
0.00129236
0.000559573
0.000930736
0.00055118
0.000221046
0.00079578
0.000224321
0.000373519
0.000694239
0.000141928
0.000606894
0.000234682
0.000599082
0.000905752
0.00038736
0.000163843
0.000335693
0.000405222
0.00016582
0.000297423
0.00056634
0.000379724
0.000320275
0.000364629
0.000403589
0.000319255
0.000322158
0.000333063
0.000302541
0.000301808
0.000189886
0.000225504
0.000106229
0.000136901
0.000157072
0.000153795
0.000169919
0.000190083
0.000132267
0.000139571
0.000241317
0.000204641
0.000160817
0.00013095
0.000195031
0.000218356
0.000206678
0.000164669
0.000221069
0.000154027
0.00015825
0.00021569
0.000217782
0.000189428
0.00612491
0.00091626
0.000783688
0.00098365
0.00157236
0.00295417
0.000256625
0.00069534
0.000196541
0.00162641
0.00497957
0.00985486
0.00903553
0.00105079
0.00214374
0
0
0.0161725
0
0.0135545
0.0169481
0.00287135
0.00357596
0.0105316
0.00885568
0
0
0
0
0.0106256
0.0081497
0
0
0
0.0193133
0
0
0
0
0
0
0
0.0161088
0
0
0
0
0
0
0
0
0.000691826
0
0
0
0.00627115
0
0
0
0
0
0
0
0
0
0
0
0
0
0
0
0
0.0132135
0
0.0102121
0
0
0
0
0
0
0
0
0
0
0.000160597
0.000450331
0.000352963
0.000200393
0.000573161
8.82467e-05
0.000732127
0.00031825
0.000242799
0.000791318
0.000395692
0.000809398
0.000358665
3.32309e-05
0.000304932
0.000946168
0.000685759
0.000448171
0.000399599
0.000493859
0.00020028
0.000158919
0.00950599
0
0.00473135
0
0
0
0
0
0
0
0
0
0
0
0
0
0
0
0
0
0
0
0
0.0263846
0
0
0.0148387
0.00597281
0.000353978
0.00456511
0.0008047
3.87865e-06
0.00022138
5.28134e-05
0.000103634
0.000230749
0.00044807
0.000142028
0.000674518
0.0002716
0.000241157
0.000346577
0.000273428
0.000445074
0
0
0
0
0
0
0
0
0
0
0
0
0.00646615
0
0
0
0
0
0
0.00152389
0
0.00165661
0
0
0
0
0
0
0
0
0
0.000501929
0.0012144
0.000459849
0.00221699
0.00409356
0.000758295
0.00279699
0.00255575
0.00091813
0.00174659
0.00175707
0.0165126
0.01305
0
0
0.0240586
0.0231597
0.0573994
0.00191746
0.00444142
0.00764066
0.00110036
0.00457707
0.345721
0
0.92946
0.0670023
0
0
0
0
0
0
0
0
0.000171702
0.000203994
0.00014169
0.000187792
0.000170224
0.000143443
0.000129991
0.000166246
0.00012829
0.000150676
0.000149306
0.000140008
0.000122206
0.000175575
0.000211089
0.000199163
0.000155626
0.000157927
0.000247067
0.000227143
0.000204333
0.000171559
0.000246782
0.000214806
0.0002012
0.000175897
0.000178992
0.000211881
0.000163583
0.000185147
0.000155621
0.000184073
0.000153042
0.000175295
0.000172772
0.000420647
0.000663754
0.000433601
0.000690384
0.000605841
0.000675504
0.000653318
0.000592604
0.000552126
0.00037486
0.000680915
0.000308158
0.000405422
0.000311675
0.000311429
0.000140281
0.000222867
1.48787e-05
0.000105677
0.00013955
3.70922e-05
0.000166805
1.59883e-05
0.000201185
0.000102483
7.17664e-05
7.73029e-05
5.34537e-05
0.00133798
0.000918958
0.00204881
0.000246766
0.000449249
0.000863055
0.000827955
0.00131349
0.00233348
0.00406508
0.00411774
0.000203164
0.000178408
0.000198984
0.00022163
0.00016679
0.000169019
0.000214477
0.000131136
0.000180351
0.000105384
0.000173602
0.00012347
0.000145937
0.000157921
0.000141806
0.000179175
0.000161222
0.000118702
0.00940424
0.0251183
0.0100227
0.000163942
0.00232997
0.000468643
0.00170323
0.00266729
0.0113387
0.0111315
0.0215109
0.023255
0
0.887942
0
0
0
0
0.0171767
0.0817027
0
0.00277984
0.0153926
0.00912052
0.00432416
0.00385396
0.0010301
0.000860327
0.000587334
0.00127834
0.000520794
0.000597023
0.000917681
0.000825048
0.000687507
0.00064484
0.000867105
0.00022142
0.000406512
0.000608588
0.000297408
9.187e-05
0.000387403
0.000222037
0.00045914
0.000538162
0.000561197
0.000118626
0.000727378
0.000371834
0.000292097
0.000655202
0.000525371
0.000508997
0.000493059
0.000398661
0.000278894
0.000614627
0.000189569
0.000395998
0.000248156
0.000433527
0.000429486
0.000346593
0.000363212
0.000302325
0.000298785
0.00017017
0.000243583
0.000123452
0.000189524
0.000158795
0.000137493
0.000169242
0.000154208
0.000179171
0.000161199
0.000172253
0.000224914
0.000158162
0.000175784
0.000196669
0.000213829
0.00019767
0.00018482
0.00385936
0.00227999
0.00563534
0.00322796
0.0124161
0.00291102
0.0317915
0.00114352
0.0213587
0.0667778
0.016433
0.162571
0
0.300155
0.0382533
0
0
0
0
0.0164837
0
0
0
0
0
0
0
0
0.00866577
0.00924307
0.0114034
0
7.39137e-05
0
0
0
0
0
0
0
0
0
0.031531
0
0
0
0
0
0
0
0
0.209731
0
0.334349
0
0
0
0
0
0
0
0
0
0
0.00358553
0
0
0.00867914
0
0
0
0
0
0
0
0
0
0
0.0272765
0
0
0
0
0
0
0
0
0
0
0.0902249
0
0
0
0
0.0647464
0.00017317
0.000227437
0.000155413
0.000157361
0.000131168
0.000182593
0.000603302
0.000645944
0.000215552
0.000438725
0.000900893
0.000575872
0.00072027
0.00105884
0.000604344
0.000499282
0.000451165
0.00035584
0.00015009
0.00035906
0.000820124
0.00121569
0.00033104
0.000526434
0.000138567
0
0
0
0
0
0
0
0
0
0
0
0
0
0.00329861
0.00193208
0.00295295
0
0
0
0
0
0
0
0
0
0
0
0.00113654
0.000294861
0.000558322
0.000418918
0.000171114
0.000612251
0.000280255
0.000251707
3.92131e-05
0.000259655
0.00055105
0.000507265
0.000187404
0.000247004
0.000400737
0.000319325
0
0.00327049
0
0
0
0
0
0
0
0
0
0
0
0
0
0
0
0.00554288
0
0.0199994
0
0
0
0
0
0
0
0
0
0
0.00592496
0
0
0
0
0
0
0.000896528
0.00153445
0.00176411
0.0015869
0.0010779
0.00174064
0.000615969
0.00902688
0.00853394
0
0
0.00240568
0.000722792
0
0
0
0.0114664
0
0
0.0512153
0
0.00889304
0.0370213
0.00770513
0.00442754
0
0
0
0
0
0
0
0
0
0
0
0
0.000265742
0.000154813
0.000219263
8.71774e-05
0.000176367
0.000106897
0.000195876
0.000178263
0.0001757
0.000180631
0.000165852
0.000183197
0.000225327
0.000193926
0.000150071
0.000225734
0.000227421
0.000110215
0.00014788
0.000234665
0.000196917
0.00013806
0.000658481
0.0007504
0.000470877
0.000572388
0.000832886
0.000807033
0.000552458
0.000683912
0.000594257
0.000340043
0.000342205
0.000668769
0.000464272
0.000201937
0.000487692
0.000523011
0.000219572
0.000296511
0.00012583
0.000198956
0.000166561
0.000129116
0.000129249
0.000167317
6.10036e-05
0.000237079
4.51382e-05
8.07147e-05
6.48804e-05
0.000245826
6.87389e-05
0.00214561
0.000675908
0.000914067
0.000624251
0.00110927
0.00120149
0.00111278
0.000889865
0.00304905
0.00172288
0.00437266
0.00256512
0.000205651
0.000214338
0.000207762
0.000200076
0.000203162
0.000175191
0.000203751
0.000141604
0.000185822
0.000149116
0.000100523
0.000102474
0.000181821
0.000172046
0.000122258
0.000156675
0.000138587
0.000139778
0.000171893
0.00020358
0.000172146
0.000208869
0.000154369
0.000151575
8.7511e-05
0.00199479
0.0132365
0.0574173
0.104054
0.00748326
0.00436644
0
0
0
0
0
0
0
0.00935511
0
0.00426872
0
0
0.802436
0
0.000311012
0.0474664
0.0101786
0.0228303
0.00257603
0.00101864
0.00132655
0.00484939
0.00127041
0.000113065
0.00012542
0.000343125
0.000789772
0.000232882
0.00108931
0.000968756
0.000720442
0.000584924
0.000564068
0.000186997
0.00011139
0.000489304
0.0001663
0.00013816
0.00065908
0.000403594
0.000446536
0.000398669
0.000653847
0.000639148
0.000570544
0.000361664
0.000720048
0.000399486
0.000377371
0.00058038
0.000439564
0.000469446
0.000278385
0.000516004
0.000470244
0.000389907
0.000283495
0.000267242
0.000149008
0.000125544
0.00021047
0.000133296
0.000178996
0.000210937
0.000102496
0.000122701
0.000137304
0.000151701
0.000138063
0.000153813
0.000167357
0.000172501
0.00017607
0.000180635
0.000180528
0.0002062
0
0
0
0
0.0138014
0.0147401
0.0628124
0.0896107
0.0763811
0
0
0
0
0
0
0
0
0
0
0
0
0
0
0
0
0
0
0
0.0135647
0.0050787
0
0
0
0
0
0
0
0
0
0
0
0
0.000644764
0
0
0
0
0
0
0
0
0.107402
0
0
0
0.177807
0.00548468
0
0
0
0
0
0
0
0.00652965
0.00545435
0
0
0.0342185
0.00927235
0
0
0
0
0.0118425
0
0.0193049
0
0
0
0
0
0.0754621
0.0380297
0
0
0
0
0
0
0
0
0
0
0.00665051
0
0
0
0
0
0
0
0
0.00026028
0.000164019
0.000103407
0.000147083
0.000146505
0.000119191
0.000139727
0.000151942
0.00011364
0.00016702
0.000269872
0.000574739
0.000754303
0.000400369
0.000915254
0.000711341
0.000368563
0.00026782
0.00047217
0.000253484
0.000234876
0.000173597
0.000487599
0.000300868
0.000395412
0.000915745
0.000205245
0
0
0
0
0
0
0
0.00432124
0.000644745
0.00689938
0
0
0
0
0
0
0
0
0
0.000767038
0
0
0
0
0
0.000442889
0.000381949
0.000678102
0.000773805
0.000110053
0.000459018
0.000300068
0.00062471
0.000666207
0.000145092
0.000266941
0.000294849
0.000344419
0.00072031
0.000354294
0.000322344
0
0
0.00341992
0.0130328
0
0
0.0131609
0.00443436
0
0
0
0.00291518
0
0
0
0.0110436
0.00229507
0.0121853
0
0
0
0.0115718
0
0
0
0.00789762
0
0
0
0
0
0.0225706
0
0
0
0
0
0
0
0
0
0
0
0
0
0.00087419
0.00036294
0.000157168
0.0042113
0.00226064
0.00200757
0.00185398
0.0214559
0.0193116
0
0
0.00601721
0.00395705
0.0273594
0.0117522
0
0
0
0
0
0
0
0.444162
0.00986255
0.0154284
0.00405381
0.0198346
0
0
0
0.0093571
0
0
0
0
0
0
0
0.00680009
0.000154593
0.000256786
5.21585e-05
0.00022909
0.000242679
0.000166061
0.000452436
0.000121549
0.000427203
0.00027671
0.000200024
0.000255251
0.000172657
0.000264982
0.000171648
0.000182909
0.000199277
0.000227359
0.00021266
0.000197986
0.000250427
0.000264702
0.000274743
0.000134452
0.000264082
0.000181474
0.000259447
0.000288263
0.000692813
0.000642708
0.000497649
0.000501673
0.000707816
0.000641911
0.000503153
0.00064922
0.000546001
0.000437819
0.000605434
0.000567308
0.000303925
0.000236626
0.000279367
0.000456113
0.00021272
0.000204895
0.000159776
0.00014161
5.20359e-05
0.000123291
5.25554e-05
6.67332e-05
0.000117988
0.00010332
0.000178951
0.000265528
8.63437e-05
0.00027831
0.000628934
0.000820972
0.000715554
0.000487729
0.00144783
0.0011941
0.000579227
0.000717681
0.000948298
0.00203784
0.000492031
0.00398872
0.000175586
0.000197143
0.000168201
0.000177673
0.000201018
0.000197269
0.000160252
0.00017802
0.000186969
0.00018772
0.000131022
8.84413e-05
0.000164228
0.00010746
0.000156361
0.000114964
0.000163958
0.000113907
0.00013832
9.96867e-05
0.000138824
0.000181022
0.000153261
0.000166964
9.70374e-05
0
0
0
0
0
0
0
0
0.01026
0
0
0
0
0
0
0
0.00456574
0
0
0
0
0.104443
0.00280944
0.02772
0.000185039
0.000409323
0.0029026
0.00184773
0.000405956
0.00120579
0.000632195
0.000293287
0.000646004
0.000463627
0.000592915
0.000399113
0.000877671
0.000526169
0.000681091
0.000368332
0.000818743
0.000576391
0.000331978
0.000589841
0.000434988
0.000327741
0.0004099
0.000215257
0.000469623
0.000365348
0.000277403
0.000481134
0.000300971
0.000450716
0.000534736
0.000292386
0.00046397
0.000350507
0.000446876
0.000246842
0.000270235
0.000146209
0.000161565
0.000128667
9.97459e-05
0.000168798
9.03647e-05
0.000187747
0.000157004
0.000118735
0.000122526
0.000112999
0.000145146
0.000136061
0.000151697
0.000152519
0.000187644
0.000157616
0.000186072
0
0
0.158165
0.000556819
0
0
0
0
0
0
0
0.00278049
0
0.0321853
0.0286816
0.0302845
0.0269164
0
0.015909
0.3268
1.69735
0
0
0.00288093
0
0.00207883
0.00395462
0
0
0
0
0
0
0
0.0255677
0.00837706
0
0
0
0
0
0
0.019477
0
0
0
0
0
0
0
0
0
0
0
0
0
0
0
0
0
0
0
0
0
0
0
0
0
0
0
0
0
0
0
0
0
0
0
0
0
0
0
0.07388
0
0
0
0
0
0
0
0
0
0
0
0
0
0
0
0
0
0
0
0
0
0
0
0
0
0
0
0
0
0.00479683
0
0
0
0
0.000116796
0.000131658
9.61446e-05
8.26126e-05
0.000122156
8.48473e-05
9.1471e-05
0.000163794
9.02869e-05
0.00015733
6.56474e-05
0.00010499
0.000107243
0.000119574
0.000150355
0.000306543
0.000365514
0.000416646
0.000485066
8.89032e-05
0.000250533
0.000165813
0.000298293
0.000169733
0.000842599
0.000315885
0.000378182
0.00017606
0.000642253
0
0
0
0.00764614
0.00865462
0.00111645
0.00656471
0
0
0.0224679
0
0
0
0
0.0183833
0
0
0
0.0014568
0
0.0111393
0
0
0
0.000479041
0.000374202
0.0002772
0.000622036
0.000481922
0.0010299
0.00029956
0.000426359
0.000230292
0.000920494
0.00055136
0.000166143
0.000301059
0.000243573
0.000667469
0.000320615
0
0.00388122
0
0
0
0
0
0.000332928
0
0
0.00419596
0
0
0
0
0
0
0
0
0.000270766
0
0
0
0
0
0
0
0
0
0
0
0
0
0
0
0
0
0
0.00395727
0.0241455
0
0
0
0
0
0
0
0
0
0
0
0
0
0
0
0
0
0.000712147
0.000370192
0.000854298
0.00153799
0.0233095
0
0
0
0
0
0.00859684
0
0
0
0
0
0
0
0
0
0
0.0266183
0.000838546
0.00951898
0
0
0
0
0
0
0
0
0
0.0160948
0.017624
0
0
0
0
0
0
0.000189259
0.000185103
0.000249798
1.23593e-05
0.000565036
9.88361e-05
0.000368527
0.000293354
0.000124957
0.000289141
0.00016619
0.000224632
0.000175148
0.000270874
0.000201875
0.000269893
0.000209527
0.000234511
0.000199289
7.3823e-05
0.000229546
0.000190716
0.000316627
0.000295474
0.000192419
0.000302234
0.000224043
0.000712894
0.000507054
0.000467108
0.000710613
0.000707765
0.000437461
0.000793394
0.000457339
0.000526105
0.000608747
0.000475522
0.000683034
0.000232613
0.000221145
0.000505336
0.000354976
0.000159496
0.00019716
7.43502e-05
0.00010966
4.8852e-05
0.00011053
0.000342549
0.000183222
0.000588546
0.00042002
0.000234705
0.000179116
0.000307177
0.000326834
0.000425847
0.000852554
0.000219157
0.000518522
0.000573666
0.00114141
0.00069013
0.000797939
0.00242565
0.00184887
0.00165963
0.00297192
0.0335625
0.0201649
0.00697278
0.000202295
0.000153672
0.000124409
0.000188929
0.000167655
0.000129177
0.000117702
0.000159887
0.00014778
0.000147798
0.000105602
0.000159378
0.000177919
9.13974e-05
0.000163468
0.000105192
0.000105966
0.000132039
0.00010877
9.82973e-05
0.00013593
7.29254e-05
0.000144703
0.000148003
8.51451e-05
0.000122438
0
0
0
0
0
0.00703061
0.0143892
0
0
0
0
0.00565502
0.00633672
0
0
0
0
0
0.22619
0
0
0.0110078
0.00395316
0.00393795
0.00136162
0.00425054
0.00160907
0.00178535
0.000287208
0.00131874
0.000576504
0.000321064
0.00039339
0.000654447
0.00037734
0.000305618
0.000234038
0.000416301
0.000359476
0.000421087
0.000378131
0.000356477
0.000368092
0.00013179
0.000441215
0.000275212
8.02802e-05
0.000437191
0.000327227
0.00040084
0.000340488
0.000245617
0.000267637
0.000260214
0.000339356
0.000386281
0.000257513
0.000293522
0.000209638
0.000165473
0.000120772
0.000142925
8.72e-05
0.000137982
0.000152345
9.44568e-05
0.000148672
0.00010375
0.000110065
0.000146353
9.86877e-05
0.000122228
0.000124496
0.000147986
0.000153643
0.000147734
0.000160351
0.000160531
0
0
0.0165621
0
0
0
0
0.0361681
0
0.00159909
0
0
0
0.0153704
0.0273678
0.0302862
0.0321544
0.028791
0.0373408
0
0
0
0
0
0
0
0
0
0
0
0
0
0
0
0
0.0213511
0
0
0
0.168427
0
0
0
0
0
0
0
0
0
0
0
0
0
0
0
0
0
0
0.0421312
0
0
0
0
0
0.00375192
0.001005
0.00473018
0
0
0
0
0
0
0
0
0
0
0
0
0
0
0
0
0
0
0
0
0
0
0
0
0
0
0
0
0
0
0
0
0
0
0
0
0
0
0
0.00577712
0
0
0
0.001202
0
0
0.00054564
0.0186085
0
0.000126289
0.000125251
0.000159399
0.000115793
0.0001311
0.000101228
0.000136884
0.000184192
0.000106713
0.000126214
0.000108493
9.73236e-05
0.000135456
0.000131681
8.91875e-05
0.000164634
9.18555e-05
0.000114893
0.000138842
0.000264431
0.000277724
0.000166242
0.000303038
7.5343e-05
0.000479689
8.43157e-05
0.000449171
6.42624e-05
0.000196821
0.000746349
0.00090266
0.00022944
0.00114349
0
0
0.00370228
0.00101699
0.0069688
0
0
0.00768047
0.00639433
0
0
0
0
0
0
0
0
0.0188655
0
0
0.0135592
0
0
0
0.000267006
0.000193912
0.000102512
0.000485521
0.000417949
0.000549463
0.000318438
0.000155259
0.000203754
0.000309784
0.000133999
0.000188326
6.57112e-05
0
0
0
0
0
0
0.0338546
0.010586
0
0
0.00626782
0
0
0
0
0
0
0.40434
0
0
0
0
0
0
0
0
0
0
0.0317389
0
0
0
0
0
0
0
0
0
0
0
0
0
0
0
0
0
0
0
0
0
0
0.0130474
0
0
0
0
0
0
0
0
0
0
0
0.00367405
0.00389519
0.00902312
0.0519698
0.0730834
0
0.358905
0
0.133774
0
0
0
0
0
0
0
0
0
0
0
0
0
0
0
0.162849
0
0
0
0.135618
0.015351
0.0347191
0
0
0
0.0047055
0
0
0
0
0
0
0
0
0.000594914
0.000243943
0.000163416
0.000217119
0.000928027
0.000462398
0.000204438
0.000103296
0.00018347
0.000109894
9.0176e-05
0.000155443
0.00012002
5.28545e-05
0.000237869
0.000270974
0.000217284
0.000201442
0.000227669
0.000191731
0.000385331
0.000291166
0.000159402
0.000205251
0.000173944
0.000334983
0.000264254
0.000206339
0.000744251
0.000532121
0.000286136
0.000703996
0.000302178
0.000624182
0.000518646
0.000662765
0.00063525
0.000507822
0.000668531
0.000577302
0.000277149
0.000207732
0.000334856
0.000467505
0.000176483
9.44313e-05
0.000101943
0.000185176
0.000431875
0.000152105
0.000341966
0.000350044
0.000305664
0.000135644
0.000116696
0.000123452
0.000123825
0.000139844
0.000818436
0.000149411
0.00079508
0.000358931
0.000334926
0.000165311
0.000661784
0.00080539
0.00103611
0.00173151
0.00074217
0.00110295
0.00240287
0.00269256
0.000162848
0.000132793
0.00017227
0.00012086
0.000130537
0.000119732
0.000137768
0.000115048
0.000149196
0.000109721
0.000137758
9.5347e-05
0.000150623
0.00016914
8.86947e-05
8.99373e-05
0.000110125
8.78746e-05
9.91739e-05
0.000132344
8.11193e-05
0.00014732
0.000114132
0.000147956
9.28657e-05
0
0
0
0
0
0
0
0
0
0.00649727
0
0
0
0
0
0
0.0149396
0
0
0
0
0.0110273
0.00181925
0.00732092
0.0095628
0.00221538
0.00328176
0.000183863
0.000882429
0.000965232
0.00127331
0.00159739
0.000231763
0.000647979
0.000525564
0.000326437
0.000221701
0.000148812
0.000288778
0.000210058
0.000291939
9.23309e-05
0.000339173
0.000458948
0.000343789
0.000166142
4.54467e-05
0.000409473
0.000272153
0.000257851
0.000263056
0.000276501
0.000252684
0.000218438
0.000186612
0.000241677
0.000229384
0.000134972
0.000149687
0.000116833
0.000115993
0.000100607
9.34381e-05
8.33801e-05
9.50581e-05
0.000116878
7.79092e-05
0.000142624
0.000151923
7.54156e-05
0.000135669
7.93382e-05
0.000101219
0.000127845
0.000122165
0.000143143
0.000136438
0.000148769
0
0
0
0
0
0
0
0
0
0
0
0
0
0
0
0
0
0.0365431
0
0
0.03522
0
0
0
0.00215585
0
0
0
0
0
0.000596629
0
0
0
0
0
0
0
0
0
0
0
0
0
0
0
0.0106897
0.0155086
0.0140509
0
0
0
0
0.00486074
0
0
0.00618031
0
0
0
0
0.017135
0
0.00829137
0
0
0
0
0
0
0
0
0
0
0
0
0
0
0
0
0
0
0
0
0
0
0
0
0
0
0
0
0
0
0
0
0
0
0
0
0
0
0
0
0
0
0
0
0
0
0
0
0
0
0
0
0
0.00354559
0
0
0
0.012503
0
0
0.000123834
0.000137003
0.000136904
0.000131623
0.000156588
0.000135603
0.000145617
0.000143729
0.000143209
0.000136154
0.000160035
0.000108866
0.000118795
9.63511e-05
0.000134204
0.000113218
0.000104028
0.000170172
0.000146285
0.000111239
0.000113992
0.000175186
0.000114036
0.00010594
0.00050973
0.000288011
0.000693381
0.000382135
0.000408409
0.000606904
0.000627289
0.000674093
0.000569323
0.000183411
0.000432079
0.000101321
0.001151
0.00310546
0.00292063
0.00115075
0.0003246
0
0
0.0208804
0.0714436
0
0.0244984
0
0
0
0.0196502
0
0
0
0
0
0.00328735
0
0.00831805
0
0.0105463
0.00022185
0.000367332
0.000415524