/*--------------------------------*- C++ -*----------------------------------*\
  =========                 |
  \\      /  F ield         | OpenFOAM: The Open Source CFD Toolbox
   \\    /   O peration     | Website:  https://openfoam.org
    \\  /    A nd           | Version:  8
     \\/     M anipulation  |
\*---------------------------------------------------------------------------*/
FoamFile
{
    version     2.0;
    format      ascii;
    class       volScalarField;
    location    "3240";
    object      H;
}
// * * * * * * * * * * * * * * * * * * * * * * * * * * * * * * * * * * * * * //

dimensions      [0 1 0 0 0 0 0];

internalField   nonuniform List<scalar> 
526318
(
0.872854
0.826019
0.891772
0.811023
0.879919
0.851325
0.847018
0.767849
0.831833
0.707481
0.691382
0.808924
0.753341
0.789391
0.746275
0.777183
0.747759
0.953997
0.849888
0.910823
0.892149
0.850468
0.613429
0.861059
0.738094
0.608076
0.881169
0.878414
0.881802
0.887707
0.926346
0.96749
0.945316
0.827507
0.832784
0.811553
0.808777
0.894576
0.815986
0.778697
0.80904
0.809282
0.469431
0.52343
0.426584
0.474952
0.452591
0.570301
0.763057
0.648999
0.741773
0.745995
0.693079
0.654423
0.150953
0.395642
0.389912
0.191093
0.910192
0.922235
0.951082
0.893701
0.840057
0.976878
0.960859
0.926926
0.906071
0.922337
0.815368
0.790738
0.914716
0.691632
0.748877
0.643469
0.599178
0.586296
0.695006
0.683516
0.602269
0.634349
0.721198
0.715737
0.671895
0.633064
0.653782
0.722927
0.731704
0.698121
0.645566
0.728068
0.629331
0.580294
0.570965
0.504239
0.505287
0.505015
0.502968
0.50094
0.498174
0.499457
0.000546092
2.15653e-06
0.00100571
0.000800779
0.0584298
0.000437609
0.407523
0.222644
0.534889
0.497681
0.539475
0.658783
0.879947
0.773312
0.877808
0.897545
0.955527
0.93671
0.976918
0.497514
0.493309
0.497363
0.502221
0.458149
0.494093
0.406737
0.451465
0.361611
0.406882
0.358507
0.35909
0.348308
0.323831
0.314681
0.342709
0.284355
0.336165
0.290064
0.309612
0.253079
0.255887
0.278265
0.307727
0.296522
0.249556
0.25228
0.270213
0.254454
0.251062
0.263919
0.270127
0.262931
0.263243
0.266794
0.261544
0.230872
0.263588
0.260461
0.227163
0.182259
0.260221
0.218422
0.268342
0.773161
0.854651
0.795417
0.78934
0.587539
0.659672
0.587733
0.589899
0.586106
0.591828
0.615777
0.590294
0.524156
0.497083
0.464791
0.402428
0.46074
0.506574
0.502956
0.504534
0.391142
0.444163
0.331222
0.339702
0.348749
0.337971
0.342126
0.34306
0.336919
0.335619
0.330029
0.321336
0.303191
0.326411
0.319941
0.293859
0.270579
0.297806
0.280616
0.275653
0.291657
0.283357
0.285334
0.247303
0.272048
0.301991
0.294451
0.75086
0.769097
0.809541
0.730106
0.759495
0.757317
0.742676
0.619829
0.67562
0.410035
0.390008
0.389253
0.511062
0.641426
0.52147
0.553803
0.561452
0.502902
0.485185
4.77947e-05
2.19052e-06
0.130768
0.331389
0.00027704
9.76159e-09
0.000995694
0.000255125
0.000396609
0.000963311
0.961227
0.942093
0.986392
0.98336
0.938418
0.94828
0.85733
0.931455
0.786966
0.723453
0.711775
0.728613
0.730351
0.722331
0.715238
0.699971
0.627573
0.697081
0.5107
0.565063
0.496274
0.5099
0.000995508
4.56871e-11
0.000146849
0.00101
0.00135838
0.000983591
0.000701885
0.124268
0.504424
0.320735
0.550592
0.558385
0.670882
0.769365
0.887202
0.893176
0.929362
0.906631
0.974954
1.00501
0.475799
0.47303
0.433483
0.408633
0.306463
0.34127
0.266754
0.279127
0.268644
0.264767
0.253962
0.256385
0.185662
0.210042
0.245488
0.279864
0.330914
0.297677
0.261774
0.26064
0.19505
0.189351
0.233224
0.292787
0.216114
0.249164
0.250574
0.22048
0.217798
0.188016
0.181276
0.142598
0.14429
0.145141
0.140319
0.266194
0.299411
0.265123
0.299942
0.668226
0.608357
0.513806
0.61232
0.524784
0.584504
0.592052
0.579857
0.589352
0.589838
0.500918
0.415616
0.3428
0.326827
0.405189
0.344839
0.331325
0.443317
0.332642
0.383337
0.321403
0.321208
0.329921
0.321398
0.335226
0.329134
0.330609
0.333209
0.334712
0.331388
0.340295
0.334447
0.344168
0.347309
0.35059
0.327688
0.340377
0.327079
0.300539
0.299316
0.324184
0.350398
0.342712
0.32311
0.302404
0.328834
0.370585
0.372638
0.37737
0.343375
0.379547
0.396135
0.429947
0.382835
0.391875
0.420615
0.444912
0.570034
0.635374
0.555865
0.618518
0.664305
0.732701
0.652414
0.521158
0.629468
0.52583
0.538612
0.279484
0.223677
0.2538
0.240267
0.36148
0.48361
0.410651
0.481325
0.479754
0.503419
0.479838
0.000385257
0.000758623
0.0582807
0.000919196
0.138343
0.0202511
0.000599399
0.00104555
0.000165281
0.00100962
0.000664765
0.00100889
0.000730728
0.000955715
0.000582482
0.000952703
0.979567
0.976862
1.00972
0.999603
0.978271
0.949304
0.880806
0.786416
0.738326
0.727012
0.715661
0.716713
0.697428
0.686255
0.677892
0.669705
0.624036
0.664561
0.589769
0.530808
0.477082
0.435205
0.000992021
0.00111495
0.00111556
0.000663073
0.000357708
0.000731205
0.000564093
0.000512215
0.0011139
0.00111425
0.000712025
0.00100984
0.000755332
0.00100942
0.0013178
0.00017911
0.000296228
0.000495034
0.000981725
0.000983054
0.000140792
0.00100233
0.038928
0.0162576
0.209977
0.0554939
0.420972
0.580881
0.591476
0.69199
0.90172
0.790895
0.923792
0.92422
0.920101
0.965308
0.994685
1.00862
0.393236
0.394741
0.349885
0.373441
0.312581
0.276419
0.267145
0.268544
0.263173
0.269157
0.221286
0.215475
0.168235
0.175528
0.22645
0.201678
0.180435
0.224422
0.220937
0.240558
0.143102
0.137219
0.154067
0.170493
0.169362
0.128574
0.132942
0.125789
0.134363
0.115464
0.115135
0.414758
0.385571
0.397547
0.392259
0.40821
0.523353
0.480499
0.453119
0.338121
0.378666
0.365316
0.373477
0.268536
0.208208
0.388997
0.499167
0.384197
0.38947
0.371805
0.451391
0.433852
0.50318
0.540399
0.463562
0.445454
0.478066
0.356425
0.32574
0.328673
0.323522
0.244611
0.298433
0.224156
0.178212
0.156167
0.272709
0.274679
0.320318
0.32125
0.323122
0.323637
0.324966
0.326334
0.326809
0.334825
0.327578
0.342931
0.339353
0.349619
0.341604
0.366572
0.358139
0.382097
0.387054
0.330595
0.321511
0.382439
0.367413
0.351634
0.374699
0.358151
0.338411
0.396116
0.372459
0.474308
0.485657
0.439014
0.475038
0.48206
0.458509
0.549544
0.508928
0.581019
0.608994
0.622385
0.545777
0.545891
0.545563
0.502564
0.492026
0.448344
0.549975
0.393056
0.373435
0.424134
0.445549
0.120745
0.17351
0.253468
0.375576
0.406593
0.443903
0.349168
0.311391
0.273733
0.217561
0.000965631
0.000590899
0.00036239
4.76646e-07
0.0549712
0.123637
0.000993891
0.000234006
0.00100979
0.000545241
0.00024476
0.000470015
0.000926911
0.000208943
0.000722389
0.000986846
0.000766556
0.000551352
0.000138864
0.000388285
0.00097475
0.00101
0.000132334
0.000999776
0.000964074
0.000381465
0.00119105
0.000960142
0.00098125
0.00119092
0.00119091
0.00119094
0.000887674
0.000999494
0.0009727
0.000201819
9.59135e-05
0.000989075
0.000892979
0.0009482
0.00100959
0.000881287
0.00100974
0.00100225
2.6935e-05
0.000911906
0.972425
0.999838
1.01569
0.997109
0.990995
0.897635
0.728605
0.804807
0.688421
0.704884
0.674535
0.676601
0.665906
0.668743
0.658857
0.655568
0.609747
0.572922
0.476538
0.518674
0.373536
0.416011
0.000851104
0.000624444
0.000948563
0.000967574
0.000969466
0.000982262
0.000986514
0.000879074
0.000998153
0.000737602
0.000677989
0.000965569
0.000971308
0.000759356
0.000380116
0.000991326
0.000690401
0.00100737
0.000803925
0.000839513
0.000369052
0.000975289
0.000889611
0.000439439
0.000917861
0.000867126
0.00111143
0.000318351
1.03512e-05
0.000301604
0.0810584
0.000422977
0.0981865
0.0997597
0.392984
0.225
0.59554
0.563888
0.632383
0.732128
0.843231
0.920026
0.939978
0.918306
0.952837
0.989913
0.97766
0.978394
0.00101
0.000734461
0.000886173
0.000268178
0.000927704
0.000922867
0.00081396
0.000929604
0.000890554
0.000725685
0.000975785
0.00092383
0.000794854
5.91556e-07
0.000716784
0.00101
0.000170373
0.374178
0.375608
0.374178
0.340389
0.260039
0.29483
0.218221
0.211052
0.175444
0.171691
0.129607
0.126055
0.159017
0.148605
0.114499
0.148098
0.14399
0.195735
0.178642
0.172718
0.0963266
0.0663839
0.0665339
0.115361
0.118814
0.117544
0.0936732
0.097839
0.0608069
0.0501429
0.0108132
0.0170196
0.614415
0.583377
0.625297
0.635487
0.57978
0.53769
0.709222
0.726701
0.791998
0.801369
0.343599
0.386389
0.440048
0.528239
0.346002
0.293948
0.331
0.323812
0.172955
0.214643
0.267137
0.155806
0.370895
0.368609
0.373253
0.368982
0.391162
0.372257
0.383311
0.400658
0.278074
0.271037
0.175616
0.253662
0.247487
0.207645
0.157322
0.179257
0.119543
0.139576
0.123947
0.207693
0.271978
0.201265
0.269441
0.320388
0.320402
0.325001
0.325514
0.328004
0.34649
0.33651
0.355911
0.34987
0.37086
0.368394
0.390984
0.384182
0.392177
0.38708
0.398205
0.393344
0.429523
0.406838
0.370662
0.371707
0.43509
0.40774
0.412442
0.45642
0.491803
0.494681
0.489949
0.493921
0.520669
0.575814
0.642202
0.661831
0.668923
0.650866
0.789459
0.723521
0.855143
0.896132
0.884426
0.926426
0.982362
0.841952
0.93474
0.956236
1.02977
1.07865
1.10433
1.12335
1.15226
1.09708
1.15331
1.10894
1.19154
1.19197
1.24148
1.20844
1.2728
1.304
1.29289
1.24037
1.30336
1.3304
1.29579
1.29212
1.35278
1.33383
1.36426
1.30814
1.30448
1.36617
1.33703
1.29281
1.28706
1.31757
1.35292
0.3433
0.309166
0.480722
0.472732
0.44554
0.44385
0.438435
0.205581
0.339439
0.0433195
0.0715681
0.172408
0.160093
0.031583
0.115709
0.100483
0.274317
0.175856
0.181101
0.0886421
0.0865658
0.0970117
0.111729
0.000349107
0.00105745
0.000383546
7.93656e-05
0.000401583
2.84431e-05
0.00101
0.000966006
0.000995857
0.00068828
2.19343e-05
0.00130881
0.000842141
0.000928041
0.000844807
0.000810333
0.000216297
0.00069126
0.000943677
0.000831092
0.00112603
0.000754616
0.00012748
0.000146108
0.000949
0.000255762
1.26965e-05
1.61879e-05
0.000990101
0.000818938
0.00100231
0.000954382
0.000911134
0.000410555
0.000489319
0.000875386
0.000762255
0.000945839
0.00099456
0.00101232
0.000993239
0.000993419
0.00128918
0.000904019
0.00118428
0.000934579
0.00118413
0.00118411
0.00117902
0.000997289
0.00118406
0.00118396
0.000327709
0.000832765
0.00102914
0.000876036
0.000916886
0.000377029
0.000991017
0.000960908
0.00100983
0.00100977
0.000136678
0.000847562
0.000950381
0.000921886
0.000915695
0.000919934
0.000868714
0.00129214
0.000849684
0.000968314
0.974692
0.953212
0.932127
0.917888
0.848117
0.916117
0.743334
0.675135
0.658877
0.669486
0.665013
0.665876
0.602882
0.616126
0.454147
0.416815
0.373694
0.546736
0.544744
0.495339
0.499549
0.497848
0.000648178
0.000461022
0.00122624
0.00122592
0.000962471
0.000414864
0.000658057
0.000410365
0.000989502
0.00102784
0.000161511
0.00100893
0.000972717
0.000941946
0.000297472
0.000985833
0.000726155
0.00091818
0.00021426
0.00071546
0.00064085
0.000951565
0.00115796
0.0011583
0.000235982
7.91576e-06
0.000660246
0.0989782
0.225844
0.0973728
0.390687
0.561557
0.588332
0.625737
0.705379
0.811891
0.885288
0.854641
0.898168
0.842617
0.88907
0.931167
0.878054
0.884899
0.00124917
0.000855634
0.00101054
0.000849207
0.000995207
0.00120483
0.000764216
0.000797067
0.00120479
0.000920789
0.00100237
0.000963574
0.000770314
1.14836e-05
0.000814034
0.000727106
0.000776991
0.000656439
0.00098774
0.000236686
0.000248866
0.000474998
0.00096459
0.000795867
0.0012544
0.000447939
0.349585
0.348953
0.269579
0.286226
0.166843
0.185887
0.124573
0.125015
0.121147
0.124975
0.0966654
0.0985726
0.0743244
0.072455
0.0506448
0.0856183
0.172253
0.125387
0.168799
0.159609
0.000805011
0.00824816
0.0477651
0.0283219
0.0373742
0.0393322
0.000556357
0.000474227
0.000989934
0.00100032
0.00141889
0.00083567
0.834128
0.837088
0.670058
0.579462
0.566166
0.553686
0.832679
0.746991
0.991792
1.07044
0.967799
0.885964
1.08059
1.0604
1.12765
1.17948
1.21178
1.20625
1.24049
1.20859
1.26119
1.29557
1.28515
1.29208
1.30037
1.28814
1.29246
1.33746
1.28304
1.2737
0.39885
0.321694
0.472402
0.542514
0.327006
0.275356
0.329306
0.325863
0.149629
0.214194
0.0430324
0.210405
0.0921793
0.372089
0.310662
0.368876
0.363684
0.370394
0.261672
0.167218
0.0889382
0.0723915
0.089939
0.125225
0.053384
0.0387127
0.000378734
0.0487752
0.137777
0.128001
0.0498698
0.148089
0.217876
0.162015
0.268986
0.216582
0.258546
0.314375
0.351913
0.32501
0.360559
0.361517
0.375818
0.361263
0.396167
0.409176
0.404064
0.419261
0.426296
0.424303
0.461901
0.472047
0.457846
0.455901
0.462487
0.454174
0.472715
0.483854
0.530065
0.527047
0.4926
0.522026
0.521751
0.550332
0.588524
0.650643
0.681632
0.678729
0.686867
0.761193
0.842628
0.914305
0.93583
1.0552
0.928038
0.980848
1.12946
1.15356
1.15571
1.19253
1.24396
1.29214
1.30238
1.305
1.32974
1.36007
1.3827
1.38478
1.38697
1.3837
1.38568
1.36582
1.30888
1.37075
1.33396
1.28761
1.29467
1.32234
1.35803
1.36538
1.29031
1.35314
1.3156
0.134804
0.126271
0.198963
0.273572
0.162184
0.232005
0.365978
0.30225
0.330999
0.166029
0.0679283
0.0341636
0.0338403
0.135605
0.128251
7.28189e-09
0.000242885
0.0826254
0.000641796
0.083548
0.0840179
0.0936313
0.0837146
0.0996815
0.117914
0.000871197
0.000837817
0.000904459
0.00078996
0.00127257
0.00127235
0.00086849
0.000172666
0.000832018
0.00130833
0.000981197
0.000906583
0.000478021
0.000315336
0.000578457
0.00101
0.000643416
0.0011256
0.000934557
0.000984534
0.000989972
0.000660221
0.000998234
0.000701989
0.00100779
0.000868975
0.00105318
0.000955557
0.000864704
0.000744326
0.00116056
8.75772e-05
0.00099613
0.000976554
0.000277626
0.000818393
0.000544652
0.000936558
0.000765323
0.000976826
0.000949771
0.000946109
0.000978339
0.000943996
0.000974885
0.00092222
0.000265274
0.00145468
0.000939838
0.00105483
0.000870258
0.00100962
0.000641972
0.000367709
0.000916152
0.000960434
0.000955856
0.000892128
0.000735627
0.000479733
0.873082
0.880735
0.858628
0.860192
0.791681
0.85831
0.666715
0.738581
0.621906
0.631523
0.565547
0.555079
0.49727
0.49584
0.410715
0.308426
0.285972
0.454605
0.496378
0.496347
0.496706
0.496954
0.00122645
0.000986732
0.00122678
0.000280595
0.000973634
0.000953788
0.000990863
0.000963159
0.000983712
0.000813892
0.000135327
0.000443538
0.00093376
0.000982119
0.00060297
0.00100999
0.00098232
3.53596e-05
0.000985985
0.000873381
0.000276721
0.000740053
0.000618033
0.00101961
0.000321117
1.78699e-05
0.0621185
0.0959753
0.292118
0.125171
0.430163
0.563316
0.538755
0.64519
0.816055
0.709084
0.796097
0.790398
0.787459
0.813906
0.875424
0.859206
0.878199
0.844109
0.000769413
0.000922585
0.000573493
0.000958878
0.000712787
0.000933944
0.000627141
0.000311966
0.00081213
0.000879841
0.000957505
0.000914731
0.00102719
0.000886259
0.000945733
0.000873917
0.00096514
0.000987798
0.000920271
0.00107275
0.000727407
0.00107262
0.00090317
0.000901385
0.00101
0.000860782
0.000668131
0.000529485
0.000136748
0.000756032
0.000938482
0.224942
0.224115
0.18852
0.168185
0.124491
0.144104
0.110587
0.11161
0.266481
0.207589
0.186089
0.0361366
0.0459571
0.000466919
0.000402017
0.0479992
0.0484151
0.0401853
0.0819034
0.133654
0.0997016
0.131837
0.106047
0.00647494
0.000992523
0.00141814
0.0223696
0.00058603
0.00095102
1.30661e-05
0.00052455
0.000737284
0.000689738
0.000594218
0.000812433
1.40833
1.41975
1.44702
1.42606
1.46853
1.45404
1.47765
1.47263
1.5286
1.51631
1.47727
1.53137
1.49819
1.55067
1.37852
1.33289
1.35195
1.39837
1.38059
1.35104
1.35127
1.40428
1.41044
1.384
1.36772
1.41431
1.4035
1.40588
1.43163
1.28571
1.29238
1.29336
1.28689
1.30634
1.33198
0.878744
0.828873
0.72795
0.625068
0.54454
0.615468
0.820469
0.800468
1.03913
1.06646
0.94914
1.03472
1.07193
1.11713
1.16603
1.20742
1.20322
1.20827
1.20022
1.23609
1.24651
1.27787
1.25849
1.26936
1.26514
1.27829
1.25216
1.25535
0.447248
0.373322
0.319302
0.309494
0.368293
0.542758
0.524388
0.252035
0.313382
0.182326
0.116127
1.39679
1.41324
1.43403
1.43917
1.43939
1.45301
1.46029
1.48552
1.47252
1.4887
1.49135
1.53951
1.56211
1.58584
1.58356
1.58545
1.60378
1.62574
0.0852526
0.0371784
0.0340209
0.29487
0.186334
0.355253
0.25512
0.174284
0.0749494
0.0760384
0.0725033
0.0761193
0.000175619
0.00149561
0.000341679
0.000737296
5.27782e-21
6.10001e-120
0.142105
0.0727259
4.72684e-28
0.166793
0.164028
0.164901
0.216941
0.177272
0.301484
0.252279
0.340956
0.300083
0.337057
0.364343
0.385963
0.40851
0.432737
0.429321
0.441758
0.43079
0.490737
0.478349
0.476527
0.468222
0.528694
0.496496
0.56492
0.533988
0.508714
0.547265
0.592072
0.586984
0.616819
0.649614
0.648858
0.596851
0.699657
0.72996
0.702636
0.684382
0.777358
0.850502
0.935146
0.996047
0.941183
0.959435
1.08873
1.14816
1.19271
1.17229
1.23979
1.26989
1.3102
1.32793
1.32055
1.33719
1.39629
1.37643
1.38936
1.39667
1.38748
1.38898
1.38859
1.38576
1.38703
1.38735
1.38481
0.121481
0.111192
0.134387
0.0559566
0.0758026
0.0941016
0.0314663
0.174324
0.0724968
0.00922566
0.0305307
0.00960774
0.000459459
0.00881677
0.0355128
0.000367218
2.91219e-06
1.72039e-09
0.000381623
0.0853242
0.000902366
0.000467704
0.00078441
0.000374585
0.000847681
0.000161979
0.000923462
0.000956082
0.00114494
0.00114481
0.0012721
0.000706924
0.00109786
0.000988352
0.000776109
0.00096702
0.000896738
0.000998449
0.00026155
0.000888291
0.00100984
0.000894905
0.00114458
0.000624295
0.000398457
0.000668916
0.000983724
0.000270015
0.000740386
1.41433e-07
2.6469e-05
0.00238064
0.000324171
0.00101104
0.000694792
0.000545923
0.000997667
0.000425175
0.00100993
0.000972649
0.000977525
0.000963111
0.000999516
0.000670489
0.00110779
0.000963209
0.000752676
0.00111656
0.000810563
0.000998287
0.00089779
0.000955844
0.000631827
0.000258775
0.00079686
0.000964465
0.000941166
0.000838222
0.00101486
0.000336866
0.000814991
0.000687128
0.000978177
0.000925692
0.000935309
0.00092803
0.00091709
0.000695524
0.000567275
0.00175939
0.000247835
0.000674617
0.000835469
0.000981601
0.00174135
1.57513
1.54389
1.53371
1.61699
1.65691
1.6498
0.853701
0.862724
0.862488
0.841478
0.758618
0.826226
0.657714
0.588969
0.511893
0.530827
0.496258
0.49491
0.496588
0.495744
0.372278
0.292466
0.381079
0.460257
0.460487
0.00093523
0.00080709
0.000875173
0.000890082
0.000999727
0.000971927
0.000922744
0.000493094
0.000928118
0.000560941
0.00100943
0.000984735
0.000971046
0.0600961
0.0949864
0.122337
0.00100998
0.000498781
0.000128694
0.000927014
4.59314e-06
0.000271025
0.000921556
0.000798212
0.000573107
0.000783296
0.000603043
0.263503
0.407392
0.519582
0.515388
0.835268
0.754287
0.772951
0.555867
0.646926
0.747984
0.787595
0.792004
0.779694
0.803011
0.835681
0.827558
0.000757718
0.00110554
0.00062567
0.000982796
0.000835361
0.000861204
0.00100904
0.000845157
0.000733529
0.000835941
0.000817811
0.000932446
0.000763197
0.000994656
0.00100991
0.000951429
0.000929381
0.00102757
0.000965121
0.00102793
0.000907879
0.000824304
0.000770427
0.00097601
0.00096277
0.000887822
0.000423426
0.000801713
0.000962731
0.000994977
0.00107637
0.000984843
0.000980402
0.00100956
0.000818042
0.00101
0.001009
0.222814
0.257997
0.246641
0.184939
0.185764
0.157192
0.182012
0.0476742
0.0754459
0.000722145
0.000492494
0.192751
0.178106
0.000406768
0.000890278
0.000633661
0.00104074
0.000849959
0.000917521
0.016945
0.000361022
0.0912139
0.0384591
0.0879468
0.090807
7.30339e-05
0.000680105
0.000702988
0.000421019
0.000677842
0.000551523
0.000693939
9.93495e-05
0.000358069
0.000994303
8.71897e-06
0.000979051
1.40953
1.42315
1.44734
1.4728
1.47699
1.48163
1.50883
1.49682
1.34815
1.34428
1.33006
1.34625
1.37861
1.34529
1.38538
1.36332
1.27501
1.26083
1.26345
1.29584
1.32734
1.30074
0.88771
0.811702
0.700624
0.798081
0.640149
0.557557
0.806904
0.811931
1.04762
1.05231
1.06579
0.959875
1.03958
1.14982
1.10078
1.04352
1.08138
1.18349
1.19323
1.18898
1.19193
1.20105
1.22486
1.25329
1.24056
1.25505
1.25216
1.2496
1.25121
1.24848
1.25639
0.291458
0.300871
0.432869
0.519391
0.299331
0.371213
0.538702
0.551936
0.294204
0.23202
0.139723
0.208656
1.42618
1.38672
1.40094
1.45121
1.44476
1.44727
1.46111
1.48361
1.5063
1.51728
1.51888
1.52334
1.54371
1.58139
1.56671
1.58388
1.60002
1.64512
1.6255
1.4567
1.46885
1.48493
1.65414
1.65128
1.65177
0.0344564
0.0349214
0.0334815
0.00802929
0.104279
0.119299
6.90126e-05
0.000876608
0.000201684
0.000871709
0.000849062
0.000904789
0.000689837
0.00134067
0.000585163
0.00134063
0.000969713
6.36617e-06
0.0188661
4.26193e-08
0.00175565
0.0948674
0.172327
0.0836448
0.237318
0.270488
0.198254
0.242503
0.301711
0.266057
0.393175
0.334786
0.407791
0.422174
0.431142
0.418774
0.467879
0.513976
0.545593
0.546706
0.550545
0.532189
0.565874
0.548468
0.594585
0.598355
0.623111
0.619029
0.605166
0.599483
0.716746
0.769763
0.663189
0.728876
0.774909
0.741032
0.843569
0.882528
0.988347
1.02061
0.999384
1.08862
1.14683
1.24414
1.23219
1.29088
1.26358
1.3586
1.36541
1.35885
1.38712
1.41574
1.4142
1.46992
1.43741
1.46079
1.42671
1.42475
1.45919
1.39292
1.42557
1.38849
0.000358874
0.000426397
0.000888537
4.28071e-05
0.0504476
0.0289313
0.0289859
0.0117017
0.0298595
0.000289648
0.000747802
0.000522648
0.000134705
0.000911416
0.000515604
0.000365868
0.000599205
6.95597e-05
0.000302915
2.905e-05
0.000551889
0.000231466
5.50518e-07
0.000288064
0.000978557
0.000553414
0.000999883
0.000176321
0.0011448
0.00114477
0.000985181
0.000995782
0.000992745
3.82214e-05
0.00101
0.000912008
0.0010004
0.000112849
0.00044385
0.000919656
0.000652813
0.000297927
0.00150738
0.00011126
0.000984734
7.22769e-05
0.0009581
0.000364482
0.00099302
2.5498e-05
0.00099807
0.00220314
0.000973036
0.000134455
0.000944277
0.00129221
0.00111935
0.000468702
0.00100983
0.000979813
0.000465046
0.000983408
0.000969573
0.000835887
0.0011076
0.00110744
0.00093398
0.000962701
0.00110703
0.00110732
0.000955402
0.000803358
0.000711032
0.000919589
0.00126141
0.000118958
0.00126109
0.000946018
0.00098702
0.000966821
0.000985049
0.00100415
0.00106004
0.00106555
0.000874252
0.000805878
0.000827454
1.24245e-05
9.12481e-06
0
0.000992281
0.000799517
0.000430028
0.000895487
0.00111924
0.000923733
0.00100958
0.00100998
0.000997314
0.000998553
0.000946811
0.000914726
0.00101
1.51636
1.55415
1.55732
1.543
1.58433
1.69177
1.66992
1.67754
1.69584
1.63604
0.765378
0.759053
0.693731
0.675244
0.647313
0.685284
0.587637
0.544781
0.533808
0.495894
0.469758
0.472394
0.381372
0.394709
0.260625
0.302935
0.302119
0.000529692
0.000965684
0.000913493
0.00101
0.000967147
0.000933412
0.000732248
0.0917346
0.237467
0.0948249
0.000919443
0.000208654
0.000955226
0.000954432
0.000181793
0.000490944
0.00101
0.000964607
0.000953142
0.00102274
0.000849804
0.000989757
0.000944045
0.000847483
0.00025022
0.622206
0.642032
0.684682
0.37675
0.519384
0.513903
0.55369
0.672984
0.739072
0.70413
0.612088
0.692549
0.721705
0.724301
0.657825
0.680245
0.000957717
0.000993914
0.00110569
0.00106364
0.000460893
0.00093187
0.00106476
0.00122715
0.000955739
0.000994359
0.000160682
0.00183803
0.000959109
0.000936631
0.000510229
0.0028329
0.00284276
0.00283423
0.000347962
0.000935926
0.000775127
0.001027
0.000878561
0.000971549
0.000904828
0.00103295
0
0
0
0.000959356
0.000963823
0.00118657
0.00100136
0.000836671
0.000432509
0.000838075
0.000930546
0.000997229
0.0010054
0.000330773
0.000972191
0.000958008
0.000969942
0.000686934
0.00095588
0.24166
0.25016
0.263143
0.127097
0.150628
0.109294
0.106098
0.0364025
0.0280703
0.000814749
0.000922415
0.00115294
0.00215265
0.0409104
0.0364531
0.000406739
0.00051543
0.000242686
0.000584634
0.000389242
0.000731247
0.00060076
0.00349551
0.0832875
0.0467424
0.120204
0.0652693
0.000105983
0.000906236
0.000704402
0.00124199
0.000312228
0.000747328
0.000717687
0.000346646
0.00101
0.000942721
0.000707088
0.00135555
1.40975
1.36978
1.43875
1.40989
1.41731
1.46448
1.46368
1.4902
1.52485
1.53588
1.52172
1.45039
1.52732
1.47092
1.31479
1.31086
1.30207
1.31507
1.32761
1.33505
1.33803
1.34046
1.24924
1.24994
1.27119
1.2596
1.29017
1.29817
0.891674
0.81196
0.727499
0.807873
0.601897
0.69559
0.806948
0.815266
1.03763
1.03759
1.03989
0.966712
1.13277
1.17167
1.08428
1.04149
1.1791
1.18572
1.19191
1.18342
1.22051
1.23807
1.24509
1.25157
1.25059
1.2435
1.25306
1.25056
1.24943
1.24861
0.287509
0.283415
0.456882
0.529243
0.422414
0.356389
0.592821
0.529884
0.260475
0.290309
0.259516
0.170223
1.42715
1.46185
1.44653
1.47076
1.48682
1.47782
1.51459
1.52611
1.50293
1.51724
1.50922
1.5189
1.5193
1.54693
1.56452
1.58579
1.57904
1.63256
1.61339
1.66265
1.67154
1.53924
1.55391
1.66919
1.67766
0.000418646
0.000279434
0.000696944
0.00094753
0.000525579
9.91921e-05
0.000230905
0.000224272
0.00102396
1.01697e-05
0.000927799
0.000258474
0.00058537
0.000657476
5.07035e-06
0.000780461
0.00175398
0.000579356
0.000936584
2.01038e-17
0.000563241
0.0209389
0.168533
0.0693947
0.251172
0.260713
0.22558
0.173879
0.296388
0.334344
0.39672
0.381774
0.404611
0.39325
0.514815
0.465573
0.562475
0.551956
0.58362
0.588982
0.559312
0.620632
0.663068
0.640209
0.61858
0.650114
0.696039
0.684235
0.665076
0.705994
0.786628
0.797382
0.784029
0.80722
0.940334
0.846166
1.01832
1.04933
1.04469
1.11508
1.18702
1.26665
1.27249
1.28759
1.33129
1.38316
1.41591
1.41768
1.45868
1.4297
1.48104
1.50002
1.49697
1.49831
1.49571
1.4966
1.46177
1.49578
1.46311
0.000846904
0.00010115
0.00555447
0.00102591
0.000769877
0.000636969
0.000710166
0.000702554
0.000800969
0.000458475
0.000856206
0.00125693
0.000330784
0.00125639
0.00125597
0.00125621
0.00125641
0.000995992
0.00125498
0.00520041
0.00100963
0.000638589
0.000184916
0.00222549
0.00030304
0.00222532
0.00222536
0.000469215
0.000476567
0.00100217
0.000993637
0.000687571
0.000906911
0.000544749
0.00108771
0.00104673
0.0007846
0.000959982
0.00100986
0.000887496
0.000962023
0.000995105
0.00150666
0.000969051
0.000146754
1.36216e-05
0.000607696
0.00096357
0.000988249
0.000479144
0.000826696
0.000979665
0.00100941
0.00031059
7.35176e-05
0.000987756
0.00100992
0.000817418
0.000560979
0.000886521
0.00101
0.000799183
0.000974344
0.000279366
0.000904827
0.00095865
0.000969366
0.00101
0.000954704
0.000876282
0.000886752
0.00100949
0.00097168
0.000773375
0.000984106
0.000952799
0.000894518
0.00098992
0.000934564
0.000964099
0.000974876
0.000974485
0.00127832
0.000985927
0.000905098
0.000624705
0
0
0
0
0
0
0
0
0
0
0
0
0
0
0
0
0
0
0
0.00099334
0.000901628
0.000937661
0.000812305
0.000982222
0.000436148
0.000948157
0.00110519
0.000325168
0.000811332
0.000317982
0.000878445
1.7233
1.71451
1.72571
1.72037
1.73493
1.72785
1.56952
1.57474
1.6383
1.59884
1.69323
1.71977
1.692
1.56746
1.4991
0.629936
0.624013
0.635258
0.623259
0.633542
0.560723
0.605638
0.392615
0.450082
0.314352
0.316303
0.261405
0.262718
0.257298
4.53839e-05
0.000921736
0.000503248
0.00129575
0.0678795
0.261815
0.0923723
0.000975944
0.00088282
0.0474271
0.000437056
0.000976565
0.000946011
0.000978432
0.00101636
0.000717645
0.000359445
0.000984588
0.00101604
0.000205403
0.00101494
0.000932938
0.0004632
0.000716959
0.63382
0.637855
0.629822
0.631752
0.625563
0.343846
0.462444
0.403025
0.52374
0.585627
0.617145
0.541761
0.624571
0.575139
0.572015
0.560432
0.000954778
0.0011497
0.000643647
0.000970576
0.000973219
0.000935143
0.000926829
0.00101891
9.94902e-05
0.000757479
0.00101705
0.000555707
6.92933e-05
0.000527482
0.000759789
0.000616055
0.000763669
0.000919235
0.000877056
0.00101594
0.000696403
0.000933745
0.000740767
0.000726241
0.000621516
0.00100951
0.000739043
0.000916253
0.000354107
2.15212e-05
0
0
0
0
0
0.000973716
0.000985375
0.000907267
0.00117443
0.00105767
0.000588967
0.000835369
0.000560301
0.000950777
0.00100911
0.000964926
0.000965413
0.000722883
0.000993559
0.000787048
0.000894888
0
0
0
0
0
0
0.24026
0.169717
0.151921
0.0872577
0.0747329
0.000186548
0.000293655
0.000751747
0.000518854
0.000466611
0.00204315
0.000835303
0.000375808
0.000550644
0.00033854
0.000763054
0.000783848
0.000795758
0.000905726
0.000971356
0.000998996
0.0443611
0.111837
0.0258946
0.000486704
0.000715974
0.000670057
0.000461879
0.000288906
0.00027789
0.000676853
1.31742e-05
0.000467482
0.00183352
0.00183127
0.000727581
0.000959699
0.000281529
0.000798649
0.00100972
0.000818552
1.39852
1.36502
1.38794
1.39199
1.39063
1.41835
1.38773
1.43827
1.4447
1.47837
1.54958
1.50356
1.44114
1.2991
1.29865
1.3271
1.31534
1.34021
1.34035
1.35926
1.34743
1.2551
1.25506
1.28041
1.26495
1.27889
1.28672
0.931717
0.851051
0.769325
0.809299
0.760023
0.663664
0.848551
0.808302
1.04397
1.04004
1.00561
1.04889
1.13871
1.18273
1.04707
1.09115
1.18953
1.18362
1.20451
1.18707
1.22622
1.24215
1.24865
1.24337
1.23801
1.25083
1.25167
1.24564
1.24223
1.24781
0.281145
0.342373
0.526122
0.510422
0.432385
0.510273
0.534089
0.610612
0.277957
0.275324
0.271023
0.183464
0.0226769
0.0690163
0.148752
1.49336
1.5001
1.52822
1.51828
1.54355
1.55575
1.55711
1.55658
1.59069
1.57404
1.58573
1.5475
1.57666
1.59316
1.60927
1.63328
1.64889
1.64012
1.69768
1.69606
1.72199
1.69681
1.61186
1.61503
1.73226
1.73247
0.00016622
0.000334169
0.00101
8.77718e-06
0.000729054
0.00124814
0.00124802
0.000841558
0.000305007
0.000152851
0.000186206
0.00186088
0.00131092
0.000378344
0.000822227
0.000835447
0.00100232
0.000626775
0.00745743
0.000981712
8.67506e-05
0.0593862
0.102262
0.117611
0.0995612
0.201691
0.27477
0.156321
0.375418
0.318157
0.384439
0.390236
0.480214
0.42351
0.5362
0.572429
0.56943
0.576739
0.701054
0.661845
0.631974
0.683808
0.717285
0.711888
0.699545
0.686461
0.695922
0.709711
0.790799
0.827094
0.868228
0.822482
0.86544
0.898686
1.03414
0.961453
1.05795
1.04794
1.12491
1.20344
1.28786
1.28556
1.32132
1.35887
1.4362
1.42375
1.44831
1.45105
1.47823
1.49207
1.5066
1.50156
1.51044
1.50604
1.49546
1.50719
1.49474
1.49668
0.00098171
0.000930005
0.00104605
0.000730734
0.000959723
0.000657298
0.000566723
0.00116684
0.000748185
0.0012548
0.000328307
0.000848008
0.000295436
0.0012532
0.00125281
0.00125332
0.00125311
0.00125261
0.00125362
0.000324186
0.000371652
0.00100886
0.000717288
0.000938422
0.000788581
0.00100179
0.000891124
0.000997704
0.000180038
0.000954666
0.000624923
0.00101
0.000209386
0.000736452
0.00100863
0.00104613
0.000685206
0.000881619
0.000931266
0.00373118
3.45355e-05
0.000210438
0.00024578
0.00100978
0.000913563
6.55138e-09
0.000996394
0.00100983
0.000281884
0.000848872
0.00100647
0.000131712
0.00100976
0.000959372
0.000189208
0.000986414
0.000975827
0.000970829
0.00350802
0.000980885
0.000759889
0.00098777
0.00084675
0.000779106
0.00112281
0.00112269
0.00112263
0.000896489
0.000943214
0.000888864
0.000973731
0.000935172
0.000927075
0.000961192
0.000874935
0.000897996
0.000947049
0.000951887
0.000925848
1.67713e-05
0.000881191
0.00092376
0.0003855
0.000414352
0.00098456
0
0
0
0