/*--------------------------------*- C++ -*----------------------------------*\
  =========                 |
  \\      /  F ield         | OpenFOAM: The Open Source CFD Toolbox
   \\    /   O peration     | Website:  https://openfoam.org
    \\  /    A nd           | Version:  8
     \\/     M anipulation  |
\*---------------------------------------------------------------------------*/
FoamFile
{
    version     2.0;
    format      ascii;
    class       volScalarField;
    location    "4260";
    object      Hclip;
}
// * * * * * * * * * * * * * * * * * * * * * * * * * * * * * * * * * * * * * //

dimensions      [0 1 0 0 0 0 0];

internalField   nonuniform List<scalar> 
526318
(
0.816509
0.777251
0.850109
0.75928
0.829641
0.788326
0.80044
0.719712
0.779094
0.660689
0.635607
0.758905
0.701543
0.744291
0.706534
0.734139
0.700257
0.90186
0.810288
0.856614
0.848131
0.806266
0.568482
0.808644
0.691977
0.553575
0.828965
0.82974
0.832029
0.845779
0.871707
0.917191
0.902917
0.783946
0.782654
0.753692
0.758869
0.85132
0.773115
0.721177
0.783522
0.753285
0.426054
0.472246
0.366813
0.435804
0.394481
0.52446
0.706986
0.599906
0.692346
0.688061
0.646331
0.600586
0.112147
0.341999
0.359289
0.105749
0.860908
0.871725
0.889823
0.843727
0.792299
0.917719
0.912607
0.875503
0.859774
0.861639
0.76
0.754012
0.870552
0.64956
0.705952
0.593878
0.553338
0.542336
0.643141
0.631532
0.549417
0.592438
0.671869
0.67057
0.623398
0.57957
0.608398
0.675524
0.67604
0.652964
0.604216
0.673989
0.581201
0.527369
0.525011
0.45674
0.448389
0.453583
0.457123
0.452076
0.447849
0.449055
0.001
0.001
0.00100668
0.001
0.00840454
0.001
0.362644
0.168527
0.486783
0.449394
0.494494
0.6054
0.828979
0.724727
0.834124
0.843632
0.909909
0.881813
0.926068
0.444857
0.447471
0.449342
0.454237
0.408253
0.447326
0.359761
0.402343
0.311707
0.360563
0.311229
0.310215
0.29693
0.27507
0.267084
0.295106
0.234948
0.291331
0.238949
0.257236
0.201565
0.211345
0.230912
0.258634
0.24443
0.20346
0.200842
0.216818
0.206027
0.204797
0.206773
0.223481
0.205796
0.215929
0.212608
0.212794
0.179462
0.215267
0.216009
0.174224
0.13135
0.216292
0.168643
0.218938
0.714709
0.806518
0.752158
0.734623
0.540133
0.610683
0.541401
0.5382
0.541147
0.537308
0.561855
0.543321
0.476506
0.448257
0.409846
0.355207
0.414741
0.451526
0.457286
0.45388
0.342782
0.397763
0.281989
0.288206
0.29818
0.289778
0.290263
0.295296
0.281737
0.287817
0.279329
0.270762
0.249029
0.274028
0.267533
0.243748
0.218289
0.243866
0.23133
0.218926
0.242396
0.229283
0.228962
0.200519
0.215979
0.246234
0.243191
0.697799
0.706641
0.742294
0.721676
0.701984
0.696008
0.698031
0.572325
0.616027
0.37174
0.328402
0.333126
0.462676
0.599389
0.469791
0.509092
0.513316
0.456015
0.437496
0.00387525
0.001
0.0523352
0.298559
0.001
0.001
0.001
0.001
0.001
0.001
0.915169
0.88899
0.941199
0.929799
0.903209
0.8914
0.800533
0.886414
0.733137
0.675033
0.676974
0.673984
0.675483
0.674765
0.661607
0.663786
0.5821
0.643255
0.457935
0.517977
0.442414
0.460168
0.00100536
0.001
0.001
0.00100202
0.001
0.001
0.001
0.07274
0.456982
0.270252
0.504056
0.51077
0.619909
0.71891
0.841495
0.844371
0.882621
0.856785
0.924664
0.953736
0.423878
0.426457
0.387311
0.359502
0.254957
0.29079
0.219845
0.228091
0.218325
0.214185
0.203801
0.208056
0.13295
0.155768
0.190088
0.234655
0.278912
0.256496
0.206869
0.209017
0.14691
0.135673
0.182772
0.235311
0.160161
0.20412
0.199516
0.170055
0.170472
0.138635
0.13428
0.0923004
0.0928988
0.0992838
0.0872164
0.212917
0.254028
0.205902
0.249961
0.608303
0.570673
0.471523
0.556721
0.480746
0.533103
0.543008
0.52857
0.541268
0.539138
0.45236
0.368546
0.29383
0.273529
0.3497
0.293196
0.280452
0.396188
0.283707
0.333446
0.272598
0.274257
0.279822
0.270241
0.285766
0.280459
0.280515
0.282593
0.282703
0.280485
0.291619
0.284939
0.297899
0.294808
0.293048
0.277265
0.282177
0.272504
0.249721
0.241488
0.271141
0.302098
0.296315
0.270742
0.254828
0.278027
0.327788
0.324931
0.330426
0.296828
0.323272
0.343133
0.378031
0.330481
0.337122
0.369034
0.395761
0.517375
0.592653
0.518001
0.553936
0.616068
0.689427
0.597625
0.46037
0.576507
0.475055
0.492029
0.236421
0.176854
0.206388
0.18618
0.310301
0.430694
0.364462
0.428728
0.437837
0.449729
0.436184
0.001
0.001
0.00606967
0.001
0.0898605
0.001
0.001
0.00100998
0.001
0.00100962
0.001
0.00100889
0.001
0.001
0.001
0.001
0.937328
0.923388
0.96127
0.948114
0.928471
0.901459
0.828423
0.743721
0.672947
0.688757
0.669321
0.664943
0.643804
0.646086
0.625203
0.624909
0.572916
0.616833
0.539888
0.480169
0.426684
0.38409
0.001
0.00112804
0.00112836
0.001
0.001
0.001
0.001
0.001
0.00112536
0.00112322
0.001
0.00100984
0.001
0.00100942
0.00129278
0.001
0.001
0.001
0.001
0.001
0.001
0.001
0.00108878
0.001
0.163497
0.00907879
0.373088
0.527565
0.546841
0.632948
0.855542
0.748616
0.865495
0.869133
0.881271
0.912981
0.943557
0.960188
0.341901
0.346794
0.299817
0.323769
0.262696
0.226836
0.21869
0.219413
0.214981
0.215256
0.168172
0.168756
0.108213
0.126594
0.174783
0.158039
0.125125
0.173593
0.16858
0.190541
0.0993191
0.0824557
0.108284
0.116484
0.119992
0.0801842
0.0827752
0.0791567
0.0820729
0.0657235
0.0672845
0.360982
0.335868
0.342508
0.336723
0.359232
0.46778
0.424928
0.403068
0.28735
0.335569
0.314313
0.323927
0.217376
0.160575
0.337727
0.453397
0.338248
0.347922
0.319565
0.404314
0.381741
0.455353
0.491324
0.411049
0.395111
0.429453
0.305219
0.278232
0.279717
0.277136
0.197606
0.24744
0.176597
0.125245
0.105962
0.223632
0.222706
0.272553
0.27118
0.272074
0.277575
0.272319
0.28051
0.269476
0.28423
0.274767
0.296302
0.291901
0.295479
0.294413
0.323924
0.306148
0.334817
0.333603
0.288194
0.268818
0.332652
0.318418
0.310066
0.322122
0.305899
0.292997
0.338908
0.321249
0.420863
0.431633
0.383976
0.424222
0.428509
0.402947
0.494887
0.46559
0.530381
0.549785
0.573799
0.486585
0.494315
0.495292
0.460834
0.433277
0.410506
0.49395
0.350699
0.323588
0.378537
0.394047
0.0719841
0.131261
0.205753
0.328283
0.362972
0.390618
0.292712
0.270961
0.222503
0.174474
0.001
0.001
0.001
0.001
0.00758793
0.0735934
0.001
0.001
0.00100979
0.001
0.001
0.001
0.001
0.001
0.001
0.001
0.001
0.001
0.001
0.001
0.001
0.00101
0.001
0.00100053
0.001
0.001
0.0011888
0.001
0.001
0.00118881
0.00118882
0.00118881
0.001
0.001
0.001
0.001
0.001
0.001
0.001
0.001
0.00100959
0.001
0.0010078
0.00100281
0.001
0.001
0.930124
0.940879
0.961524
0.950843
0.931209
0.856536
0.676691
0.764514
0.644005
0.645807
0.624499
0.6239
0.615791
0.618146
0.610182
0.61416
0.555166
0.524587
0.426894
0.466888
0.326408
0.360391
0.001
0.001
0.001
0.001
0.001
0.001
0.001
0.001
0.001
0.001
0.001
0.001
0.001
0.001
0.001
0.001
0.001
0.00100737
0.001
0.001
0.001
0.001
0.001
0.001
0.001
0.001
0.00106644
0.001
0.001
0.001
0.0294813
0.001
0.0499833
0.0534397
0.346802
0.176431
0.551879
0.512883
0.576963
0.682466
0.788743
0.869606
0.883325
0.865417
0.909815
0.943507
0.928017
0.924458
0.00101
0.001
0.001
0.001
0.001
0.001
0.001
0.001
0.001
0.001
0.001
0.001
0.001
0.001
0.001
0.00101
0.001
0.320859
0.324689
0.32592
0.287712
0.209739
0.245943
0.166908
0.162827
0.126102
0.120159
0.0764392
0.0761634
0.102445
0.10478
0.0633332
0.0997028
0.0951804
0.138032
0.124319
0.123099
0.043529
0.0153871
0.0162352
0.059716
0.0667679
0.0675423
0.0448494
0.049067
0.00949106
0.001
0.001
0.001
0.560524
0.531312
0.568526
0.578694
0.534068
0.485498
0.654415
0.683452
0.74817
0.753105
0.29578
0.332616
0.389681
0.473025
0.296376
0.239506
0.285012
0.27772
0.106351
0.167259
0.21873
0.104399
0.319554
0.317417
0.321294
0.320959
0.348128
0.317992
0.335193
0.349065
0.227861
0.222508
0.120628
0.208207
0.198405
0.160439
0.108086
0.131515
0.0724877
0.094655
0.0717982
0.157882
0.220672
0.153973
0.218739
0.270987
0.275664
0.271504
0.275111
0.277393
0.2927
0.288279
0.301389
0.300066
0.320545
0.315494
0.340814
0.336486
0.343631
0.340644
0.343585
0.343572
0.384262
0.351045
0.318921
0.317169
0.378842
0.355468
0.362281
0.397609
0.441586
0.44224
0.446239
0.436909
0.469646
0.527854
0.587816
0.607751
0.617648
0.592267
0.739836
0.681348
0.799866
0.837239
0.834827
0.871792
0.928394
0.79281
0.880923
0.902421
0.985564
1.03335
1.05295
1.07401
1.10475
1.04613
1.10242
1.05791
1.13596
1.13769
1.18865
1.15535
1.21875
1.25177
1.23989
1.18733
1.25989
1.28042
1.24584
1.24396
1.31128
1.28496
1.3155
1.25357
1.25503
1.32007
1.28417
1.23848
1.24112
1.27058
1.30186
0.294151
0.262177
0.430273
0.423646
0.396148
0.394612
0.385573
0.15484
0.292942
0.001
0.0176233
0.120648
0.11415
0.001
0.0636122
0.0486416
0.224893
0.124833
0.128661
0.037983
0.0405518
0.0515162
0.0621231
0.001
0.0010418
0.001
0.001
0.001
0.001
0.00101
0.001
0.001
0.001
0.001
0.00136722
0.001
0.001
0.001
0.001
0.001
0.001
0.001
0.001
0.00117693
0.001
0.001
0.001
0.001
0.001
0.001
0.001
0.001
0.001
0.00100231
0.001
0.001
0.001
0.001
0.001
0.00122851
0.001
0.001
0.00101148
0.00100986
0.001
0.00117466
0.001
0.00106179
0.00112795
0.00106113
0.001
0.00112972
0.001
0.00111848
0.00111978
0.001
0.001
0.00102175
0.001
0.001
0.001
0.001
0.001
0.00100983
0.00100977
0.001
0.001
0.001
0.001
0.001
0.001
0.001
0.0012472
0.001
0.001
0.920585
0.907546
0.881322
0.880493
0.794192
0.868652
0.686777
0.628523
0.616766
0.615253
0.617319
0.618941
0.554907
0.563444
0.407177
0.366196
0.327597
0.497989
0.498433
0.446914
0.447985
0.446608
0.001
0.001
0.00112522
0.00112691
0.001
0.001
0.001
0.001
0.001
0.001
0.001
0.00100893
0.001
0.001
0.001
0.001
0.001
0.001
0.001
0.001
0.001
0.001
0.00119317
0.00119346
0.001
0.001
0.001
0.0458322
0.177451
0.0542036
0.341403
0.512087
0.542272
0.570361
0.650509
0.76853
0.835432
0.807015
0.859439
0.784775
0.835142
0.882628
0.833461
0.833626
0.00124245
0.001
0.00101
0.001
0.001
0.00120264
0.001
0.001
0.00120262
0.001
0.00100237
0.001
0.001
0.001
0.001
0.001
0.001
0.001
0.001
0.001
0.001
0.001
0.001
0.001
0.001
0.001
0.297473
0.298531
0.216666
0.236925
0.115802
0.137603
0.0746991
0.0772084
0.0744447
0.0728613
0.0457281
0.0482836
0.0206872
0.0200074
0.001
0.0377833
0.115022
0.0758449
0.116454
0.119965
0.001
0.001
0.001
0.001
0.001
0.001
0.001
0.001
0.001
0.001
0.00125137
0.001
0.782813
0.786741
0.608208
0.531557
0.519478
0.502573
0.787605
0.695261
0.940706
1.01743
0.90738
0.837862
1.02935
1.01182
1.07531
1.12327
1.15442
1.15411
1.18349
1.15557
1.21322
1.23679
1.23802
1.23507
1.25103
1.24093
1.238
1.28163
1.23251
1.22861
0.340568
0.273302
0.417567
0.48762
0.271159
0.229913
0.276655
0.279375
0.102976
0.147179
0.001
0.162989
0.0451858
0.322969
0.259976
0.322563
0.312469
0.324012
0.214924
0.117213
0.0409671
0.0247836
0.0410906
0.0763798
0.0035855
0.001
0.001
0.00317759
0.0908292
0.0764763
0.00144034
0.100492
0.164962
0.114396
0.220335
0.166413
0.208712
0.263528
0.295986
0.275024
0.305282
0.310641
0.324167
0.309195
0.345898
0.3565
0.354604
0.372421
0.378861
0.373878
0.404423
0.424672
0.410874
0.406298
0.409616
0.398459
0.413922
0.439897
0.48343
0.470452
0.445153
0.47398
0.467706
0.505561
0.535165
0.600391
0.631056
0.634616
0.643609
0.708313
0.78639
0.863147
0.878734
1.00394
0.875491
0.933926
1.07729
1.10294
1.09969
1.14054
1.19133
1.24208
1.25618
1.25736
1.28717
1.31054
1.3344
1.33292
1.33256
1.33362
1.33229
1.31337
1.24612
1.31231
1.28346
1.23646
1.2326
1.27142
1.29591
1.30552
1.23852
1.30355
1.25075
0.0897909
0.0719136
0.151672
0.227847
0.115458
0.185532
0.317221
0.249583
0.27913
0.112929
0.0182669
0.001
0.001
0.0821291
0.0706996
0.001
0.001
0.0346413
0.001
0.0403074
0.034418
0.0404214
0.0341234
0.0461232
0.0735572
0.001
0.001
0.001
0.001
0.00126172
0.0012615
0.001
0.001
0.001
0.00136682
0.001
0.001
0.001
0.001
0.001
0.00101
0.001
0.00117637
0.001
0.001
0.001
0.001
0.001
0.001
0.00100779
0.001
0.00105291
0.001
0.001
0.001
0.0011269
0.001
0.001
0.001
0.001
0.001
0.001
0.001
0.001
0.001
0.001
0.001
0.001
0.001
0.001
0.001
0.001
0.00138655
0.001
0.00104775
0.001
0.00100962
0.001
0.001
0.001
0.001
0.001
0.001
0.001
0.001
0.82908
0.826723
0.812175
0.815573
0.747412
0.805839
0.615177
0.680372
0.577041
0.57735
0.52317
0.503784
0.448426
0.44929
0.363836
0.260778
0.237297
0.407532
0.448461
0.448199
0.44608
0.449009
0.00112348
0.001
0.00112252
0.001
0.001
0.001
0.001
0.001
0.001
0.001
0.001
0.001
0.001
0.001
0.001
0.00100999
0.001
0.001
0.001
0.001
0.001
0.001
0.001
0.00101
0.001
0.001
0.0132754
0.0468295
0.244539
0.076555
0.381284
0.516154
0.489776
0.598257
0.769409
0.66765
0.742007
0.749414
0.735481
0.772014
0.821823
0.821351
0.825065
0.791027
0.001
0.001
0.001
0.001
0.001
0.001
0.001
0.001
0.001
0.001
0.001
0.001
0.001
0.00110091
0.001
0.001
0.001
0.001
0.001
0.00107368
0.001
0.00107398
0.001
0.001
0.00101
0.001
0.001
0.001
0.001
0.001
0.001
0.174323
0.172343
0.137832
0.116582
0.0747045
0.0947749
0.0594161
0.0602566
0.217624
0.156383
0.138226
0.001
0.001
0.001
0.001
0.00188326
0.00189807
0.001
0.0263447
0.0868201
0.041792
0.0796565
0.0621358
0.001
0.001
0.001
0.001
0.001
0.001
0.001
0.001
0.001
0.001
0.001
0.001
1.35956
1.36911
1.39783
1.3748
1.41781
1.40515
1.4323
1.42145
1.48112
1.46737
1.42911
1.47938
1.44557
1.5054
1.32827
1.27632
1.29651
1.34476
1.32826
1.29846
1.30449
1.35328
1.35625
1.33687
1.31625
1.37142
1.35527
1.36282
1.38808
1.24023
1.23504
1.23285
1.23591
1.25428
1.27244
0.827593
0.780541
0.668375
0.581082
0.486874
0.572101
0.767771
0.753866
0.988808
1.00903
0.901152
0.9733
1.02009
1.06612
1.11324
1.15592
1.15076
1.15312
1.15398
1.18132
1.19616
1.22196
1.21212
1.21305
1.22161
1.22935
1.20795
1.20531
0.396965
0.32114
0.271315
0.258832
0.317621
0.492931
0.464638
0.200667
0.25581
0.132212
0.0593346
1.34585
1.35985
1.38037
1.38647
1.39129
1.4024
1.40346
1.43637
1.41825
1.43968
1.438
1.49006
1.51319
1.53799
1.53507
1.54351
1.5487
1.57468
0.037946
0.001
0.00183527
0.248237
0.134373
0.303561
0.207627
0.121395
0.0250051
0.0286745
0.0259103
0.0234948
0.001
0.001
0.001
0.001
0.001
0.001
0.094649
0.0187206
0.001
0.116617
0.115393
0.114213
0.171053
0.124774
0.254882
0.199491
0.283006
0.247957
0.28888
0.31171
0.337892
0.359222
0.385571
0.384786
0.387692
0.382052
0.437176
0.431026
0.423144
0.419334
0.474428
0.440067
0.51872
0.475812
0.459843
0.5022
0.549195
0.535674
0.560142
0.593625
0.593722
0.539896
0.65351
0.685733
0.65489
0.636699
0.723662
0.800685
0.880283
0.94403
0.889983
0.910869
1.03353
1.09654
1.13487
1.12138
1.18643
1.21996
1.26008
1.28118
1.27477
1.28941
1.34385
1.32376
1.33495
1.34142
1.33199
1.33465
1.33107
1.33236
1.3368
1.3309
1.33129
0.0675154
0.0590263
0.0865627
0.00780846
0.025095
0.0425185
0.001
0.124474
0.0257542
0.001
0.001
0.001
0.001
0.001
0.00183311
0.001
0.001
0.001
0.001
0.030554
0.001
0.001
0.001
0.001
0.001
0.001
0.001
0.001
0.00116164
0.00116164
0.00126131
0.001
0.0010886
0.001
0.001
0.001
0.001
0.001
0.001
0.001
0.00100984
0.001
0.00116126
0.001
0.001
0.001
0.00100238
0.001
0.001
0.001
0.001
0.00239793
0.001
0.00100904
0.001
0.001
0.001
0.001
0.00100993
0.001
0.001
0.001
0.001
0.001
0.00105806
0.001
0.001
0.00104555
0.001
0.001
0.001
0.001
0.001
0.001
0.001
0.001
0.001
0.001
0.00101
0.001
0.001
0.001
0.001
0.001
0.001
0.001
0.001
0.001
0.001
0.00176532
0.001
0.001
0.001
0.001
0.00176824
1.52708
1.49888
1.47467
1.56332
1.59817
1.59494
0.810295
0.806395
0.795887
0.794499
0.718783
0.785003
0.609811
0.535098
0.46344
0.481916
0.449307
0.448909
0.44647
0.448504
0.326765
0.2439
0.334609
0.412716
0.410721
0.001
0.001
0.001
0.001
0.001
0.001
0.001
0.001
0.001
0.001
0.00100943
0.00106506
0.001
0.00986881
0.04127
0.0760807
0.00100998
0.001
0.001
0.001
0.001
0.001
0.001
0.001
0.001
0.001
0.001
0.214918
0.359287
0.469142
0.470643
0.791607
0.709184
0.726504
0.509215
0.59464
0.687954
0.738528
0.740728
0.738073
0.756906
0.788624
0.775667
0.001
0.00111579
0.001
0.001
0.001
0.001
0.00100904
0.001
0.001
0.001
0.001
0.001
0.001
0.00100047
0.0010343
0.001
0.001
0.00101916
0.001
0.001
0.001
0.001
0.001
0.001
0.00102751
0.001
0.001
0.001
0.001
0.001
0.00103638
0.001
0.001
0.00100967
0.001
0.00101
0.001009
0.173907
0.206561
0.20124
0.137018
0.137627
0.10888
0.13405
0.001
0.0278686
0.001
0.001
0.142646
0.13408
0.001
0.001
0.001
0.00102165
0.001
0.001
0.001
0.001
0.0349251
0.001
0.0378158
0.0462823
0.001
0.001
0.001
0.001
0.001
0.001
0.001
0.001
0.001
0.001
0.001
0.001
1.36153
1.37127
1.40071
1.41726
1.43156
1.43041
1.48141
1.44177
1.28974
1.28982
1.27369
1.29404
1.32788
1.29056
1.33429
1.31151
1.22837
1.21773
1.21404
1.24057
1.26477
1.24383
0.834025
0.767181
0.655331
0.741069
0.592717
0.501084
0.758728
0.756025
0.994751
0.994318
1.01258
0.914589
0.982375
1.10121
1.04682
0.987622
1.02859
1.13387
1.14615
1.13793
1.14227
1.15169
1.17315
1.20112
1.1914
1.20368
1.20258
1.20534
1.20945
1.20038
1.20102
0.236153
0.257122
0.381451
0.467574
0.250626
0.319493
0.48373
0.498001
0.238636
0.169977
0.0888226
0.158555
1.37472
1.33491
1.35202
1.39725
1.39136
1.39788
1.40492
1.43124
1.44989
1.46433
1.46755
1.47555
1.49441
1.53551
1.52062
1.5334
1.5495
1.59281
1.5676
1.40422
1.41733
1.43124
1.59175
1.59644
1.59896
0.00183058
0.00183628
0.00183227
0.001
0.0530016
0.0707284
0.001
0.001
0.001
0.001
0.001
0.001
0.001
0.00128795
0.001
0.00128791
0.001
0.001
0.001
0.001
0.00176214
0.0410203
0.115945
0.0343395
0.190522
0.219423
0.150353
0.18839
0.250509
0.217001
0.343396
0.288387
0.361189
0.368124
0.380848
0.362593
0.418327
0.449553
0.497052
0.490381
0.502478
0.48759
0.508426
0.491632
0.545535
0.545661
0.570459
0.567648
0.544037
0.553067
0.675139
0.716596
0.620915
0.680468
0.720406
0.684556
0.788789
0.830542
0.934363
0.971058
0.947551
1.03581
1.09218
1.18955
1.17773
1.238
1.21249
1.31372
1.31372
1.30614
1.33906
1.36164
1.36021
1.41103
1.38488
1.40331
1.3742
1.37106
1.40667
1.3384
1.37175
1.3383
0.001
0.001
0.001
0.001
0.001
0.00102575
0.001
0.001
0.00102338
0.001
0.001
0.001
0.001
0.001
0.001
0.001
0.001
0.001
0.001
0.001
0.001
0.001
0.001
0.001
0.001
0.001
0.001
0.001
0.00116141
0.00116153
0.001
0.001
0.001
0.001
0.00101
0.001
0.0010004
0.001
0.001
0.001
0.001
0.001
0.00175039
0.001
0.001
0.001
0.001
0.001
0.001
0.001
0.001
0.00220855
0.001
0.001
0.001
0.00125997
0.00114017
0.001
0.00100983
0.001
0.001
0.001
0.001
0.001
0.00105785
0.00105742
0.001
0.001
0.0010563
0.00105683
0.001
0.001
0.001
0.001
0.00130721
0.001
0.00130692
0.001
0.001
0.001
0.001
0.00100545
0.00104938
0.00104942
0.001
0.001
0.001
0.001
0.001
0.001
0.001
0.001
0.001
0.001
0.00114008
0.001
0.00100958
0.00100998
0.001
0.001
0.001
0.001
0.00101
1.48906
1.49613
1.50169
1.50408
1.53047
1.63148
1.60976
1.6181
1.64107
1.57775
0.719182
0.703415
0.640936
0.642717
0.600827
0.628266
0.541076
0.495705
0.483475
0.446992
0.422946
0.423898
0.333861
0.341664
0.211566
0.25673
0.252979
0.001
0.001
0.001
0.00101
0.001
0.001
0.001
0.0466321
0.185364
0.0444086
0.001
0.001
0.001
0.001
0.001
0.001
0.00101
0.001
0.001
0.00102254
0.001
0.001
0.001
0.001
0.001
0.582769
0.586828
0.628964
0.331308
0.471158
0.46725
0.503452
0.629318
0.699791
0.657971
0.569362
0.652267
0.676033
0.684202
0.599997
0.629413
0.001
0.001
0.00111589
0.00105188
0.001
0.001
0.00104732
0.00121645
0.001
0.001
0.001
0.00172045
0.001
0.001
0.001
0.00287932
0.00303379
0.00290652
0.001
0.001
0.001
0.00101924
0.001
0.001
0.001
0.00103488
0.001
0.001
0.001
0.001
0.001
0.001
0.00100136
0.001
0.001
0.001
0.001
0.001
0.001
0.001
0.001
0.001
0.001
0.001
0.001
0.188807
0.1986
0.212464
0.0798279
0.100035
0.0564293
0.0582236
0.001
0.001
0.001
0.001
0.00111486
0.00211484
0.001
0.001
0.001
0.001
0.001
0.001
0.001
0.001
0.001
0.001
0.0323009
0.001
0.0605107
0.0170658
0.001
0.001
0.001
0.00121396
0.001
0.001
0.001
0.001
0.00101
0.001
0.001
0.00132476
1.36478
1.32277
1.3912
1.35703
1.36948
1.39766
1.3984
1.44973
1.44479
1.48063
1.47456
1.4212
1.48063
1.44434
1.25446
1.25439
1.24556
1.25838
1.27255
1.28684
1.28632
1.29484
1.20421
1.20857
1.22752
1.21067
1.23877
1.24754
0.837746
0.768257
0.674197
0.755505
0.548068
0.642274
0.754006
0.764454
0.988959
0.98046
0.985424
0.922072
1.07761
1.12168
1.02583
0.986223
1.12578
1.12955
1.14148
1.13328
1.16589
1.19034
1.19274
1.19723
1.19168
1.19587
1.20175
1.20474
1.19532
1.20262
0.249392
0.231463
0.406982
0.476459
0.379219
0.303182
0.532601
0.474147
0.207929
0.237899
0.202881
0.123607
1.37187
1.40883
1.39106
1.41614
1.4366
1.42578
1.46286
1.47751
1.45434
1.46812
1.45869
1.47138
1.47313
1.49771
1.51893
1.53218
1.53334
1.58048
1.5554
1.61073
1.6113
1.49062
1.506
1.61103
1.62389
0.001
0.001
0.001
0.001
0.001
0.001
0.001
0.001
0.00101
0.001
0.001
0.001
0.001
0.001
0.001
0.001
0.00176171
0.001
0.001
0.001
0.001
0.001
0.112269
0.0208412
0.208708
0.204143
0.173854
0.120533
0.242174
0.287257
0.336935
0.333325
0.355036
0.345254
0.464457
0.410353
0.508636
0.504615
0.534481
0.531492
0.513392
0.567202
0.612458
0.582409
0.570617
0.590771
0.648123
0.63165
0.614347
0.660407
0.733744
0.738595
0.729941
0.754473
0.883427
0.798471
0.971505
0.995959
0.994523
1.06103
1.13743
1.213
1.22583
1.23412
1.28611
1.32947
1.36577
1.36452
1.40175
1.37333
1.42488
1.4453
1.43936
1.44873
1.44347
1.44589
1.41739
1.4394
1.41326
0.001
0.001
0.00610099
0.00102577
0.001
0.001
0.001
0.001
0.001
0.001
0.00105769
0.00126538
0.001
0.00126626
0.00126505
0.00126662
0.00126677
0.001
0.00126665
0.00594523
0.001
0.001
0.001
0.00214897
0.001
0.00214892
0.00214888
0.001
0.001
0.00100217
0.001
0.001
0.001
0.001
0.00105412
0.00105178
0.001
0.001
0.00100986
0.001
0.001
0.001
0.00166574
0.001
0.001
0.001
0.001
0.001
0.001
0.001
0.001
0.001
0.00100941
0.001
0.001
0.001
0.00100992
0.001
0.001
0.001
0.00101
0.001
0.001
0.001
0.001
0.001
0.001
0.00103734
0.001
0.001
0.001
0.00100949
0.001
0.001
0.001
0.001
0.001
0.001
0.001
0.001
0.001
0.001
0.0012209
0.001
0.001
0.001
0.001
0.001
0.001
0.001
0.001
0.001
0.001
0.001
0.001
0.001
0.001
0.001
0.001
0.001
0.001
0.001
0.001
0.001
0.001
0.001
0.001
0.001
0.001
0.001
0.001
0.001
0.00110142
0.001
0.001
0.001
0.001
1.66632
1.66052
1.67997
1.66287
1.67578
1.67513
1.51859
1.518
1.57338
1.54371
1.64007
1.66476
1.6406
1.53284
1.47831
0.576295
0.583124
0.579535
0.570075
0.579663
0.513555
0.556719
0.343622
0.400059
0.26565
0.263095
0.212605
0.212883
0.21437
0.001
0.001
0.001
0.00126467
0.0170044
0.212237
0.0423778
0.001
0.001
0.001
0.001
0.001
0.001
0.001
0.001
0.001
0.001
0.001
0.00101671
0.001
0.00101716
0.001
0.001
0.001
0.581651
0.58501
0.586959
0.58808
0.582071
0.29519
0.415026
0.353504
0.472657
0.534016
0.561164
0.492018
0.572444
0.527259
0.524222
0.5108
0.001
0.00114545
0.001
0.001
0.001
0.001
0.001
0.00101766
0.001
0.001
0.00101595
0.001
0.001
0.001
0.001
0.001
0.001
0.001
0.001
0.00101587
0.001
0.001
0.001
0.001
0.001
0.00100951
0.001
0.001
0.001
0.001
0.001
0.001
0.001
0.001
0.001
0.001
0.001
0.001
0.00117204
0.00101252
0.001
0.001
0.001
0.001
0.00100983
0.001
0.001
0.001
0.001
0.001
0.001
0.001
0.001
0.001
0.001
0.001
0.001
0.187497
0.120428
0.106017
0.0362772
0.0282733
0.001
0.001
0.00120704
0.001
0.001
0.00120532
0.001
0.001
0.001
0.001
0.001
0.001
0.001
0.001
0.001
0.001
0.001
0.0548587
0.001
0.001
0.001
0.001
0.001
0.001
0.001
0.001
0.001
0.001
0.00183155
0.00183389
0.001
0.001
0.001
0.001
0.00100972
0.001
1.32692
1.30587
1.34458
1.34608
1.33176
1.37614
1.38544
1.37638
1.40198
1.38291
1.48574
1.44897
1.41087
1.24297
1.24431
1.27283
1.25913
1.28842
1.28189
1.31536
1.29361
1.2044
1.21812
1.23557
1.22003
1.23212
1.24353
0.879065
0.80003
0.715865
0.759968
0.706351
0.611673
0.798706
0.754594
0.994132
0.985235
0.953793
0.99766
1.08522
1.12374
0.992661
1.03609
1.13211
1.12734
1.15261
1.13167
1.17516
1.19758
1.191
1.20523
1.17904
1.19727
1.19855
1.19953
1.18466
1.19113
0.23714
0.293981
0.478332
0.461564
0.382497
0.458769
0.473393
0.557706
0.229082
0.223273
0.215719
0.136215
0.001
0.0165162
0.100299
1.44064
1.44575
1.47448
1.46365
1.49195
1.50799
1.50349
1.50471
1.54258
1.52559
1.53695
1.49996
1.5288
1.54639
1.56302
1.57986
1.59146
1.59115
1.63958
1.64527
1.66548
1.64776
1.56481
1.567
1.686
1.68306
0.001
0.001
0.00101
0.001
0.001
0.00123503
0.00123492
0.001
0.001
0.001
0.001
0.00188697
0.0012765
0.001
0.001
0.001
0.00100232
0.001
0.001
0.001
0.001
0.0106398
0.0493682
0.0709614
0.0529946
0.152963
0.227691
0.10342
0.32471
0.266428
0.339077
0.335432
0.42378
0.36686
0.500201
0.516349
0.518984
0.521667
0.647033
0.618816
0.583352
0.643689
0.659047
0.653978
0.645917
0.644965
0.662238
0.648021
0.734222
0.776807
0.815354
0.775301
0.815037
0.847608
0.980864
0.920249
1.01084
0.994559
1.07942
1.14992
1.24503
1.23459
1.27345
1.30899
1.38104
1.37089
1.39389
1.39577
1.42525
1.43761
1.45179
1.44951
1.4592
1.46013
1.44777
1.45388
1.44456
1.4388
0.001
0.001
0.00102692
0.001
0.001
0.001
0.001
0.001
0.001
0.00126462
0.001
0.001
0.001
0.00126391
0.00126498
0.00126427
0.00126481
0.0012654
0.00126586
0.001
0.001
0.00100989
0.001
0.001
0.001
0.00100179
0.001
0.001
0.001
0.001
0.001
0.00101
0.001
0.001
0.00100863
0.00105213
0.001
0.001
0.001
0.00382517
0.001
0.001
0.001
0.00100996
0.001
0.001
0.001
0.00100983
0.001
0.001
0.00100647
0.001
0.00100976
0.001
0.001
0.001
0.001
0.001
0.00347261
0.001
0.001
0.001
0.001
0.001
0.00113454
0.00113442
0.00113444
0.001
0.001
0.001
0.001
0.001
0.001
0.001
0.001
0.001
0.001
0.001
0.001
0.001
0.001
0.001
0.001
0.001
0.001
0.001
0.001
0.001
0.001
0.001
0.001
0.001
0.001
0.001
0.001
0.001
0.001
0.001
0.001
0.001
0.001
0.001
0.001
0.001
0.001
0.001
0.00101
0.001
0.00104412
0.001
0.00118159
0.001
0.001
0.0011155
0.00105598
0.001
1.69145
1.71881
1.72644
1.68356
1.68398
1.66754
1.6809
1.56634
1.57516
1.59565
1.61261
1.61007
1.65007
1.67448
1.53055
1.55499
1.48228
1.51469
1.51156
0.574043
0.57683
0.478877
0.441935
0.535791
0.473624
0.477113
0.349794
0.373618
0.234167
0.213239
0.21303
0.211778
0.193165
0.001
0.001
0.130115
0.239927
0.0163443
0.001
0.001
0.001
0.001
0.001
0.001
0.001
0.001
0.001
0.001
0.001
0.001
0.00113059
0.001
0.001
0.001
0.001
0.001
0.001
0.542594
0.579615
0.560046
0.532817
0.30235
0.296676
0.320257
0.393756
0.508172
0.510793
0.463673
0.510042
0.50756
0.00100999
0.001
0.001
0.001
0.001
0.001
0.00131397
0.00131397
0.001
0.001
0.00102761
0.00100946
0.001
0.001
0.00100978
0.001
0.001
0.00180047
0.001
0.001
0.001
0.001
0.001
0.001
0.001
0.001
0.001
0.001
0.00137367
0.001
0.001
0.001
0.001
0.001
0.001
0.001
0.001
0.001
0.001
0.001
0.001
0.001
0.001
0.001
0.001
0.001
0.001
0.001
0.001
0.001
0.001
0.00170918
0.001
0.001
0.001
0.001
0.001
0.001
0.001
0.001
0.001
0.001
0.001
0.106096
0.0251388
0.0243058
0.001
0.001
0.001
0.001
0.001
0.00143401
0.001
0.001
0.001
0.001
0.001
0.001
0.001
0.001
0.001
0.001
0.001
0.001
0.001
0.001
0.001
0.001
0.001
0.001
0.001
0.001
0.0222724
0.001
0.001
0.001
0.001
0.00142396
0.00101
0.001
0.001
0.001
0.001
0.00100999
0.001
0.001
1.33676
1.34085
1.28973
1.36765
1.32626
1.36717
1.39105
1.37361
1.38607
1.44679
1.38785
1.47644
1.43845
1.50913
1.22703
1.24756
1.24225
1.26706
1.24596
1.2778
1.29915
1.26166
1.19702
1.21334
1.21255
1.22641
1.22616
1.22194
0.935549
0.84936
0.741305
0.765128
0.659685
0.757187
0.761605
0.825964
1.00099
0.999594
1.00312
0.973572
1.08842
1.13328
1.05943
1.00951
1.13363
1.13486
1.14323
1.16185
1.18262
1.17228
1.18306
1.20689
1.20754
1.18928
1.19236
1.19384
1.19158
1.19356
0.312753
0.231118
0.483577
0.496639
0.395159
0.500219
0.491375
0.587782
0.213264
0.218291
0.187877
0.174676
0.121994
0.215412
1.45398
1.47834
1.49911
1.53939
1.52603
1.55331
1.56444
1.57123
1.58058
1.56826
1.56801
1.59334
1.60992
1.62414
1.62559
1.6353
1.6569
1.67755
1.69277
1.68902
1.70558
1.57444
1.5623
1.72124
1.73807
0.001
0.001
0.001
0.001
0.001
0.001
0.001
0.001
0.001
0.00188683
0.001
0.001
0.001
0.001
0.001
0.001
0.00117504
0.001
0.001
0.001
0.001
0.00437022
0.0930828
0.0834491
0.001
0.154041
0.152989
0.243577
0.306744
0.272396
0.353035
0.298108
0.487663
0.411092
0.520635
0.516381
0.536602
0.597875
0.728923
0.728208
0.677398
0.702621
0.726806
0.673476
0.782225
0.716225
0.690199
0.722541
0.86567
0.868229
0.942383
0.989197
0.878151
0.961688
1.11008
1.05935
1.12984
1.09861
1.29462
1.26149
1.32431
1.3416
1.40802
1.42227
1.47588
1.44714
1.49235
1.47819
1.49657
1.5297
1.50206
1.53383
1.54123
1.49993
1.49027
1.52611
1.52493
1.50327
0.001
0.001
0.00101
0.001
0.001
0.001
0.001
0.001
0.001
0.001
0.001
0.001
0.001
0.001
0.001
0.001
0.00100968
0.00126596
0.001
0.001
0.00126523
0.0010035
0.001
0.001
0.00138148
0.001
0.001
0.001
0.001
0.001
0.00111273
0.00102224
0.001
0.001
0.001
0.001
0.001
0.00100967
0.001
0.001
0.001
0.001
0.001
0.001
0.001
0.001
0.00102407
0.00102421
0.00102451
0.001
0.001
0.001
0.001
0.00106118
0.001
0.001
0.00106106
0.001
0.001
0.001
0.00100996
0.00104479
0.001
0.00111502
0.001
0.001
0.001
0.001
0.00101
0.001
0.001
0.001
0.001
0.001
0.001
0.001
0.001
0.001
0.001
0.001
0.001
0.001
0.001
0.001
0.001
0.001
0.001
0.001
0.001
0.001
0.001
0.001
0.001
0.001
0.001
0.001
0.001
0.001
0.001
0.001
0.001
0.001
0.001
0.001
0.001
0.001
0.001
0.001
0.001
0.001
0.001
0.001
0.001
0.001
0.001
0.001
0.001
0.00118159
0.001
0.001
0.001
0.00111481
0.001
0.001
1.7471
1.72948
1.74847
1.71408
1.71048
1.73756
1.72196
1.70454
1.71986
1.57334
1.5947
1.58765
1.59084
1.6665
1.72354
1.73408
1.6285
1.50856
1.53454
1.51628
1.52051
1.50825
1.54916
1.44536
0.341608
0.438905
0.343273
0.383085
0.383472
0.289182
0.287891
0.293603
0.292626
0.293477
0.266675
0.190259
0.162746
0.0724941
0.0766522
0.195096
0.300203
0.001
0.001
0.00147822
0.001
0.001
0.00101
0.001
0.001
0.001
0.00101208
0.001
0.001
0.001
0.001
0.001
0.0013191
0.001
0.00115851
0.001
0.00107403
0.447461
0.373279
0.344405
0.437472
0.298705
0.324943
0.459779
0.390944
0.430786
0.512243
0.507049
0.00114109
0.001
0.001
0.00117088
0.001
0.001
0.00131442
0.0013142
0.001
0.001
0.00100995
0.001
0.001
0.001
0.001
0.001
0.00198355
0.00200284
0.001
0.001
0.00199003
0.001
0.00170957
0.001
0.001
0.001
0.001
0.0027436
0.001
0.00137347
0.00283653
0.001
0.001
0.001
0.001
0.001
0.001
0.001
0.001
0.001
0.001
0.001
0.001
0.00101
0.001
0.001
0.001
0.001
0.001
0.00114394
0.001
0.001
0.001
0.00147766
0.001
0.001
0.001
0.001
0.001
0.001
0.001
0.001
0.001
0.001
0.001
0.001
0.001
0.001
0.001
0.001
0.001
0.001
0.001
0.001
0.001
0.001
0.0013827
0.00137975
0.001
0.001
0.001
0.001
0.001
0.001
0.001
0.001
0.00151981
0.001
0.001
0.001
0.001
0.001
0.001
0.0015198
0.001
0.001
0.001
0.001
0.001
0.001
0.001
0.001
0.001
0.00110025
0.0955757
0.0233849
0.001
0.00101
0.00110078
0.001
0.00101499
0.001
0.001
0.001
0.001
0.001
0.001
0.001
1.28004
1.3342
1.28474
1.30748