/*--------------------------------*- C++ -*----------------------------------*\
  =========                 |
  \\      /  F ield         | OpenFOAM: The Open Source CFD Toolbox
   \\    /   O peration     | Website:  https://openfoam.org
    \\  /    A nd           | Version:  8
     \\/     M anipulation  |
\*---------------------------------------------------------------------------*/
FoamFile
{
    version     2.0;
    format      ascii;
    class       surfaceScalarField;
    location    "4260";
    object      phi;
}
// * * * * * * * * * * * * * * * * * * * * * * * * * * * * * * * * * * * * * //

dimensions      [0 3 -1 0 0 0 0];

internalField   nonuniform List<scalar> 
788991
(
-0.0765295
0.00485554
-0.0639236
-0.0602479
0.023387
-0.072446
-0.00600044
0.030121
-0.101064
0.0912322
-0.102519
0.110583
-0.024891
-0.103002
-0.11987
-0.0788958
0.0813305
0.0154536
-0.114601
0.0812318
0.05251
0.0254219
-0.0663355
0.0517814
-0.0236483
0.0671241
-0.141911
0.108465
0.166905
0.0149119
-0.0082279
0.0587437
0.0541808
0.0408573
0.0487133
-0.00472044
-0.00228947
-0.0121867
-0.0797436
-0.0300115
-0.0207147
0.00644444
0.0324399
-0.0387821
0.0674164
-0.0141619
-0.0432108
0.0683108
0.00736142
-0.088835
-0.0979168
0.0703338
-0.0586089
0.0405047
0.0573485
0.00819875
0.152927
-0.264049
-0.0630874
0.0542203
0.0363682
-0.0611708
-0.0978575
-0.0311073
-0.0761529
0.0763463
-0.0259882
-0.108793
0.0543302
-0.00263519
-0.0958672
0.0547328
0.27731
-0.195855
-0.0603503
-0.313103
0.123387
-0.0950766
-0.0315491
0.0821828
0.0819421
-0.0849405
0.037635
-0.042675
-0.0466023
0.0228234
0.0618262
-0.0493725
-0.0602471
0.038383
0.0440129
0.0243983
-0.0293409
-0.0266026
-0.0315926
0.0187874
0.0271742
0.00477928
-0.00645572
0.0157533
-0.00618337
0.0155648
-0.00207469
0.00119376
0.00383026
-0.0127455
-0.00892099
-0.00240937
-0.00567436
0.0113967
-0.00351402
-0.00727836
0.00453296
0.00552678
-0.00119478
-0.00939694
-0.00413192
0.0102458
0.0115961
-0.00923539
-0.00896456
0.00307566
-0.0146232
-0.00654731
0.0310773
0.0121022
-0.010775
0.0112032
0.0103441
-0.00940417
0.135047
0
0
0
0
0.060598
-0.0794713
-0.241263
0.0798493
0.0173866
0.202166
-0.0922101
-0.0613753
0.16556
0.223704
0.0670284
0.0954745
0.227919
-0.0558729
0.0159151
0.134601
0.0879543
-0.0120666
0.0937985
-0.0875315
-0.0543905
0.0730161
0.011191
0.0129499
0.00122729
-0.00424265
-0.00719755
0.0166612
0.00555114
0.00130276
-0.0106543
-0.00602828
0.0113182
0.00608087
0.00561034
0.000230577
-0.00932001
0.00762016
0.0179287
-0.0040233
-0.00137174
0.0185233
0.0154551
0.0283457
0.00834816
0.0124273
-0.0128248
0.0165559
0.01301
0.000864998
-0.00424499
-0.00768926
0.0210255
0.0217792
0.0161227
0.00214593
0.0164813
0.0057555
0.00826688
-0.030587
0.00902901
-0.037565
-0.00420283
0.0255041
0.00163752
0.0109059
0.0227772
-0.0146405
-0.0146402
-0.00520873
-0.00962079
0.0237764
0.00801357
0.00201848
-0.00378988
-0.0133396
-0.0331588
-0.00119322
0.050589
0.0558923
-0.00177853
0.052432
0.0602799
0.0431986
0.0176066
0.00961578
0.00777645
0.0178958
0.00599756
-0.0144918
-0.00524263
0.000695777
-0.016917
-0.0056616
-0.00470879
-0.00944534
-0.00105696
0.00851452
-0.0161902
-0.0027625
-0.012021
0.00238281
-0.015794
0.00288845
-0.000160634
0.0157051
-0.0114576
0.0175661
0.0199328
0.00891395
0.0256657
0.0365981
-0.00165049
0.0317648
0.0192954
-0.00174121
0.0338826
0.024359
-0.00624342
0.0326106
0.0156488
-0.00578563
0.0169994
0.0173857
-0.00253056
0.0238921
0.0304174
-0.0123066
-0.0113353
0.0129763
0.0165631
0.00866127
0.0172669
0.00285004
0.0203817
0.0280205
0.0184861
-0.00213839
0.0375691
0.0092241
0.00805487
-0.00843086
-0.00370787
-0.00660365
-0.00451448
-0.0183135
0.0308074
-0.0267657
0.0558371
-0.0620031
0.0105443
-0.0380062
-0.0902095
0.0595067
-0.0496041
-0.0694024
-0.0499476
0.0113935
-0.0499087
0.0931231
-0.144008
0.0625657
0.0148592
0.0283735
-0.0265091
-0.0585839
-0.0260193
-0.053307
-0.0281693
-0.0382871
-0.0044004
0.00877603
-0.0220808
0.0552124
-0.689335
0
-0.146816
0.0159467
0.4516
0.263774
0
0
0
0
0
0
0
0
-0.0261122
-0.0865963
0.0644357
0.0165751
-0.0840595
0.0958069
-0.0662701
-0.0150894
0.0598162
-0.0148027
-0.00367724
-0.0163547
0.00322444
0.0113882
0.014795
0.0109563
0.0042591
-0.010753
0.018358
0.00107726
0.000460235
-0.00110993
0.01615
-0.00269563
-0.0250165
0.0154418
-0.026687
-0.0030709
0.0165581
-0.00871116
-0.0180821
0.00225312
-0.0274364
0
0
0
0
0
0
0
0
-0.0211918
0
0.018317
-0.132703
-0.0492594
-0.0761695
0.175286
-0.104699
-0.0445693
0.145084
0.197043
0.0848587
0.0560181
0.201479
0.104389
0.00703191
0.14916
-0.111269
-0.0760298
0.111546
0.127253
-0.0252919
-0.000885607
-0.0311314
-0.0233073
0.00895677
0.0277059
-0.00989646
0.00995709
-0.0208343
-0.00428908
0.0121298
-0.0217884
0.0115452
0.010349
0.00623082
-0.00730479
-0.0118185
0.00622784
-0.06866
-0.0326961
0.0190179
-0.0339189
0.0101463
-0.0110799
0.0138691
0.000915394
-0.0224324
0.0695497
-0.0268282
-0.0113644
0.033977
-0.00894879
0.0381775
-0.0166367
-0.0353975
-0.0379717
-0.0186637
-0.000858999
-0.0434111
-0.00645028
-0.014208
-0.0142609
-0.00742225
-0.0190788
-0.0187672
-0.0232763
-0.00234485
-0.0494413
0.008224
0.00787818
0.00152705
0.0360645
-0.0204287
-0.000200705
0.0250092
0.00257264
-0.0191289
-0.0384743
0.0391468
0.0290725
-0.0272452
0.00978575
0.0221103
-0.0159226
0.000853249
0.0109307
0.00171914
-0.00627592
0.00459099
-0.00767219
-0.0237413
-0.00289229
0.0176408
-0.0248304
-0.00529833
0.00162982
-0.00360605
-0.0317393
0.00203436
0.00419484
-0.0143505
0.0189993
-0.0253624
0.0248662
-0.0273701
0.0276927
0.0349792
-0.0166761
0.0249577
0.0313413
0.0114016
0.0286383
0.0138887
-0.00829325
0.0268226
0.0202632
0.00325515
0.0203553
0.0222064
-0.00402702
0.00768809
0.0263863
-0.00479802
-0.000979495
0.0195449
-0.00897371
0.0173989
0.0405758
0.0281218
0.0230617
0.0551151
0.010435
0.0308552
0.0315017
-0.00169489
0.0474721
0.0219581
0.0032039
0.026975
0.0511544
0.0225839
0.022563
0.00255351
0.00294471
-0.000514224
-0.0298233
-0.0231006
-0.0219262
-0.00367577
-0.0365989
0.0137351
-0.00637641
0.0592126
-0.0143284
0.0280499
-0.0211568
0.0211191
0.0333597
0.0313252
-0.00321311
-0.017349
-0.0339209
0.0462011
-0.00195753
-0.0438207
-0.024358
0.0332891
-0.0447108
0.0484577
0.0310747
-0.00278926
-0.0358545
-0.0162473
0.0127724
-0.0370081
0.0892155
0.0666508
-0.11087
0.00627763
-0.119861
0.110016
0.199183
-0.0418325
-0.0132817
-0.0465321
0.00877786
-0.0206784
0.0532868
-0.00856545
-0.0336913
0.0411475
-0.0390717
0
0
0.0344685
0
-0.0133636
0.112528
-0.00220746
-0.0549916
0
0
0
0
0
0
0
0
0
0
0
0
0
0
0.00765968
-0.0833394
0.0822885
0.0466098
-0.0796108
0.102883
-0.0348577
0.00341129
0.044323
0.0024711
0.0186163
0.0233465
-0.00392712
0.0260558
-0.0128291
0.00731772
0.00402849
0.00594687
-0.00941046
0.0187816
-0.000358323
-0.00674908
0.0148986
0.0266441
-0.0107982
0.0200275
-0.0135374
-0.0118908
0.00261525
0.0205604
-0.0182997
-0.00411168
0.0258897
-8.14427e-05
0
-3.1015e-05
0
0
-1.13989e-05
0.000104003
0.000191382
1.90726e-05
1.56619e-05
0
-7.00422e-05
0
0
0
0
6.55496e-05
0
0
-4.37569e-06
0
0
0
0
0
0
0
0
0.00867765
-0.0138494
-0.136911
0.00245262
-0.0386506
-0.129625
-0.0504509
0.0564546
0.0796164
-0.0880236
0.0418338
0.0664317
0.120483
-0.0853279
0.0314047
0.139424
0.0979187
-0.013447
0.123567
0.100386
-0.0548082
0.0810019
0.0998668
-0.0187338
0.00931073
0.0394737
-0.0263238
0.00836297
-0.0271762
-0.0472738
-0.000633296
0.0177427
-0.0198036
0.00214067
-0.0408262
-0.00388034
0.00114497
-0.00793541
0.0265988
0.000301997
-0.00907448
-0.0121161
-0.02502
0.025023
-0.00887323
-0.0103035
0.0201984
-0.0580142
0.0251933
-0.0438701
-0.101084
0.0350278
-0.0135603
-0.0501578
-0.0540181
0.0326463
-0.0068787
-0.0117481
-0.0544443
-0.0270375
-0.00327187
-0.00976916
-0.00110806
0.0140285
0.000358448
-0.00247982
-0.018382
-0.0323357
0.000732311
-0.0611662
-0.0419149
0.02267
-0.0423093
0.010282
0.0108449
0.0403505
-0.0908451
-0.0402374
0.0361104
-0.00941675
-0.0270325
-0.0435582
-0.0493977
-0.0543434
-0.0214429
-0.0453994
-0.00631578
-0.00224997
-0.00205931
0.00737593
-0.00563448
0.00980767
0.0130156
-0.013345
0.0306316
0.0340151
-0.0154829
0.0120562
0.000613801
0.00122418
-0.00146912
-0.00154924
-0.0121233
-0.0226372
0.0100254
-0.0176256
-0.023351
-0.0115414
0.010441
-0.0182716
-0.0201948
-0.00985128
0.0223342
-0.00378454
0.0105444
0.00711208
-0.0103549
-0.0601336
0.0454351
0.0398395
-0.0326621
0.0342981
0.0128093
-0.0115145
0.0205858
0.0267861
0.0190681
0.0134794
0.0254838
-0.00326187
0.0135379
0.0125338
-0.0163893
0.00195318
0.0261592
-0.0108334
0.00816915
0.0264559
-0.0247311
0.0503195
0.0513214
0.0551929
0.0406452
0.0621985
-0.0221579
0.0148068
0.029938
3.97421e-06
0.0255267
0.0178323
0.00581477
0.020065
0.0141568
0.00673136
-0.00733882
0.0253047
-0.0318583
0.0249614
0.0231529
0.0181572
0.0649629
0.00857715
0.0131075
0.0409806
0.0685021
-0.015619
0.0465727
0.0282625
-0.0217151
0.0565755
0.0134765
-0.0323013
0.0622085
-0.0112134
0.049494
0.0735102
0.0420354
0.00658478
0.0316778
0.00181554
-0.0213496
0.0337628
0.0149806
0.028568
-0.0274998
-0.0395595
0.0317357
-0.010051
-0.0439951
0.0188565
0.00776734
0.00076613
-0.0366588
0.00436904
-0.0419951
-0.115381
0.0511245
0.0395483
-0.0494046
-0.010171
0.0115271
0.0233698
-0.0551613
-0.0252143
-0.0121452
-0.0117304
0.0243125
-0.0244113
-0.0542201
-0.0212647
0
0
0
0
0
0
-0.031092
0.0156003
0.0357904
0
0
0
0
0
0
0
0
0
0
0
0
0
0
0
0
0
0
0
0
0
0
0
0
8.68558e-05
0
-4.97195e-05
0
-2.31334e-06
-1.04395e-05
6.0392e-06
0
-4.84035e-06
2.04132e-06
3.71902e-06
0
2.60589e-07
0
0
0
0
0
0
0
0
0
0
0
0
0
0
0
0
0
0.0216478
-0.0400803
-0.0652911
0.0464196
-0.0343388
0.0733098
-0.00149015
0.0298745
0.035403
0.00693182
0.0363815
-0.0176056
0.00660539
0.0190247
-0.0102623
-0.000299855
0.0191003
0.00416514
-0.00216398
0.0127428
-0.00981542
-0.00528203
0.0191065
-0.00764112
-0.00436076
0.00235606
0.0172226
-0.00831149
0.00903748
-0.00616515
-0.0164151
-0.0131014
0.00950178
0
0
0
0
0
0
0
0
0
0
0
0
0
0
0
0
0
0
0
0
0
0
0
0
0
0
0
0
0
0
0
0
0
0
0
0
0
0
0
0.000171464
0.000227254
0
0
0
0.102231
0
0.0120425
-0.0443111
0.0364248
-0.0170969
-0.111868
-0.00644316
-0.0530498
-0.137396
-0.0574054
-0.0372605
-0.0008594
-0.0919971
0.0335074
0.0321018
0.029868
0.048402
0.0198955
0.0879632
-0.0554838
-0.00988602
0.0657933
0.0559007
-0.0201041
0.0443828
-0.0449979
0
0
0
1.58421e-07
0
0
0
0
0
0
0
0
0
0
0
0
0
0
0
0
0
0
-0.0175587
0.0177184
0.0249891
-0.0226194
0.00503157
0.0087783
-0.0335648
0.00478116
-0.00695921
-0.0572973
-0.0227708
-0.0348798
-0.0785216
-0.0575229
-0.000740413
-0.0134966
-0.0176276
0.0208805
-0.049161
0.00226367
0.00700347
-0.0175744
-0.0586106
-0.00691229
-0.066831
-0.0262715
-0.00779693
-0.0533429
-0.0776372
0.017114
0.0375654
-0.0299443
-0.0391161
-0.0373839
-0.0454995
0.0214373
-0.00824134
-0.0184451
-0.000645935
-0.00770788
-0.0211927
-0.0212848
-0.0175673
-0.0147508
0.00384431
-0.0554939
-0.000865618
0
-0.0528702
0.105411
0.0116932
-0.0480853
0.0290123
-0.0484546
-0.0876145
-0.0514653
0.0355485
-0.0893503
0.104846
-0.0575114
0.00579528
-0.0785157
-0.0599484
0.0623654
-0.0946476
-0.0357934
0.0396656
-0.00227836
-0.0136544
0.0384563
-0.0717322
-0.0472363
0.0354764
-0.00191944
0.00352187
0.105314
-0.0391985
0.00943356
-0.0243634
0.0466503
-0.0094656
-0.00794427
0.00999472
-0.00248341
-0.00245395
-0.0055699
-0.00154046
-0.0033271
-0.0166685
0.0118281
-0.00303406
-0.0404316
-0.0110957
0.00988554
0.0233004
-0.026048
0.0140407
-0.0379376
-0.0101335
-0.00557851
0.0464962
-0.0459979
0.020729
-0.00485584
-0.0172301
-0.0358886
0.0716637
0.0285587
-0.015545
0.0254336
0.0312948
-0.00850939
0.0133025
0.0561203
0.00200941
0.00791661
0.0267556
-0.0179294
-0.00674258
0.0142033
0.0344569
-0.00339901
0.0431006
-0.0452674
0.0337339
0.06767
0.0586021
0.0278121
0.0645796
-0.0424481
0.0216641
0.0394005
0.0113054
0.0177748
0.0115471
0.00679259
0.0309464
0.020371
0.00155601
0.0233095
0.0153617
-0.0221743
0.0155196
0.0557602
-0.00566947
0.0248282
0.0270341
-0.00911715
0.0281316
0.0409978
-0.018267
0.0089377
0.0189736
-0.0159392
-0.00135889
0.0376162
-0.0123783
0.0447083
0.00676423
-0.0356619
0.0540219
0.0181376
-0.0459026
0.0887891
0.000299414
-0.0438945
0.102737
0.0290116
0.0664359
0.129427
0.0476989
0.0497665
-0.0697646
0.0579372
-0.0768461
0.110082
-0.0554423
0.0432315
0.085327
0.0313451
0.104797
0.0323174
-0.0512351
0.0630043
-0.042888
-0.0207199
0.0420765
-0.0394378
0.0502974
-0.0293966
0.0212422
0.0305993
-0.0296795
0.0302633
-0.0336043
0.00227692
0.00544609
0.0390319
-0.00433596
-0.0396109
-0.0434821
-0.0176769
-0.0486149
-0.0102996
-0.0498624
-0.0615491
-0.0453402
-0.0370331
-0.0115686
-0.0394495
0.0670545
-0.0443903
-0.029061
-0.0312332
-0.00725334
0.0417138
-0.026764
0.0247509
-0.0236616
-0.0564465
0.0205354
0.000213288
-0.00188293
-0.0155654
0.0171153
0.0363225
-0.00965879
-0.018652
-0.0524468
0.0233831
-0.0226066
-0.0515907
-0.0684255
0.0344595
-0.0190249
0.00772149
0.0502418
-0.0561196
-0.0219117
0.0630455
-0.0482321
-0.0369873
0.113743
0.0372487
-0.0631136
0.0015085
-0.0300288
-0.0300622
0.0345061
0.0250228
0.00701554
0.0420351
0
-9.71368e-05
1.49117e-06
-0.0195178
0
0
0
0
0
0
0
0
0
0
0
0
4.14446e-05
0.000106396
0
0
0
-9.58799e-05
0
0
0
0
0
0
0
0
0
-2.79186e-05
-0.000148126
0
0
0
0
0
0
0
0
0
0
0
0
-6.40265e-07
0
0
0
0
0
-2.45366e-05
0
0
-0.000177291
4.46127e-05
-3.94953e-05
0
0
0
-6.44693e-05
0
-0.000198909
-9.59308e-05
-1.51595e-05
-8.30553e-05
-0.000157304
-0.000255746
-9.1686e-05
-0.000133394
-9.33319e-05
-0.000182921
-0.000121876
-7.59286e-06
-9.31987e-05
0
-9.53682e-05
-0.000136986
0
-6.60288e-06
0
0
0
0
0
0
0
0
0
0
0
0
0
0
0
0
-0.000185614
0
9.36846e-05
0
-9.21894e-05
0
0.0417265
0.0112091
0.0357018
0.0309991
0.0155621
-0.0149555
0.0241277
0.0469775
-0.0130239
0.0192429
0.0294776
0.00594811
0.0160918
0.034149
-0.00311225
0.00509932
0.0178794
0.00827179
0.00396317
0.011819
-0.0114495
-0.00827026
-0.00844391
0.0231146
0.00575126
0.00422807
0.00985605
-0.00327265
-0.00502758
0.00858019
-0.0116102
-0.00880637
0.0077102
0
0
0
-2.19206e-05
-0.000133673
6.01148e-05
0
0
0
0
0
0
1.79913e-05
0
0
0
0
0
0
0
0
0
0
0
0
0
0
0
0
0
-5.57994e-05
0
0
6.37916e-05
7.1505e-05
4.52876e-05
0
-6.05119e-05
0
0.0325685
0
0.0206097
-0.048065
-0.0221332
0.0109754
-0.0962438
-0.0174893
0.0237317
-0.122082
-0.0727054
0.0210754
-0.0245195
-0.0747305
0.000615466
0.0318026
-0.0176083
-0.00260038
0.0153754
0.041047
-0.0101447
0.00521601
0.0191533
0.00991546
0.0171074
-0.00415208
0.0175382
2.61488e-05
0
0
1.08763e-06
0
2.50047e-05
0
-1.18188e-06
0
1.15592e-07
0
2.73524e-06
-1.96851e-06
0
0
0
0
0
0
-1.67156e-05
0
0
0.000226596
0
0
0
0
0
0
0
0
0
0
0
0
0
0
0
-0.000735943
-0.00184344
-0.0200351
-0.0088626
0.00589611
-0.00242427
0.0246633
0.00653554
0.000396752
-0.00180611
-0.0133508
-0.0402573
0.00275489
-0.0158158
0.0146493
0.0095176
0.0105849
-0.00458427
-0.0352048
-0.0396082
-0.0149958
-0.0720782
-0.00667292
0.0403773
0.0251948
0.0195466
-0.0318891
-0.0617194
-0.053753
-0.100095
-0.0517086
0
0
-0.0238073
0
0
-0.00780878
-0.0096134
0
0
0
0
0
0
0
-3.30029e-05
0
-2.86211e-05
-0.0749317
-0.121961
-0.0355011
-0.0751202
-0.100897
-0.0364518
-0.0531197
-0.107274
-0.0257917
-0.090891
-0.0607702
0.00472613
-0.0546194
-0.0670244
0.0294084
-0.0598978
-0.0920857
-0.0548371
-0.0537319
-0.0383209
-0.00968547
-0.0413515
-0.0278197
0.014269
-0.0130575
-0.0262017
0.0164671
0.017146
-0.0351908
0.0462915
0.0202916
-0.0369513
-0.0534259
0.00394525
-0.0463586
-0.0342337
-0.029443
-0.0198797
0.0165188
-0.00441304
-0.0200812
-0.0343982
-0.00184925
0.01433
-0.102867
-0.0514205
-0.0798982
-0.0961906
-0.0702098
0.0461578
-0.0311086
-0.00851232
0.0242017
-0.0901053
0.0110759
-0.0312597
-0.0167776
-0.0616481
0.092114
0.00941161
0
-0.0104744
0.0334691
-0.00603121
-0.0135252
0.0110078
-0.00710922
0.00352696
-0.00928755
0.00943732
-0.00760126
-0.0404842
0.00771567
-0.010067
-0.0140668
-0.00156936
0.00101867
-0.0240427
-0.00480816
-0.0152677
-0.0259801
-0.00568006
0.00543054
-0.0133533
0.00897524
0.131566
0.0135155
0.05607
-0.18626
0.00451279
0.0413295
-0.0359074
0.029689
0.0771858
-0.0330423
-0.00455529
0.05851
-0.0674081
0.00160393
0.0393762
0.0567974
0.00854376
0.0506281
-0.049901
0.0154421
0.084681
0.0507139
0.0159823
0.0587205
-0.0423918
0.00754183
0.0367767
0.0133502
0.0140714
0.0294575
-0.00249028
0.0235173
0.026182
0.0157982
0.0220689
0.0127878
0.0100546
0.0500788
0.0318814
-0.0149582
0.0416321
0.0111308
0.0010761
0.0384487
0.0164293
0.0155547
0.0464737
0.0111175
-0.0099454
0.0235855
0.0672397
-0.0245068
0.0102232
0.00548458
0.0177133
0.0638874
0.0296088
-0.0420628
0.0505667
-0.0179435
0.0576676
0.0674652
-0.00439094
-0.0431104
0.0981139
0.0317375
-0.0401989
0.0500388
0.0384987
0.0913471
0.0922333
0.0415163
0.0507963
0.0833125
0.0569315
-0.0450544
0.0607615
0.0446494
-0.035651
0.0358642
0.0157738
-0.0413683
0.0248688
-0.0122985
-0.0429631
0.00979636
-0.0209912
-0.0408222
0.00643906
-0.00776666
-0.0210911
0.00306725
-0.00119033
0.0152698
0.0108081
-0.00163972
-0.00523599
0.0163494
0.011901
0.0172809
0.000295869
0.011721
-0.000823994
0.0174167
0.0155613
-0.00395478
-0.00695467
0.00444307
0.032084
0.0158966
0.0118161
-0.0136157
0.0246388
-0.0375353
-0.0111019
-0.00247074
-0.0063258
0.0270952
0.0187551
-0.00802369
-0.0287163
0.0242084
0.0220921
-0.00095345
0.0357848
-0.0183767
-0.0338503
0
-0.00374716
0
0.0284044
0.0560983
-0.011678
-0.1697
0
0
0.00811088
0
-0.0713305
0.00343219
0.075128
0.00971509
-0.0615955
-0.0305446
0.00372569
0.0192807
-0.0130276
0.0641622
0
0
0
0
0
0
5.23937e-05
5.33101e-05
2.43122e-05
0
0
0
-4.53859e-05
0
0.000133443
0
-5.97378e-05
0
0
0
0
0
0
0
0
-1.20907e-05
-6.28383e-05
0
0
0
0
-0.000195641
0
0
0
0
0
0
0
0
-1.56604e-06
-3.62278e-06
0
0
0
0
-6.49725e-05
-2.72228e-05
0
0
0
-0.000100264
-1.90299e-05
0
0
0
0
-3.77545e-05
0
0
-0.000124466
0
0
0
0
0
0
0
0
-0.000152624
0
8.61082e-05
-5.99864e-05
0
6.1286e-06
0
-5.37633e-05
0
0
0
0
0
0
0
0
2.05882e-06
0
0
0
0
0.0326535
0.0313511
3.11336e-05
0.0102026
0.0147515
0.00572418
0.0243444
0.0327664
0.000689646
0.01347
0.0192852
-0.00620548
0.0181979
0.0206837
-0.00608676
0.0240889
0.0186267
-0.00228867
0.0147764
0.00734576
0.0042381
-0.00412372
-0.00891046
0.00541569
0.00378785
-0.00441789
-0.0165844
-0.000252851
0.00664286
0.0116968
0.00416433
-0.00970894
0.00524035
-0.000301234
0
-8.20266e-05
0
-0.000154524
-9.04002e-05
0
0
0
0
0
0
0
0
0
0
0
0
0
0
0
0
0
0
0
0
0
0
0
0
-9.80025e-05
0
0
0
0
0
0
0
0
-0.0051814
0.00522903
0.0448866
-0.0659777
0.0213919
0.0260379
-0.0939574
-0.0455726
0.028905
-0.0965634
-0.0796216
0.00931832
-0.0121338
-0.0651022
0.0213945
0.0302353
-0.0292656
-0.031784
0.0169439
0.00468538
-0.0200117
0.0112422
0.0177382
-0.0166995
0.000739058
9.66693e-06
0.00705321
0
0
0
0
0
0
0
0
0
0
2.28315e-06
0
0
0
0
0
0
0
0
0.000194234
0
0.000122677
0
-7.70915e-05
0
0
0
1.07904e-05
0
-1.7753e-06
0
7.0717e-06
-7.92172e-06
0
0
0
0
0
0
0
0
0
7.1016e-05
0
0
-0.00303665
0.00980504
-0.00922132
0.00740538
0.00157305
0.00649134
-0.0276104
-0.0117004
0.0142554
0.0269206
0.0230891
0.00507067
-0.0308577
-0.00804876
-0.037428
-0.0133722
-0.0241014
-0.0275437
0
0
0
0
-0.000851827
-0.00102526
0.000799009
-0.0409516
-0.00118967
0.0276631
-0.039464
-0.01358
0.00197996
-0.0199989
-0.0539045
0.0132034
0
-4.43402e-06
0
-0.000561747
0
0
0
0
0
0
0
0
0
0
0
0
0
0
-0.0283065
-0.0207236
-0.00331807
-0.0204602
0.0161427
-0.000551613
-0.0281871
-0.00961127
0.0187632
0.0249053
0.00862129
-0.0101402
-0.0283931
0.0407172
0.0349535
-0.00143497
0.0143221
0.0239167
0.00771613
-0.0214337
0.0181821
0.014847
-0.0024307
-0.0247653
0.0223551
0.00689323
0.0154423
0.00703869
-0.0266287
0.0272265
-0.010606
0.00497869
-0.023927
0.00392217
0.0172735
-0.00225804
-0.0163128
-0.0156087
0.0123633
-0.0186295
-0.00193971
-0.0341421
0.00545654
0.0231254
0.0353296
-0.0683861
-0.0974697
-0.0217013
-0.0798738
-0.104016
-0.047442
-0.0642061
-0.107424
0.00382537
-0.086334
-0.0770861
0.00274038
-0.0518672
-0.0565927
0.0307389
-0.0667638
-0.0834794
0.0381014
-0.0511601
-0.0405199
0.0217516
-0.0121201
-0.0220514
-0.00673978
-0.00273184
-0.0265078
-0.0223216
-0.00350909
-0.0327597
-0.0260759
-0.0160527
-0.0422909
-0.0185867
-0.0298876
-0.041406
0.000723215
-0.0280459
-0.0124777
-0.00746938
-0.0309398
-0.01566
0.0186109
-0.0305587
-0.116297
-0.048319
-0.0856832
-0.0580813
-0.0958827
0.00612811
-0.0961827
-0.0592127
-0.0391267
-0.027587
-0.0288754
0.0146529
-0.0182244
-0.0574065
-0.00393958
-0.00793566
-0.00472489
-0.00148606
0.0178358
-0.0156049
-0.00233759
-0.0187208
-0.0162475
0.00292192
0.027896
-0.0152119
0.0124445
0.0210691
-0.0305463
0.00858142
0.0228631
-0.0422119
-0.0129521
0.0237834
-0.0315116
-0.0201986
0.0263063
0.000642945
-0.00766654
0.0108371
0.0355525
-0.0397369
-1.9317e-05
-0.00043683
-0.0392777
-0.0139913
-0.00837886
-0.0258499
-0.00848141
0.00765851
-0.0287408
-0.0152905
0.00976013
0.00382986
-0.00595561
-0.0350708
0.0300686
0.0146135
-0.0192553
0
-0.0116519
0
0
0
0
-0.0199676
0
0
0.0328966
0
-0.0112408
-0.00984908
0.0223575
0.0052691
-0.056889
0.0191604
0.111829
-0.00968802
0.0418531
-0.0775607
0.014479
-0.00636526
-0.000373965
0.013948
0.0242323
-0.0292127
0.00539919
0.0359111
0.0125875
-0.0008819
0.0222573
0.0103236
-0.00281252
-0.00135438
-0.00126092
0.0280777
0.0164393
-0.0318518
0.0262048
0.054269
-0.00580418
0.0336038
0.0228702
0.00797184
0.0367004
0.014628
0.010672
0.01111
-0.0030735
0.01046
0.0300706
0.0208762
-0.00767128
-0.00126706
0.0119891
-0.0115939
0.0172232
0.0384692
-0.00326778
0.0185859
0.0395413
0.0143378
0.0285022
-0.00414932
0.0516758
0.0439635
0.0209978
-0.0553571
0.0723306
0.0223701
-0.0342092
0.0415391
0.0371985
0.0981867
0.0982741
0.0396521
0.0540466
0.093893
0.0669633
-0.0490979
0.0698572
0.0502063
-0.0413344
0.031177
0.02004
-0.0351959
0.0185809
-0.0108338
0.0314184
0.0235406
-0.0128586
-0.0311866
0.0200935
0.00474642
0.0134258
0.016284
0.016534
0.00039782
0.0105614
-0.000612313
0.000222485
0.0128159
0.0299875
-0.0122031
0.00131706
-0.00718807
-0.00263998
-0.00762231
-0.00158131
-0.0157663
-0.0716382
-0.0304814
0.0323351
-0.0564993
-0.081332
0.0161073
0.0213643
-0.0308469
-0.000160746
-0.00555978
-0.0776291
0.0641856
-0.0617224
-0.0926398
0
0
0
0
-0.000671017
0
0.000147987
-0.103895
-0.102748
0
0
-5.50116e-05
0
-0.0385121
0
-0.0264078
-0.0736658
-0.0761733
0
-0.13378
0
0
0
0
0
0
8.73113e-05
0.000123487
-3.94512e-05
8.67788e-05
0
7.51573e-05
5.02674e-06
4.11781e-05
9.0149e-06
0
0
0
0
0
0
0
0
0
0
0
0
-0.000101636
0
-0.000262515
0
0
0
0
0
0
0
0
0
0
0.00327768
0.00208312
0
0
0
0
0
0
-3.78162e-05
0
0
0
0
0
0
0
0
0
0
0
0
-1.98602e-05
-4.77554e-05
-2.41357e-05
0
-1.78251e-05
0
-4.19475e-05
0
0
0
0
0
0
0
0
0
0
0
0
0
0
0
0
0
0
0
0
0
0
0
0
0
0
0
0
-5.5817e-05
0
4.7534e-05
0
0
0
-0.000226869
0
6.66905e-05
0.0359623
0.0237561
0.00802645
0.0444416
0.0339145
-0.0421142
0.0287131
-0.00323332
0.0127285
0.0160142
0.00926273
-0.00533539
0.0086844
-0.00718369
0.0285285
0.0135388
0.000455289
0.0216769
0.0255672
-0.0174157
0.0167419
0.00504655
-0.0128736
0.0246048
0.00968098
-0.00496334
0.00967688
0.00892815
-0.00887255
-0.00573676
-0.000457932
-0.0080053
-0.00072588
-0.0161483
0.00445602
0.00317565
0.0100864
1.97464e-06
0
0
0
0
0
0
0
0
0
0
0
0
0
0
0
0
0.000168541
0
0.000106385
0.0484897
0.0230222
0.034086
0.0462984
0
0
0
0
0
0
0
0
0
0
0
0
0
0
0
-0.0124536
0
-0.0613332
-0.0149259
-0.00927121
-0.067671
-0.0445161
-0.00168466
0.0120899
0.0198266
-0.0210514
-0.00182502
-0.0540733
-0.062396
-0.0158729
-0.000841067
-0.0524973
-0.0351655
0.0261642
-0.0193728
0.0426911
0.0169697
-0.0199863
-0.0267901
0.0155433
-0.00579796
0
0
2.03105e-05
-3.74445e-06
0
0
0
0
0
0
0
0
0
0
0
0
0
0
0
0.0290587
0
-0.0731765
0
-0.0442556
0
0
0
0
7.80615e-06
1.99152e-05
0
0
0
0
0.000132634
5.11223e-05
2.63954e-06
0
0
0
0
0
0
4.76639e-05
-1.96421e-05
0
0
0
0
0
0
0
0
0
0.01899
-0.0177087
-0.0207677
-0.00349822
-0.0225103
-0.0214352
-0.0269109
0.0347422
0.0366968
0.0149962
-0.0262034
-0.0253742
0.013824
0
0
0
0.013215
0.0497417
-0.0341668
0
0
0
-8.27634e-05
0
3.5789e-05
0
0
0
-0.0213863
0
0
8.83648e-05
0
-0.0339601
0.00424903
-0.0254822
-0.0155942
0
0
0
0
0
0
0
-4.68711e-05
0
0
0
0
0
0
0
0
0
0
0.013415
0.0217179
-0.000484689
0.0249393
0.00930502
0.0272622
0.0474577
0.0208691
-0.00860025
-0.0248825
0.0264506
0.00373111
0.0110651
0.0252244
-0.0242695
0.015998
0.0299364
0.0238963
0.021979
0.0263184
0.00124233
0.0291261
0.0288914
0.00937297
-0.0142239
0.00244846
-0.00647415
-0.0165281
0.00112769
0.0206584
-0.00965687
0.0216776
-0.0378227
-0.0873978
-0.0934612
0.00664037
-0.0818534
-0.0937216
0.0397553
-0.0860223
-0.0901305
0.0140612
-0.0724128
-0.0845983
-0.0130722
-0.0590835
-0.0651361
0.0293494
0.00397393
-0.0791982
-0.0573644
0.00235671
-0.0380628
-0.00972807
0.0155836
-0.0398189
-0.0287791
0.0103825
-0.00266009
-0.0214373
-0.0234513
-0.00718913
-0.0233931
-0.0282612
-0.0216396
-0.0229851
-0.0285117
-0.0468801
-0.0378803
-0.00716689
-0.0551113
-0.0484147
-0.0207334
-0.0266292
-0.0129207
-0.011418
-0.0231368
-0.0324149
0.0118726
-0.0621216
-0.0595279
-0.00153393
-0.05134
-0.101416
0.0282868
-0.09213
-0.0979077
0.0409648
-0.0946486
-0.0687182
0.0182741
0.0330643
-0.0540117
-0.0417001
-0.0100196
-0.0401198
0.00303253
-0.00856486
-0.00907455
-0.0132522
-0.0112561
-0.0136172
0.00107658
-0.0160343
-0.022136
0.0252114
0.00523278
-0.0177652
0.00619039
0.0281206
-0.0219773
0.00389586
-0.0212179
-0.0421232
-0.00899884
0.0213281
-0.0399337
-0.0190181
-0.0226179
-0.0159569
-0.00123901
0.0344006
-0.00808832
0.030211
-0.0401534
-0.0210785
0.0146781
-0.0286233
0.0262753
-0.000510761
0.0332503
0.0441512
0.0408029
-0.000514434
-4.58808e-05
0.000404219
-0.00168019
-0.0369327
0.000361292
0.0828674
0.0413018
0.0307139
-0.0355962
-0.0345829
0
-0.0286052
0
0
0
0
0
-0.000106911
0
4.06923e-05
0
-1.92291e-05
-2.36458e-05
0
0
0
-0.0251907
5.24762e-05
4.36458e-05
0
-0.155674
0.153353
-0.0344102
-0.15831
0.0688056
-0.0296401
0.0125519
0.00203282
-0.025699
-0.0182777
0.00347459
0.00330009
-0.00969946
0.0144727
-0.00733972
-0.0328954
0.0239333
-0.00822808
-0.0206069
-0.012594
0.0358214
0.0309116
-0.0113508
0.0398431
0.0325613
0.0226249
0.0447918
0.0899787
-0.0167366
0.0238962
0.0264557
-0.0249624
0.00729485
0.0369372
-0.00292713
0.0111729
0.0394465
-0.00196902
0.0419085
0.06712
0.0165321
0.0719104
0.0394428
-0.0319983
0.0212391
0.0634475
-0.0266542
0.0238368
0.0758711
-0.0421545
0.097398
0.0656653
-0.042994
0.0858624
0.0506227
-0.071896
0.061926
-0.0082976
0.102809
0.0611975
-0.0585878
0.1018
0.0616324
-0.0485361
0.074077
0.0536317
-0.0395142
0.044986
0.0197583
0.0307865
0.0217598
-0.00240742
-0.0254474
0.0164275
-0.000948055
0.0190623
0.0224251
0.0140942
-0.00593083
0.00356154
0.0134793
0.00305223
-0.00377963
0.00816693
0.00986616
-0.000637825
0.010849
-0.0251155
-0.0170348
-0.0113003
-0.00873083
-0.0164091
0.0143639
-0.00132754
0
0
0
-0.0274623
0
0
-0.000124924
0
-0.000195327
-0.0231263
-7.2638e-05
0.00012331
0
0
0
0
0
0
0
0
0
2.25849e-05
0
0
0
0
0
0
-3.98239e-06
0
0
0
0
0
0
0
0
0
0
0
0
5.92161e-05
1.16629e-05
4.53271e-06
0
4.33644e-05
0
0
0
0
0
0
0
0
0
0
0
0
0
0
0
0
0
0.00119697
-0.00128535
-0.000109689
0
0
0
0
0
0
0
0
0.00507536
0
-0.00198662
0
-0.00227584
0
0
3.75789e-05
-6.92697e-05
7.61083e-06
0
-3.5053e-05
0
0
0
0
0
0
0
0
0
8.12602e-05
7.29814e-06
0.000130184
0
-2.32756e-05
0
-7.15764e-05
0.000143411
-0.00010102
0
-1.68248e-05
0
0
0
0
1.43317e-05
0
-7.82398e-05
0
-3.67811e-05
-3.94508e-05
0
0
0
-2.05391e-06
-6.25267e-06
0
0
-1.801e-05
0
-7.74213e-06
0
0
0
0
0
6.15841e-06
0
0
0
0
0
-9.90938e-06
0
1.07173e-05
0
0
0
-5.6875e-05
0
0
0
0
0
0
0
0
0.0407924
0.0162113
0.0352287
-0.0287983
0.0456154
0.00732136
-0.00450172
0.049412
0.0477938
0.0362496
-0.000783085
-0.04879
0.0593325
0.00662745
0.00864066
0.0179843
-0.0105657
0.0216538
0.0210987
0.0172918
0.00439918
0.00376153
0.00485401
0.017968
0.0115367
-0.00589437
0.0149436
0.00484321
0.00648539
0.0085713
0.00817532
0.00469052
-0.000389685
0.00533316
0.0061705
-0.0174739
-0.00191721
-0.00822581
0.000882894
0.0139209
0
0
0
0
0
0
0
6.12539e-05
0
0
0
-0.00920947
-0.0205969
-0.0351218
0.00961335
0
0
0
0
0
0
0
-0.0566632
0
0
0
0
-1.79941e-06
0
3.52681e-06
0
1.7234e-06
0
0
0
0
0
0
0.0138079
-0.00351579
0.0113221
0.0183729
-0.0336201
-0.0362227
-0.0149061
-0.0340939
-0.045083
-0.0151262
0.0101123
0.0177561
0.00471171
-0.0096549
-0.0427094
0.0326556
0.0151033
-0.0399607
-0.0460256
0.0301809
-0.0286839
0.0344541
0.0322699
-0.020992
1.50251e-06
0
0
5.59166e-06
7.10183e-05
-1.69621e-05
9.25349e-05
8.69062e-05
-2.15764e-05
2.44122e-05
2.15496e-06
0.000111141
-2.9942e-05
0
3.21585e-05
0
0
0.0869967
0.0353555
0
0
0
-0.00302159
0.0449364
-0.00431152
0
-0.000262724
-0.00148236
-5.18176e-06
0.000186561
0
-2.55351e-05
0
-5.81041e-06
0
0
2.42631e-05
-3.63136e-05
0
0
0
0
0
0
0
0
0
0
0
2.80737e-05
0
0
0
0
0
0
0
0
0
0
0
0
0
0
0
0
0.0239374
-0.00266231
-0.0058116
0.000376825
-0.016744
-0.0343682
0.045799
-0.00500174
0.000104672
-0.000691482
-0.013276
-0.0263193
0
0
0
0
-3.63125e-05
-2.51181e-05
1.65967e-05
-0.0597389
-0.026867
0
0
-2.08158e-05
0
0
0
0
0
0
0
0
0
0
-0.00639238
0
0.00202451
-0.00869886
-0.0388018
-0.0488908
0
0
0
-7.78358e-05
0
8.48541e-05
0
0
0
0
0
0
0
0
0
-7.79521e-05
0
5.26888e-05
-0.0076648
-0.000130852
0.0165861
-0.00394572
0.00942847
-0.00468661
0.051369
0.0307227
0.0262766
0.0612906
0.0588867
0.003664
0.0229756
0.0342119
0.0282187
-0.0465499
0.0034565
0.00659167
-0.0246233
-0.0177414
-0.000550846
0.0304004
0.0521815
0.011896
0.0325019
0.028698
0.0363667
0.0355659
7.2278e-05
0.0124208
0.0268289
-0.0304492
0.00247904
-0.0113667
0.0217858
0.00684983
0.00934525
0.00125548
-0.0142492
0.00955311
0.00638225
-0.0918805
-0.0581106
0.0329268
-0.056298
-0.0637614
0.0147003
-0.0583637
-0.0547958
-0.0130298
-0.0445015
-0.0764106
-0.029431
-0.0405293
-0.0546477
0.0308659
-0.069111
-0.0541357
0.000599666
-0.0170686
0.00184394
-0.0102043
-0.0171335
-0.0172209
-0.0159758
0.0134279
-0.00391179
0.0213833
0.00165702
-0.00550194
0.0220162
-0.0332643
-0.0143299
-0.0152384
-0.0496726
-0.0258398
-0.0027939
-0.0581454
-0.0514886
-0.033724
-0.012123
-0.000253455
-0.0171153
-0.0616064
-0.0192604
-0.0316217
-0.0291327
-0.0173471
0.0302075
-0.0496842
-0.0995411
-0.0115126
-0.0783904
-0.0845911
-0.0255533
-0.0654598
-0.0722142
-0.0345755
0.0325675
-0.00838792
-0.00556236
0.0530994
-0.00155479
-0.0324738
-0.0153075