/*--------------------------------*- C++ -*----------------------------------*\
  =========                 |
  \\      /  F ield         | OpenFOAM: The Open Source CFD Toolbox
   \\    /   O peration     | Website:  https://openfoam.org
    \\  /    A nd           | Version:  8
     \\/     M anipulation  |
\*---------------------------------------------------------------------------*/
FoamFile
{
    version     2.0;
    format      ascii;
    class       volScalarField;
    location    "11280";
    object      Hclip;
}
// * * * * * * * * * * * * * * * * * * * * * * * * * * * * * * * * * * * * * //

dimensions      [0 1 0 0 0 0 0];

internalField   nonuniform List<scalar> 
526318
(
0.672567
0.629618
0.707747
0.617737
0.683611
0.642074
0.659205
0.573427
0.639211
0.508304
0.501901
0.610488
0.558822
0.603154
0.564622
0.591129
0.559398
0.755555
0.671046
0.71314
0.708888
0.663818
0.42011
0.661011
0.552333
0.415665
0.684405
0.687408
0.689194
0.705695
0.72935
0.775507
0.761314
0.638266
0.642156
0.613217
0.615012
0.709742
0.628179
0.57402
0.637451
0.615972
0.273825
0.333085
0.233999
0.281394
0.257984
0.379379
0.555914
0.460992
0.547364
0.552617
0.496973
0.456794
0.001
0.203552
0.197742
0.00139826
0.718533
0.7311
0.747963
0.698487
0.649435
0.772656
0.771176
0.732021
0.713961
0.718375
0.615213
0.606353
0.727251
0.50749
0.558448
0.448126
0.407634
0.399328
0.499694
0.487594
0.408531
0.448027
0.526387
0.525549
0.481094
0.437569
0.46313
0.534712
0.531487
0.506718
0.453982
0.529965
0.433986
0.385765
0.383088
0.312361
0.307308
0.314356
0.30861
0.309683
0.30717
0.30847
0.001
0.001
0.001
0.001
0.001
0.001
0.215259
0.0244546
0.337062
0.305507
0.35041
0.455901
0.687162
0.580988
0.690513
0.69839
0.77211
0.73534
0.783159
0.305851
0.302232
0.305812
0.309731
0.261406
0.303678
0.215464
0.257401
0.166503
0.215561
0.163004
0.161931
0.154281
0.126539
0.123337
0.14779
0.0886513
0.148935
0.096328
0.112574
0.0591605
0.0665705
0.0885782
0.119633
0.103693
0.0569446
0.0566402
0.0760691
0.0621166
0.0581703
0.0652339
0.0742754
0.0657457
0.0679927
0.0693427
0.0667413
0.033798
0.0692467
0.0697097
0.0339537
0.001
0.0697845
0.0177131
0.0749122
0.574531
0.664578
0.60779
0.593088
0.393983
0.462801
0.397833
0.396069
0.398873
0.399187
0.422637
0.396843
0.328379
0.302832
0.271162
0.209127
0.270067
0.31336
0.310961
0.312491
0.199839
0.247171
0.133135
0.146855
0.157121
0.145245
0.150417
0.152662
0.137838
0.143704
0.134087
0.120711
0.106779
0.135807
0.130492
0.0999442
0.0759599
0.105686
0.08482
0.0791156
0.10009
0.0865228
0.0914936
0.0532426
0.072886
0.106939
0.104957
0.553253
0.559043
0.602119
0.570911
0.564707
0.549673
0.554948
0.431347
0.477299
0.217139
0.195364
0.19855
0.317236
0.456439
0.329188
0.363757
0.368717
0.31533
0.290973
0.001
0.001
0.001
0.138084
0.001
0.001
0.001
0.001
0.001
0.001
0.76796
0.748198
0.798483
0.789677
0.760151
0.746658
0.658202
0.741542
0.590065
0.527498
0.534002
0.531363
0.534766
0.528015
0.520645
0.515305
0.432233
0.502163
0.315362
0.375261
0.303271
0.316808
0.00100536
0.001
0.001
0.00100202
0.001
0.001
0.001
0.001
0.311265
0.123413
0.360801
0.364284
0.477098
0.574846
0.698714
0.699446
0.7431
0.713694
0.777768
0.814916
0.283594
0.282672
0.246426
0.211474
0.111036
0.149841
0.0753505
0.0861008
0.0754838
0.0707053
0.05624
0.0652012
0.001
0.0133677
0.0517622
0.0826204
0.139583
0.0986656
0.0648036
0.0702176
0.00262266
0.001
0.0429655
0.099168
0.0184014
0.0583235
0.0573041
0.0236767
0.0232397
0.001
0.001
0.001
0.001
0.001
0.001
0.0683129
0.0975032
0.069772
0.10691
0.462461
0.422542
0.327389
0.41485
0.335706
0.388179
0.401089
0.387858
0.400306
0.396987
0.305009
0.227387
0.154774
0.135554
0.207415
0.152359
0.138951
0.247436
0.138641
0.190952
0.1254
0.127223
0.135099
0.130754
0.141466
0.142874
0.138409
0.140535
0.143372
0.134331
0.150484
0.138456
0.149005
0.147529
0.147462
0.125545
0.141969
0.1271
0.102999
0.0986969
0.131558
0.158656
0.146622
0.127088
0.10655
0.134222
0.177964
0.17779
0.196122
0.153875
0.183416
0.198344
0.238669
0.196349
0.197728
0.218257
0.253447
0.373441
0.455037
0.369691
0.407724
0.480733
0.547417
0.449139
0.319769
0.433865
0.3283
0.354993
0.0810331
0.0323402
0.0635151
0.0471677
0.170882
0.289118
0.220349
0.288043
0.286909
0.313716
0.284359
0.001
0.001
0.001
0.001
0.001
0.001
0.001
0.00100998
0.001
0.00100962
0.001
0.00100889
0.001
0.001
0.001
0.001
0.792014
0.781598
0.817482
0.807783
0.786302
0.757643
0.684919
0.597067
0.531323
0.54899
0.523847
0.51951
0.500232
0.500307
0.479953
0.479387
0.430927
0.472674
0.396923
0.339503
0.283326
0.242029
0.001
0.00107542
0.00107539
0.001
0.001
0.001
0.001
0.00107503
0.00107602
0.00107581
0.00100999
0.00100984
0.001
0.00100942
0.001
0.001
0.001
0.001
0.001
0.001
0.001
0.001
0.001
0.001
0.0167905
0.001
0.226291
0.385179
0.40139
0.491088
0.711456
0.606376
0.724937
0.723079
0.739781
0.771674
0.798732
0.821378
0.201657
0.200123
0.155907
0.180385
0.118712
0.0830969
0.0759816
0.076444
0.0716521
0.0773154
0.0269032
0.0216009
0.001
0.001
0.0374953
0.0087841
0.001
0.0294557
0.0216354
0.0470287
0.001
0.001
0.001
0.001
0.001
0.001
0.001
0.001
0.001
0.001
0.001
0.226228
0.196753
0.192406
0.196094
0.221829
0.322291
0.275032
0.259211
0.133436
0.190695
0.168526
0.178139
0.0761548
0.0191771
0.189923
0.306593
0.196172
0.195388
0.178297
0.258342
0.238116
0.316825
0.34636
0.26781
0.252776
0.283851
0.162703
0.141897
0.138367
0.134734
0.0493264
0.10391
0.0285522
0.001
0.001
0.0800573
0.0790635
0.130945
0.128323
0.128539
0.125729
0.126956
0.131208
0.133119
0.145975
0.140342
0.153715
0.145295
0.151754
0.156918
0.187081
0.165323
0.192576
0.191921
0.143199
0.127456
0.188921
0.171806
0.162775
0.178436
0.161728
0.147613
0.202063
0.178346
0.274751
0.290063
0.23587
0.282138
0.290111
0.248565
0.342152
0.324518
0.381587
0.401997
0.436858
0.347145
0.351324
0.346661
0.30919
0.295236
0.257662
0.3607
0.203336
0.180376
0.228739
0.25888
0.001
0.001
0.0583783
0.186896
0.214748
0.251865
0.158612
0.118819
0.0890241
0.027954
0.001
0.001
0.001
0.001
0.001
0.00100068
0.001
0.001
0.00100979
0.001
0.001
0.001
0.001
0.001
0.001
0.001
0.001
0.001
0.001
0.001
0.001
0.00101
0.001
0.001
0.001
0.001
0.00116767
0.001
0.00108051
0.001
0.00116753
0.00116732
0.001
0.001
0.001
0.001
0.001
0.001
0.001
0.001
0.00100959
0.001
0.00100965
0.001
0.001
0.001
0.786755
0.796146
0.817003
0.80859
0.788856
0.711069
0.52911
0.622789
0.502817
0.501188
0.481015
0.481683
0.473864
0.472691
0.468982
0.466544
0.410553
0.382541
0.284002
0.323535
0.182568
0.220025
0.001
0.001
0.001
0.001
0.001
0.001
0.001
0.001
0.00103246
0.001
0.001
0.001
0.001
0.001
0.001
0.001
0.001
0.00100737
0.001
0.001
0.001
0.001
0.001
0.001
0.001
0.001
0.00101
0.001
0.001
0.001
0.001
0.001
0.001
0.001
0.201377
0.0316746
0.409321
0.366946
0.434478
0.54078
0.644417
0.726446
0.73624
0.724776
0.768986
0.800999
0.787811
0.780831
0.00116999
0.001
0.001
0.001
0.001
0.001
0.001
0.001
0.001
0.001
0.001
0.001
0.001
0.001
0.001
0.00101
0.001
0.181205
0.181949
0.184547
0.145823
0.0668131
0.10255
0.0267169
0.0195163
0.001
0.001
0.001
0.001
0.001
0.001
0.001
0.001
0.001
0.001
0.001
0.001
0.001
0.001
0.001
0.001
0.001
0.001
0.001
0.001
0.001
0.001
0.001
0.001
0.423492
0.387191
0.426492
0.430931
0.377957
0.349599
0.508105
0.54113
0.59967
0.606008
0.152872
0.200391
0.249977
0.329996
0.147663
0.0962354
0.134236
0.131745
0.001
0.0297961
0.0822242
0.001
0.171681
0.180108
0.170752
0.177652
0.202975
0.17182
0.185574
0.204406
0.0724961
0.0828663
0.001
0.0654341
0.0571253
0.0172713
0.001
0.001
0.001
0.001
0.001
0.0147471
0.0770711
0.00854819
0.0783161
0.131436
0.131897
0.127202
0.127782
0.129293
0.146958
0.146772
0.16554
0.156634
0.179915
0.177
0.196285
0.192134
0.195866
0.190279
0.199507
0.199431
0.237544
0.210037
0.178832
0.179142
0.239548
0.207481
0.217634
0.257103
0.29858
0.294692
0.302403
0.296559
0.331594
0.384049
0.44771
0.458292
0.480846
0.44939
0.592288
0.541493
0.663958
0.703297
0.688619
0.73312
0.787232
0.646449
0.739666
0.763119
0.835817
0.885604
0.912661
0.932218
0.960993
0.906674
0.959479
0.918332
0.99751
0.997851
1.04291
1.01239
1.07286
1.10256
1.09413
1.04027
1.10713
1.13161
1.09673
1.0936
1.16157
1.13703
1.16946
1.10923
1.10858
1.17681
1.14154
1.09514
1.09383
1.12799
1.16247
0.149705
0.117105
0.290107
0.288615
0.249389
0.243802
0.252322
0.0116807
0.146409
0.001
0.001
0.001
0.001
0.001
0.001
0.001
0.0837427
0.001
0.001
0.001
0.001
0.001
0.001
0.001
0.00101
0.001
0.001
0.001
0.001
0.00101
0.001
0.001
0.001
0.001
0.00162101
0.001
0.001
0.001
0.001
0.001
0.001
0.001
0.001
0.00129718
0.001
0.001
0.001
0.001
0.001
0.001
0.001
0.001
0.001
0.00100829
0.001
0.001
0.001
0.001
0.00100997
0.00111649
0.001
0.001
0.001
0.001
0.001
0.00101
0.001
0.001
0.00104046
0.00103467
0.001
0.001
0.001
0.00101
0.00101
0.001
0.001
0.001
0.001
0.001
0.001
0.001
0.001
0.0010078
0.001
0.001
0.001
0.001
0.001
0.001
0.001
0.001
0.00101
0.001
0.001
0.775517
0.763897
0.737231
0.736399
0.650092
0.727137
0.544489
0.487286
0.475695
0.475303
0.474326
0.472873
0.411789
0.417904
0.265282
0.223278
0.182183
0.355223
0.354369
0.30458
0.301925
0.300641
0.001
0.001
0.00101836
0.00101834
0.001
0.001
0.001
0.001
0.00101836
0.001
0.001
0.00100893
0.001
0.001
0.001
0.001
0.001
0.001
0.001
0.001
0.001
0.001
0.00135073
0.00135089
0.001
0.001
0.001
0.001
0.0337692
0.001
0.198394
0.366874
0.398076
0.427903
0.507149
0.625618
0.692902
0.663657
0.712433
0.64175
0.694717
0.739679
0.691136
0.689407
0.00118093
0.001
0.00101
0.001
0.001
0.00119529
0.001
0.001
0.0011953
0.001
0.001
0.001
0.001
0.001
0.001
0.001
0.001
0.001
0.00101
0.001
0.001
0.001
0.001
0.001
0.00173772
0.00101111
0.157895
0.156131
0.0735342
0.09156
0.001
0.001
0.001
0.001
0.001
0.00138937
0.001
0.001
0.001
0.001
0.001
0.001
0.001
0.001
0.00126226
0.00126968
0.001
0.001
0.001
0.001
0.001
0.001
0.001
0.001
0.001
0.001
0.00122043
0.001
0.643294
0.645793
0.464717
0.388934
0.364836
0.365858
0.638219
0.551929
0.799218
0.875528
0.771736
0.691058
0.890174
0.872309
0.938824
0.984423
1.01125
1.01246
1.03794
1.01207
1.06817
1.0923
1.08822
1.08687
1.11038
1.09487
1.09739
1.14575
1.08196
1.07653
0.210922
0.133947
0.274954
0.34796
0.126707
0.0846581
0.137265
0.134716
0.001
0.0190033
0.001
0.013188
0.001
0.170005
0.118946
0.176809
0.176457
0.170773
0.0748023
0.001
0.001
0.001
0.001
0.001
0.001
0.001
0.001
0.001
0.001
0.001
0.001
0.001
0.0223991
0.001
0.0732571
0.02339
0.064702
0.126933
0.16196
0.127067
0.163046
0.168974
0.173922
0.168373
0.197391
0.202734
0.205442
0.22663
0.229614
0.228668
0.260087
0.276973
0.269679
0.260795
0.263445
0.261394
0.276116
0.291897
0.340778
0.326759
0.296631
0.33176
0.324357
0.356426
0.3897
0.453383
0.490962
0.489557
0.501191
0.567772
0.649684
0.720475
0.735008
0.864619
0.738602
0.785844
0.935777
0.958752
0.95893
0.992489
1.04435
1.09241
1.10459
1.10863
1.13865
1.16692
1.19312
1.19224
1.19189
1.19446
1.19445
1.17427
1.114
1.17815
1.14197
1.09586
1.09877
1.12723
1.16298
1.17142
1.09652
1.15736
1.11679
0.001
0.001
0.00715007
0.0824333
0.001
0.0370193
0.175855
0.103817
0.13286
0.001
0.001
0.001
0.001
0.00324171
0.001
0.001
0.001
0.001
0.001
0.00127704
0.00127677
0.001
0.001
0.001
0.00100999
0.001
0.001
0.001
0.001
0.00139192
0.00138878
0.001
0.001
0.001
0.00162083
0.001
0.001
0.001
0.001
0.001
0.00101
0.001
0.001297
0.001
0.00101
0.001
0.001
0.001
0.001
0.001
0.001
0.00105217
0.001
0.001
0.001
0.001
0.001
0.001
0.001
0.001
0.001
0.001
0.001
0.001
0.001
0.001
0.00104873
0.001
0.001
0.001
0.001
0.001
0.001
0.001
0.00101
0.001
0.00100962
0.001
0.001
0.001
0.001
0.001
0.001
0.001
0.001
0.685996
0.68392
0.666937
0.674133
0.603858
0.664972
0.473929
0.540127
0.433247
0.43513
0.37934
0.358437
0.306527
0.303501
0.222991
0.112892
0.0931436
0.261457
0.305594
0.304061
0.304873
0.304346
0.00101844
0.001
0.00101844
0.001
0.001
0.001
0.001
0.001
0.00100548
0.001
0.001
0.001
0.001
0.001
0.001
0.00100999
0.001
0.001
0.001
0.001
0.001
0.001
0.001
0.00101
0.001
0.001
0.001
0.001
0.100809
0.001
0.236978
0.372151
0.34454
0.457433
0.623705
0.523182
0.598985
0.606859
0.592941
0.625017
0.680585
0.672757
0.678572
0.652395
0.001
0.001
0.001
0.001
0.001
0.001
0.001
0.001
0.001
0.001
0.001
0.001
0.001
0.001
0.001
0.001
0.001
0.001
0.001
0.00100999
0.001
0.001
0.00164535
0.001
0.00101
0.001
0.001
0.001
0.001
0.001
0.001
0.0290306
0.0285746
0.001
0.001
0.001
0.001
0.001
0.001
0.0736641
0.0167757
0.00101402
0.001
0.001
0.001
0.00100989
0.00128058
0.00128058
0.001
0.001
0.001
0.001
0.001
0.001
0.001
0.001
0.001
0.001
0.001
0.00100971
0.001
0.001
0.001
0.001
0.001
0.001
1.21359
1.22882
1.24969
1.23129
1.2756
1.25836
1.28309
1.27519
1.32608
1.31606
1.28309
1.33282
1.29654
1.35149
1.18524
1.13663
1.15577
1.206
1.18863
1.15709
1.15847
1.21284
1.21811
1.19304
1.17274
1.2241
1.20953
1.22014
1.24247
1.09644
1.09901
1.09787
1.09519
1.1146
1.13409
0.685967
0.636547
0.523408
0.439611
0.345972
0.421187
0.620135
0.60133
0.846133
0.870809
0.756027
0.83753
0.880067
0.928023
0.97639
1.01539
1.01325
1.01199
1.00977
1.03686
1.05078
1.07369
1.06174
1.06282
1.06999
1.0816
1.05352
1.05493
0.256303
0.18049
0.126157
0.119619
0.168388
0.349391
0.324024
0.0605939
0.10712
0.001
0.001
1.20098
1.22362
1.23857
1.24632
1.25152
1.26134
1.26525
1.29167
1.27803
1.2922
1.29247
1.33786
1.36281
1.38808
1.39025
1.39686
1.40664
1.42914
0.001
0.001
0.00145175
0.0836028
0.00104515
0.161188
0.0553921
0.00199676
0.00130325
0.001
0.00130331
0.00130324
0.001
0.001
0.001
0.001
0.001
0.001
0.001
0.001
0.001
0.001
0.00125179
0.001
0.0258187
0.001
0.103187
0.057086
0.146792
0.112461
0.145192
0.172
0.186122
0.217255
0.234894
0.235119
0.245189
0.239539
0.2983
0.287165
0.27862
0.279947
0.332311
0.306694
0.371058
0.335587
0.316019
0.358593
0.401932
0.392773
0.413413
0.452813
0.452795
0.396053
0.514945
0.536624
0.504739
0.500218
0.577772
0.664174
0.734255
0.804873
0.754264
0.766117
0.89381
0.952527
0.994913
0.973488
1.04067
1.0713
1.11575
1.12919
1.12483
1.14737
1.20369
1.1842
1.19481
1.20314
1.19377
1.19188
1.19199
1.19228
1.19181
1.19248
1.19278
0.001
0.001
0.00228102
0.001
0.001
0.001
0.001
0.001
0.001
0.001
0.001
0.001
0.001
0.001
0.0014517
0.001
0.001
0.001
0.001
0.00127647
0.001
0.001
0.001
0.001
0.001
0.001
0.001
0.001
0.00111452
0.00111449
0.00138865
0.001
0.00101797
0.001
0.001
0.001
0.001
0.001
0.001
0.001
0.00100984
0.001
0.00111441
0.001
0.001
0.001
0.00101
0.001
0.001
0.001
0.001
0.00239155
0.001
0.001
0.001
0.001
0.001
0.001
0.00100993
0.001
0.001
0.001
0.001
0.001
0.00106031
0.001
0.001
0.001
0.001
0.00106136
0.001
0.001
0.001
0.001
0.001
0.001
0.001
0.001
0.00101
0.001
0.001
0.001
0.001
0.001
0.001
0.001
0.001
0.001
0.001
0.00203217
0.001
0.001
0.001
0.001
0.00203212
1.3943
1.34992
1.31503
1.42482
1.45658
1.45866
0.665306
0.664025
0.655324
0.647613
0.571609
0.641341
0.470162
0.391393
0.318503
0.337409
0.302594
0.307333
0.306685
0.303814
0.182529
0.0983785
0.195052
0.265013
0.270829
0.001
0.001
0.001
0.001
0.001
0.001
0.001
0.001
0.001
0.001
0.00100943
0.001
0.001
0.001
0.001
0.001
0.00100998
0.001
0.001
0.001
0.001
0.001
0.001
0.001
0.001
0.001
0.001
0.0718973
0.214882
0.327389
0.325301
0.641914
0.565501
0.575318
0.363677
0.454344
0.539697
0.593228
0.594455
0.598876
0.618028
0.639326
0.635454
0.001
0.00114909
0.001
0.001
0.001
0.001
0.00100904
0.001
0.001
0.001
0.001
0.001
0.001
0.001
0.001
0.001
0.001
0.00100504
0.001
0.001
0.001
0.001
0.001
0.001
0.001
0.001
0.001
0.001
0.001
0.001
0.00101
0.001
0.001
0.001
0.001
0.001
0.001
0.0302415
0.0673333
0.052137
0.001
0.001
0.001
0.001
0.001
0.001
0.001
0.001
0.001
0.001
0.001
0.001
0.001
0.001
0.001
0.001
0.001
0.001
0.001
0.001
0.001
0.001
0.001
0.001
0.001
0.001
0.001
0.001
0.001
0.001
0.001
0.001
0.001
0.001
1.21837
1.23283
1.2574
1.27223
1.27724
1.28061
1.32501
1.3039
1.14814
1.14877
1.13083
1.15219
1.18664
1.14565
1.19289
1.16542
1.08548
1.07031
1.07021
1.10268
1.13123
1.10509
0.690356
0.621046
0.510153
0.59472
0.446933
0.355082
0.606425
0.612579
0.852986
0.85546
0.87211
0.772185
0.84045
0.959586
0.906371
0.845441
0.887805
0.991891
1.00345
0.994529
0.997206
1.00856
1.02832
1.05533
1.04522
1.04953
1.05049
1.05388
1.05068
1.05326
1.04749
0.096919
0.104822
0.240082
0.324287
0.104456
0.181905
0.336217
0.358369
0.0976782
0.0365271
0.001
0.0119185
1.23146
1.19046
1.21074
1.256
1.25584
1.25709
1.26583
1.28677
1.30823
1.31891
1.31896
1.32428
1.34811
1.38646
1.3695
1.39056
1.40876
1.45752
1.43533
1.26083
1.27238
1.28665
1.45686
1.46418
1.464
0.00145154
0.00145149
0.00145157
0.001
0.001
0.00103202
0.001
0.001
0.001
0.001
0.001
0.001
0.001
0.00101184
0.001
0.0010118
0.001
0.001
0.001
0.001
0.00185045
0.001
0.001
0.001
0.04627
0.0750659
0.00413828
0.0451213
0.103202
0.0728439
0.198788
0.146267
0.216329
0.229748
0.24152
0.222432
0.276215
0.319196
0.355446
0.353228
0.359052
0.346954
0.370839
0.355378
0.401735
0.404695
0.426454
0.428166
0.405567
0.404991
0.527693
0.580304
0.475046
0.537963
0.575821
0.547803
0.64252
0.694962
0.789835
0.829378
0.806627
0.89415
0.948176
1.04692
1.03231
1.09362
1.06632
1.16133
1.17088
1.16519
1.19043
1.2201
1.22156
1.27503
1.24027
1.26634
1.2294
1.22796
1.26364
1.1939
1.23045
1.19543
0.001
0.001
0.001
0.001
0.001
0.001
0.001
0.001
0.00101
0.001
0.001
0.001
0.001
0.001
0.001
0.001
0.001
0.001
0.001
0.001
0.001
0.001
0.001
0.001
0.001
0.001
0.001034
0.001
0.00111448
0.00111449
0.001
0.001
0.001
0.001
0.00101
0.001
0.0010004
0.001
0.001
0.001
0.001
0.001
0.00215127
0.001
0.001
0.001
0.001
0.001
0.00102338
0.001
0.001
0.00221183
0.001
0.001
0.001
0.00102336
0.00125975
0.001
0.00100983
0.001
0.001
0.001
0.00101
0.001
0.00106026
0.00106091
0.001
0.001
0.00106134
0.00106106
0.001
0.001
0.001
0.001
0.00152989
0.001
0.00152973
0.001
0.001
0.001
0.001
0.00100984
0.00101
0.00100994
0.001
0.001
0.001
0.001
0.001
0.001
0.001
0.001
0.001
0.001
0.00125968
0.001
0.00100958
0.00100997
0.001
0.001
0.001
0.001
0.00101
1.35525
1.35162
1.34424
1.35605
1.39298
1.49653
1.476
1.47847
1.49526
1.44794
0.575787
0.558529
0.49403
0.499597
0.457152
0.487431
0.396837
0.350735
0.339187
0.302327
0.279866
0.278829
0.190148
0.197672
0.0692079
0.107997
0.108355
0.001
0.001
0.001
0.00101
0.001
0.001
0.001
0.0010543
0.0433135
0.001
0.001
0.001
0.001
0.001
0.001
0.001
0.00101
0.001
0.001
0.00102183
0.001
0.001
0.001
0.001
0.001
0.436911
0.440838
0.478212
0.18429
0.324475
0.323011
0.360724
0.486379
0.553133
0.51663
0.424768
0.50729
0.533796
0.533541
0.457482
0.486665
0.001
0.001
0.00114913
0.00101
0.001
0.001
0.00101
0.00118741
0.001
0.001
0.001
0.001
0.001
0.001
0.001
0.00101517
0.001
0.00101577
0.00101605
0.00101
0.001
0.001
0.001
0.001
0.001
0.00100577
0.001
0.001
0.001
0.001
0.00106156
0.001
0.00100563
0.001
0.001
0.001
0.001
0.001
0.001
0.001
0.001
0.001
0.001
0.001
0.00101626
0.0453779
0.0554225
0.0694313
0.001
0.001
0.001
0.001
0.001
0.001
0.00146983
0.001
0.001
0.00147022
0.001
0.001
0.001
0.001
0.001
0.001
0.001
0.00103942
0.001
0.001
0.001
0.001
0.001
0.001
0.001
0.00117605
0.001
0.00103937
0.001
0.001
0.001
0.001
0.00101
0.001
0.001
0.00117603
1.22696
1.17437
1.26129
1.21475
1.22395
1.26928
1.23525
1.3021
1.27247
1.34212
1.29404
1.27865
1.34164
1.31226
1.11513
1.11599
1.10492
1.11935
1.13051
1.14506
1.14164
1.15693
1.05993
1.05566
1.08597
1.06841
1.10106
1.10812
0.692892
0.620283
0.538944
0.613632
0.404449
0.503927
0.607337
0.619435
0.847212
0.841752
0.845419
0.778559
0.932856
0.979173
0.8904
0.844617
0.984706
0.987211
0.999511
0.987703
1.02321
1.04515
1.05445
1.05535
1.0556
1.04869
1.05323
1.05312
1.04934
1.04408
0.094773
0.0935359
0.254956
0.339112
0.23256
0.159771
0.397099
0.335189
0.0681636
0.0955262
0.0610325
0.001
1.2304
1.2671
1.24904
1.27565
1.29595
1.28473
1.31804
1.33016
1.30561
1.31845
1.30903
1.31889
1.32355
1.34746
1.37143
1.39019
1.39073
1.44251
1.41986
1.46614
1.47545
1.34108
1.35421
1.47548
1.48154
0.001
0.001
0.001
0.001
0.001
0.001
0.001
0.001
0.00101
0.001
0.001
0.001
0.001
0.001
0.001
0.001
0.0018504
0.001
0.001
0.001
0.001
0.001
0.001
0.001
0.067083
0.0621459
0.0291549
0.001
0.0938854
0.141263
0.200391
0.189069
0.21199
0.200454
0.322043
0.271435
0.369836
0.357887
0.385361
0.389119
0.366679
0.421678
0.465704
0.437716
0.425759
0.454507
0.501245
0.487046
0.47143
0.510741
0.590528
0.598748
0.587406
0.609929
0.742513
0.652804
0.824909
0.853776
0.849482
0.915573
0.990715
1.06739
1.07626
1.09154
1.13626
1.18834
1.21995
1.22333
1.26064
1.23354
1.28604
1.30111
1.30192
1.30104
1.30266
1.30102
1.26747
1.30232
1.26918
0.001
0.001
0.0073227
0.00102518
0.001
0.001
0.001
0.001
0.001
0.001
0.00101
0.00130919
0.00130951
0.00130929
0.00130916
0.00131006
0.00131015
0.001
0.00131065
0.00669421
0.001
0.001
0.001
0.00105663
0.001
0.00105643
0.00105647
0.001
0.001
0.00100217
0.001
0.001
0.001
0.001
0.00101
0.00103725
0.001
0.001
0.00100986
0.001
0.001
0.001
0.00184891
0.001
0.001
0.001
0.001
0.001
0.001
0.001
0.001
0.001
0.00100941
0.001
0.001
0.001
0.00100992
0.001
0.001
0.001
0.00101
0.001
0.001
0.001
0.001
0.001
0.001
0.0010008
0.001
0.001
0.001
0.00100949
0.001
0.001
0.001
0.001
0.001
0.001
0.001
0.001
0.001
0.001
0.00101
0.001
0.001
0.001
0.001
0.001
0.001
0.001
0.001
0.001
0.001
0.001
0.001
0.001
0.001
0.001
0.001
0.001
0.001
0.001
0.001
0.001
0.001
0.001
0.001
0.001
0.001
0.001
0.001
0.001
0.00106441
0.001
0.001
0.001
0.001
1.53052
1.50921
1.53351
1.53177
1.53486
1.53848
1.3703
1.38861
1.43773
1.41484
1.48465
1.5142
1.50586
1.36649
1.34867
0.436855
0.43501
0.439003
0.428019
0.439847
0.368718
0.414274
0.197506
0.256739
0.125067
0.122717
0.0687755
0.0699875
0.0690231
0.001
0.001
0.001
0.001
0.001
0.064916
0.001
0.001
0.001
0.001
0.001
0.001
0.001
0.001
0.001
0.001
0.001
0.00101347
0.0010139
0.001
0.00101272
0.001
0.001
0.001
0.438291
0.440108
0.440935
0.439439
0.436951
0.1489
0.267761
0.208377
0.329621
0.389083
0.417093
0.347518
0.428244
0.384121
0.379935
0.370652
0.001
0.0011132
0.001
0.001
0.001
0.001
0.001
0.00101468
0.001
0.001
0.0010136
0.001
0.001
0.001
0.00102088
0.001
0.001
0.001
0.001
0.001
0.001
0.001
0.001
0.001
0.001
0.00100955
0.001
0.001
0.001
0.001
0.001
0.001
0.001
0.001
0.001
0.001
0.00106198
0.001
0.00106164
0.001
0.001
0.001
0.001
0.001
0.00100037
0.001
0.001
0.001
0.001
0.001
0.00101
0.001
0.001
0.001
0.001
0.001
0.001
0.0414384
0.001
0.001
0.001
0.001
0.001
0.001
0.001
0.001
0.001
0.00100956
0.001
0.001
0.001
0.001
0.001
0.001
0.001
0.001
0.001
0.001
0.001
0.001
0.001
0.001
0.001
0.001
0.001
0.001
0.001
0.001
0.001
0.001
0.00183344
0.00184444
0.001
0.001
0.001
0.001
0.00100972
0.001
1.16728
1.16739
1.18653
1.18921
1.20161
1.20447
1.27556
1.27026
1.24676
1.22364
1.33843
1.2875
1.2642
1.10782
1.10762
1.13161
1.11963
1.14102
1.14163
1.1694
1.1482
1.05601
1.06521
1.09205
1.07493
1.09093
1.09848
0.734322
0.651373
0.581672
0.611143
0.559503
0.464737
0.648774
0.618422
0.853833
0.851468
0.809775
0.855715
0.940915
0.988464
0.854399
0.901753
0.991589
0.98725
1.01136
0.994139
1.03162
1.05326
1.04563
1.04663
1.06054
1.04393
1.04906
1.05014
1.05434
1.04602
0.091104
0.148035
0.337873
0.311964
0.242505
0.316232
0.341902
0.413886
0.0822434
0.0821511
0.0768398
0.00107702
0.001
0.001
0.001
1.30085
1.3039
1.33101
1.32357
1.34647
1.3587
1.3595
1.35924
1.39437
1.37386
1.38596
1.35323
1.38486
1.39712
1.42218
1.44058
1.45555
1.45149
1.50063
1.50155
1.52371
1.50166
1.41445
1.42019
1.53988
1.53692
0.001
0.001
0.00101
0.001
0.001
0.00124183
0.00124145
0.001
0.001
0.001
0.001
0.00202787
0.00109117
0.001
0.001
0.001
0.00100232
0.001
0.001
0.001
0.001
0.001
0.001
0.001
0.001
0.0110948
0.0817399
0.001
0.183927
0.121303
0.19341
0.197019
0.283248
0.225915
0.348308
0.374311
0.369565
0.378544
0.500843
0.463255
0.432134
0.488199
0.514877
0.509133
0.501336
0.496023
0.507282
0.507627
0.590075
0.633107
0.674439
0.627398
0.673663
0.699838
0.839259
0.768602
0.860952
0.84949
0.928538
1.00417
1.09266
1.09104
1.12503
1.16667
1.24094
1.22735
1.25183
1.25601
1.28456
1.29344
1.31232
1.30399
1.31801
1.31203
1.30272
1.31679
1.30138
1.30343
0.001
0.001
0.00101
0.001
0.001
0.001
0.001
0.001
0.001
0.00130954
0.001
0.001
0.001
0.0013101
0.00131011
0.00131003
0.00130979
0.00131028
0.00131027
0.001
0.001
0.00100968
0.001
0.001
0.001
0.00100179
0.001
0.001
0.001
0.001
0.001
0.00101
0.001
0.001
0.00100863
0.00103726
0.001
0.001
0.001
0.00383463
0.001
0.001
0.001
0.00100944
0.001
0.001
0.001
0.00100983
0.001
0.001
0.00100647
0.001
0.00100976
0.001
0.001
0.001
0.001
0.001
0.00342895
0.001
0.001
0.001
0.001
0.001
0.00121713
0.00121703
0.00121705
0.001
0.001
0.001
0.001
0.001
0.001
0.001
0.001
0.001
0.001
0.001
0.001
0.001
0.001
0.001
0.001
0.001
0.001
0.001
0.001
0.001
0.001
0.001
0.001
0.001
0.001
0.001
0.001
0.001
0.001
0.001
0.001
0.001
0.001
0.001
0.001
0.001
0.001
0.001
0.00101
0.001
0.00131662
0.001
0.00114976
0.001
0.001
0.00113405
0.001
0.001
1.54823
1.56682
1.57541
1.52957
1.54371
1.52875
1.52805
1.40371
1.43105
1.46391
1.49401
1.45122
1.50313
1.54436
1.38257
1.43788
1.33621
1.35925
1.36382
0.432167
0.432233
0.334173
0.298369
0.394464
0.326713
0.336639
0.204018
0.230597
0.0977187
0.0658618
0.0670156
0.0692782
0.0445522
0.001
0.001
0.001
0.0931192
0.001
0.001
0.001
0.00105259
0.001
0.001
0.001
0.001
0.001
0.001
0.001
0.001
0.001
0.00101
0.001
0.001
0.00101812
0.001
0.001
0.001
0.394925
0.439605
0.414787
0.39159
0.157465
0.159119
0.180552
0.24966
0.366394
0.365759
0.319213
0.366945
0.367648
0.00100999
0.001
0.001
0.001
0.001
0.001
0.00133064
0.00133114
0.001
0.001
0.00101
0.00100946
0.001
0.001
0.00100846
0.001
0.0010099
0.00372782
0.001
0.001
0.001
0.001
0.001
0.001
0.001
0.00106156
0.001
0.001
0.0011261
0.001
0.001
0.001
0.001
0.001
0.001
0.001
0.001
0.001
0.001
0.001
0.001
0.001
0.001
0.001
0.001
0.001
0.001
0.001
0.001
0.001
0.001
0.0019938
0.001
0.001
0.001
0.001
0.001
0.001
0.001
0.001
0.001
0.001
0.001
0.001
0.001
0.001
0.001
0.00105581
0.001
0.001
0.001
0.00108524
0.001
0.001
0.001
0.001
0.001
0.001
0.001
0.001
0.001
0.001
0.001
0.001
0.001
0.001
0.001
0.001
0.001
0.001
0.001
0.001
0.001
0.001
0.001
0.001
0.001
0.00128025
0.00101
0.001
0.001
0.001
0.001
0.00100999
0.001
0.001
1.24019
1.18363
1.21313
1.21141
1.15114
1.22419
1.23513
1.24033
1.24523
1.29415
1.23545
1.32743
1.29623
1.36011
1.09198
1.10952
1.10623
1.1253
1.10639
1.13504
1.14392
1.1204
1.05235
1.05911
1.07097
1.0759
1.07354
1.07828
0.787311
0.706781
0.604949
0.611681
0.515315
0.605068
0.627676
0.679668
0.859829
0.855793
0.854844
0.828497
0.948008
0.995569
0.917361
0.867238
0.99487
0.994345
0.995545
1.01807
1.05484
1.04458
1.06018
1.04733
1.04092
1.05673
1.043
1.04295
1.05025
1.05589
0.17494
0.0758411
0.339408
0.349538
0.269788
0.347841
0.351134
0.454288
0.0782927
0.0724232
0.0538422
0.0360361
0.001
0.0747551
1.3144
1.33321
1.35195
1.38788
1.3827
1.40416
1.41788
1.42689
1.43411
1.42205
1.43042
1.45099
1.47223
1.48252
1.48463
1.49332
1.51261
1.53311
1.54325
1.53789
1.55354
1.43374
1.423
1.58098
1.59313
0.001
0.001
0.001
0.001
0.001
0.001
0.001
0.001
0.001
0.00202778
0.001
0.001
0.001
0.001
0.001
0.00105465
0.00105464
0.001
0.001
0.001
0.001
0.001
0.001
0.001
0.001
0.0101366
0.0147198
0.0998055
0.168127
0.132366
0.208926
0.15116
0.34085
0.273096
0.380692
0.373536
0.389613
0.451315
0.582741
0.589803
0.531993
0.556878
0.591602
0.536512
0.644114
0.568693
0.545634
0.585394
0.719663
0.729566
0.791662
0.84626
0.731344
0.820656
0.961197
0.911779
0.980536
0.949091
1.14772
1.11052
1.18207
1.19423
1.26531
1.27899
1.33809
1.30617
1.35233
1.33541
1.3533
1.38838
1.35898
1.39139
1.39941
1.35678
1.34555
1.38985
1.38633
1.35718
0.001
0.001
0.00101
0.001
0.001
0.001
0.001
0.001
0.001
0.00107589
0.001
0.001
0.001
0.001
0.001
0.001
0.00100968
0.00130941
0.001
0.001
0.00130898
0.00101596
0.001
0.001
0.00123511
0.001
0.001
0.001
0.001
0.001
0.00153734
0.00100984
0.001
0.001
0.001
0.001
0.001
0.00100967
0.001
0.001
0.001
0.001
0.001
0.001
0.001
0.001
0.00101707
0.00101711
0.00101726
0.001
0.001
0.001
0.001
0.00116844
0.001
0.001
0.00116835
0.001
0.001
0.001
0.00100996
0.00131655
0.001
0.00113367
0.001
0.001
0.001
0.001
0.00101
0.001
0.001
0.001
0.001
0.001
0.001
0.001
0.001
0.001
0.001
0.001
0.001
0.001
0.001
0.001
0.001
0.001
0.001
0.001
0.001
0.001
0.001
0.001
0.001
0.001
0.001
0.001
0.001
0.001
0.001
0.001
0.001
0.001
0.001
0.001
0.001
0.001
0.001
0.001
0.001
0.001
0.001
0.001
0.001
0.001
0.001
0.001
0.001
0.00114976
0.001
0.001
0.001
0.00113435
0.001
0.001
1.60048
1.58464
1.60594
1.57164
1.54966
1.59499
1.57604
1.55572
1.5781
1.43217
1.46594
1.47239
1.44749
1.52546
1.5672
1.60298
1.4916
1.37401
1.39018
1.36625
1.38421
1.3595
1.41055
1.29436
0.198679
0.294365
0.19743
0.240399
0.2366
0.14313
0.143413
0.14977
0.152172
0.144961
0.125264
0.0432558
0.0176319
0.001
0.001
0.0456553
0.155826
0.001
0.001
0.00106525
0.001
0.001
0.00100999
0.001
0.00101417
0.00100155
0.001
0.001
0.00113146
0.001
0.001
0.001
0.00113146
0.001
0.00100853
0.001
0.00100507
0.304424
0.228103
0.203039
0.291959
0.15612
0.18158
0.316064
0.246324
0.289113
0.3666
0.363329
0.00110782
0.001
0.001
0.00115377
0.001
0.001
0.00133199
0.00133114
0.001
0.001
0.00100995
0.001
0.001
0.001
0.001
0.001
0.00384216
0.00393315
0.001
0.001
0.00396675
0.001
0.00199384
0.001
0.001
0.001
0.001
0.00335404
0.001
0.00112609
0.0035506
0.001
0.001
0.001
0.001
0.001
0.001
0.001
0.001
0.001
0.001
0.001
0.001
0.00101
0.001
0.001
0.001
0.001
0.001
0.00117165
0.001
0.001
0.001
0.00103616
0.001
0.001
0.001
0.001
0.001
0.001
0.001
0.001
0.001
0.001
0.001
0.001
0.001
0.001
0.001
0.001
0.001
0.001
0.001
0.001
0.001
0.001
0.00105581
0.00105581
0.001
0.001
0.001
0.001
0.001
0.001
0.001
0.001
0.00159204
0.001
0.001
0.001
0.001
0.001
0.001
0.00159204
0.001
0.001
0.001
0.001
0.001
0.001
0.001
0.001
0.001
0.001
0.001
0.001
0.001
0.00101
0.00101
0.001
0.00101
0.001
0.001
0.001
0.001
0.001
0.001
0.001
1.14449
1.16262
1.15352
1.18296
1.16394
1.19578
1.1683
1.20074
1.22885
1.25703
1.25822
1.25591
1.297
1.26549
1.36167
1.08061
1.08361
1.08878
1.09194
1.08995
1.08945
1.10006
1.1219
1.10436
1.0505
1.05866
1.07304
1.075
1.07633
0.754475
0.831829
0.64209
0.628605
0.542938
0.647509
0.711907
0.65014
0.864446
0.877987
0.881929
0.863005
0.997557
0.957256
0.926288
0.963463
1.00836
0.998815
1.03094
1.04191
1.0472
1.05363
1.05552
1.07939
1.0539
1.06257
1.06391
1.05958
1.05932
0.168662
0.0696422
0.346511
0.355857
0.267135
0.349366
0.456016
0.351032
0.0819797
0.0870909
0.0603874