/*--------------------------------*- C++ -*----------------------------------*\
  =========                 |
  \\      /  F ield         | OpenFOAM: The Open Source CFD Toolbox
   \\    /   O peration     | Website:  https://openfoam.org
    \\  /    A nd           | Version:  8
     \\/     M anipulation  |
\*---------------------------------------------------------------------------*/
FoamFile
{
    version     2.0;
    format      ascii;
    class       volScalarField;
    location    "2400";
    object      alpha;
}
// * * * * * * * * * * * * * * * * * * * * * * * * * * * * * * * * * * * * * //

dimensions      [0 0 -1 0 0 0 0];

internalField   nonuniform List<scalar> 
526318
(
0.00030162
0.000472938
0.000422633
0.000671934
0.000461805
0.000577058
0.000426113
0.000662279
0.000412283
0.000361639
0.000890124
0.000453569
0.000769401
0.000476798
0.000730516
0.000652715
0.00064056
0.000210109
0.00034186
0.000384331
7.27206e-05
0.000427406
0.00039143
0.000217087
0.000382329
0.000711879
0.000184834
0.000106709
0.000427106
0.000214947
0.000188296
0.000254396
0.000225339
0.000238296
0.000626365
0.000584335
0.000785043
0.000491561
0.000281837
0.000640442
0.000708126
0.000370955
0.000725435
0.000295057
0.00122664
0.000767667
0.00143148
0.00104162
0.000478742
0.000871452
0.000604996
0.000576978
0.000490218
0.00058375
0.00418134
0.00121204
0.000625213
0.0055034
0.00034964
0.000129093
0.000199863
0.000388303
0.000433764
5.57299e-05
0.000203734
0.000329178
0.000162421
0.000122536
0.00079218
0.000532387
0.000420981
0.00073462
0.000457833
0.000499188
0.000359442
0.000858928
0.000534568
0.000513386
0.000285197
0.000295106
0.000408909
0.000263686
0.000331683
0.000514061
0.000386868
0.000288147
0.000458004
0.000521813
0.000653524
0.000437805
0.000357051
0.000289729
0.000724436
0.00039217
0.00104822
0.000696542
0.000252037
0.000110158
0.000201893
0.000456994
0
0
0.0486464
0.00159798
0.00641145
0
0.00113255
0.00194235
0.000820145
0.000479939
0.000356002
0.000588731
4.26667e-05
0.000395174
0.000320832
7.9555e-05
7.06103e-05
0.000281314
0.000267939
0.0006862
0.000232255
0.000365394
0.000587665
0.000611001
0.000234332
0.000675361
0.000605669
0.00108978
0.000737359
0.00140732
0.00105604
0.00110486
0.00111098
0.00145535
0.00142342
0.00109161
0.00106526
0.00207292
0.00160719
0.0014391
0.00206492
0.00111924
0.0014585
0.00187589
0.00092058
0.00207634
0.000864997
0.00127927
0.00150955
0.00156034
0.00196199
0.00255716
0.000887381
0.00166511
0.00136129
0.0015339
0.00257114
0.0014939
0.00226131
0.000518015
0.00252312
0.00241045
0.00261614
0.000105678
0.000413736
0.000371568
0.000337538
0.00072812
6.25828e-05
0.000481769
0.000499608
0.000275257
0.000131366
0.000456421
0.000283161
0.000167364
0.000458242
0.000474955
0.000284671
0.000263216
0.000464684
0.000315853
0.000500246
0.000575755
0.000625154
0.00124994
0.00136085
0.00143945
0.00109143
0.0012706
0.00114214
0.00116669
0.0015414
0.00164622
0.00124173
0.00165669
0.0016003
0.0010212
0.00180983
0.00180153
0.00163089
0.0011169
0.00173664
0.00222385
0.00138318
0.00178554
0.00236299
0.00121013
0.00152751
0.00157011
0.0004651
0.000556292
0.000436351
0.000625303
0.0012846
0.000440828
0.000558196
0.000745421
0.000260183
0.00219032
0.000605061
0.00277784
0.000242865
0.000670234
0.00148519
0.000991867
0.000945099
0.000947988
0.000468523
0.175295
0
0.0136268
0.00733005
0
0
0
0
0
0
0.000141488
0.000141978
0.000296085
9.09484e-05
0.000326217
0.000385668
0.000450492
0.000164899
0.000350192
2.68355e-05
0.000415894
0.000595127
0.000165138
0.00014361
0.000663888
0.000153821
5.86408e-05
0.000777732
0.000539708
0.000479586
0.000419193
0.00026038
0
0
0
0.204254
0.0130393
0
0.0595279
0.00325797
0.000975374
0.00039273
0.000701838
0.00046994
0.00038572
0.000272872
5.91824e-05
6.40705e-05
0.000331669
0.000135473
0.000152139
0.000130414
0.000458772
0.000324503
0.000314607
0.000511882
0.00122447
0.00081224
0.00124022
0.00102336
0.00199092
0.00104468
0.00140486
0.00200153
0.00427397
0.000601605
0.000915703
0.00152942
0.00112891
0.000666418
0.00152327
0.00187728
0.0025042
0.00335319
0.00212482
0.00176458
0.00206228
0.00131193
0.00206226
0.00227016
0.00160415
0.00169168
0.00344048
0.000777081
0.00395506
0.00279572
0.0021136
0.00111009
0.00102008
0.00153253
0.000495417
0.00115638
0.00069942
0.00183453
0.000665343
0.000971415
0.000251984
0.000192777
0.00051979
0.00023956
0.000143443
0.000147695
0.000213812
0.00100873
0.000658218
0.000288132
0.000157995
0.00097813
0.000353016
0.00042467
0.000842999
0.00143747
0.00127367
0.00135572
0.00109573
0.00141252
0.00125938
0.00123272
0.00124817
0.00149199
0.00147364
0.0018947
0.00134677
0.00185584
0.00143442
0.00154771
0.00152372
0.0014837
0.00147931
0.00115785
0.00150307
0.00138885
0.000981274
0.000857417
0.000786435
0.000743473
0.000926569
0.00122021
0.000717855
0.000966088
5.76894e-05
0.000481553
0.000773315
0.000447896
0.000879397
0.000903959
0.000873245
0.000937164
0.000371753
0.00100562
0.000453864
0.000389306
0.00151162
0.000802061
0.000366461
0.00174261
0.000546637
0.000461797
0.0007999
0.00471382
0.00534839
0.00629215
0.00708709
0.00143847
0.00131978
0.000878894
0.00166473
0.000994289
0.000993545
0.000386487
0
0
0.024741
0
0.00377389
0.0557424
0
0.130998
0
0
0
0
0
0
0
0
0.000122532
0.000512533
0.000183827
0.000273673
0.000158547
7.15411e-05
4.25109e-05
0.000164477
0.000582533
0.000309451
3.82964e-05
4.84897e-05
0.000191149
0.000413861
0.000555037
0.000126525
0.000236895
0.000162236
0.000541375
0.000439693
0.000311608
0.000588582
0
0.0070455
0
0
0
0
0
0
0.00051699
0.00456867
0
0
0
0
0.00733613
0
0
0
0
0
0
0.055145
0.00566391
0.0161197
0.000297571
0.00901818
0.000588388
0.000377579
0.000493581
0.000539838
0.000262648
0.000439356
0.000118292
0.00035535
0.000206799
0.000199861
0.000188474
0.000187975
0.000439155
0.000408712
0.00076477
0.000285792
0.000591589
0.00105316
0.0011615
0.00111771
0.00114812
0.00163097
0.000727322
0.00104175
0.00310434
0.00354803
0.00128215
0.000505983
0.00356175
0.00104123
0.00248267
0.00115091
0.00136211
0.00336084
0.00210402
0.000484419
0.00293891
0.00153831
0.00511452
0.00400464
0.00646134
0.0061404
0.00237581
0.000789641
0.00107101
0.000883233
0.0011756
0.00165347
0.0010713
0.00113357
0.00110385
0.000485459
0.000533139
0.000632433
0.00116304
0.00144484
0.00179188
0.000755201
0.000929869
0.00102319
0.000890651
0.000124488
0.000510428
0.000539125
0.000349709
0.000215524
0.00048719
0.000442906
0.000346103
0.000635342
0.000514575
0.000204833
0.000960048
0.000908026
0.000846228
0.00193219
0.00139142
0.0040789
0.00183918
0.00132792
0.00129351
0.00171547
0.00139855
0.00178414
0.000830043
0.00179823
0.00132323
0.00187285
0.0019147
0.00181871
0.00184173
0.00140695
0.00141062
0.00135314
0.00132387
0.00129888
0.000961439
0.00124079
0.00124869
0.00120015
0.00102927
0.00127223
0.000764794
0.000494386
0.00150392
0.000540235
0.000841196
0.000884344
0.000735106
0.00110768
0.000837274
0.00055305
0.00111639
0.0011953
0.00100599
0.000678851
0.000803497
0.000507134
0.00042089
0.000446858
0.00060846
0.00114701
0.00166228
0.00042476
0.000770121
0.000877961
0.00111992
0.000768569
0.000594988
0.0187888
0.00766031
0.00325835
0.00141028
0.000877295
0.00185819
0.00270509
0.00151926
0.00122475
0.00222027
0
0
0
0
0.0284138
0.0214151
0
0
0
0
0
0
0
0
0
0
0
0
0
0
0
0
0
0
0
0
0.00811877
0
0
0.000900813
0.00331316
0.0088361
0
0
0
0
0
0
0
0
0
0
0
0
0
0
0.000348616
1.43125e-05
0.000208306
0.000386654
0.000240224
0.000372191
0.000831207
0.000230919
0.000352786
0.000183654
0.000699843
0.000100108
0.000262445
0.000530429
0.000317946
0.000425824
0.000404875
9.46463e-05
0.000650182
0.000264855
0.000706694
0.000399845
0
0
0
0
0
0
0
0
0
0
0
0
0
0
0
0
0
0
0
0
0
0
0
0
0
0
0.0350067
0
0
0
0.00363537
0
0.00247702
0.00352653
0.000323462
0.000787167
0.00024895
0.000138989
0.000146524
0.000160467
0.000401609
0.000307234
0.000143918
0.000162816
0.000216901
0.000334212
0.000436449
9.58684e-05
0
0
0
0
0
0
0
0
0
0
0
0
0
0
0
0.0361145
0
0.00056224
0.000592154
0.000284081
0.00108464
0.00123059
0.000654162
0.00211782
0.00162599
0.00140538
0.00219274
0.0033537
0.00216053
0.0043835
0.00150101
0.00259743
0.00446426
0.00328838
0.0030184
0.00199685
0.00336918
0.00721563
0.00917088
0.00803243
0.00459292
0.00448407
0.00170648
0.00558892
0.00326382
0.00807039
0.00785301
0.0182639
0.0150525
0.000564174
0.000742982
0.000541117
0.000848055
0.000816355
0.00100169
0.000664108
0.000573163
0.000428741
0.000454902
0.00148601
0.00129524
0.00146186
0.000711018
0.00083454
0.00178294
0.000777353
0.000585505
0.00257042
0.00189034
0.00238433
0.00346502
0.00066193
0.000977688
0.000918761
0.00076815
0.000621465
0.000367952
0.000442233
0.000435961
0.00117036
0.00136884
0.00121969
0.000683083
0.00141889
0.000895637
0.00322482
0.00267537
0.00664741
0.0044491
0.007889
0.00290789
0.00229546
0.00372925
0.00177941
0.00182282
0.00238313
0.00105521
0.00236993
0.00171914
0.00111803
0.00151819
0.00125617
0.0017419
0.00166314
0.00142493
0.00155056
0.00150457
0.00177062
0.00128518
0.00123242
0.000761694
0.000880519
0.00121786
0.000984863
0.0012995
0.000910969
0.00128514
0.00116794
0.000766938
0.00044105
0.000786579
0.000493425
0.000530945
0.000840147
0.000549196
0.00036981
0.000653528
0.000481499
0.000716194
0.000432234
0.000602244
0.000351234
0.000383614
0.000325571
0.00040244
0.000420727
0.000417814
0.000419488
0.000382982
0.000344508
0.000365379
0.000331769
0.000316317
0.000255061
0.000339971
0.000241631
0.000329626
0.000293169
0.000295417
0.000245926
0.000265177
0.000204531
0.000247673
0.000245166
0.000300678
0.000197673
0.000290383
0.000200144
0.000302939
0.00018107
0.000235887
0.000268756
0.00024447
0.000255886
0.000188942
0.000243189
0.00028187
0.000201797
0.000203345
0.000263383
0.00140337
0.00140446
0.000725021
0.000377229
0.000860696
0.000812786
0.000766636
0.000264825
0.000812504
0.0098399
0.00474635
0.00323367
0.00304172
0.0334395
0.00980168
0.00664518
0.00202276
0.00571818
0.00142259
0.00569102
0.00988228
0.0128296
0.0020213
0
0.0164363
0
0
0
0
0
0
0
0
0
0.0149574
0
0
0
0
0
0
0
0
0.0169868
0
0
0
0
0
0
0
0
0
0
0
0
0
0
0
0
0
0
0.0153838
0
0
0.0193122
0
0.0504104
0
0.00781659
0.0448135
0.000529698
0
0.0277356
0.0538488
0
0
0.0141273
0
0
0
0
0
0
0
0
0
0
0
0
0
0
0.0137015
0
0
0.000144377
0.000155956
0.000137226
0.000236175
0.000688426
0.00025388
0.000173701
0.000523976
0.000671625
0.000642389
0.000159392
0.000276723
0.000313562
0.000955941
0.000387107
0.00051031
0.000758055
0.000540552
0.000459123
0.000240251
0.000546008
0.000399046
0
0
0.0198696
0.0103722
0
0
0
0
0
0.00292221
0
0
0
0
0
0
0
0
0
0
0
0
0.0215618
0.0138096
0
0
2.37595
0.00945191
0.000921293
0.00439101
7.91551e-05
0.000109661
0.000117381
0.000151414
0.000394295
0.000122532
0.00014029
9.7329e-05
0.000161492
0.000239187
0.000232215
0.000345413
9.54676e-05
0.000220572
0.00291525
0
0.957112
0
0
0.000675612
0
0
0.000259271
0
0
0
0
0
0
0
0
0
0
0
0
0
0
0
0.01536
0
0.00071814
0.00058791
0.00165655
0.000362206
0.00323014
0.000773993
0.00291834
0.00406539
0.0030299
0.00270499
0.0035321
0.00698448
0.00263745
0.00606353
0.0114013
0.00214958
0.00218487
0.00322124
0.00313701
0.00201593
0.0607453
0.032036
0.00600951
0.0198968
0.019952
0.00627631
0.0510485
0.0752778
0.12914
0.0442201
0.0529995
0.0122089
0.00032524
0.000394631
0.000530791
0.000669837
0.000836292
0.00101533
0.000392277
0.000576782
0.000448862
0.000386952
0.000358646
0.000395052
0.000361806
0.000384677
0.000318563
0.000284376
0.000261615
0.000284535
0.000280563
0.000334387
0.00024978
0.000307796
0.000210847
0.000309108
0.000219786
0.000234246
0.000273593
0.000228814
0.000297484
0.000244518
0.00112921
0.0016883
0.00130281
0.000540825
0.00157623
0.00158293
0.00103589
0.00156468
0.00328914
0.00201898
0.0122383
0.000301118
0.0023837
0.000328105
0.00156845
0.000885255
0.000300983
0.000540517
0.000710352
0.00168823
0.00181371
0.00707674
0.00569747
0.00505065
0.0115361
0.0113576
0.125549
0.0147397
0.00751051
0.0124859
0.0127163
0.00855268
0.00286491
0.00524681
0.0023487
0.00247475
0.00350324
0.00174067
0.00117073
0.00163142
0.00153541
0.00131335
0.00154534
0.00136388
0.00127419
0.00113472
0.00100451
0.00115352
0.000731483
0.000946968
0.000827112
0.000562681
0.000720534
0.000882625
0.000482913
0.000987355
0.000818423
0.000832785
0.000517395
0.000390302
0.000817217
0.000415891
0.000397683
0.000689819
0.000165693
0.000563853
0.000643426
0.000378511
0.000624734
0.000404188
0.000494228
0.000179284
0.000422569
0.000387442
0.000319726
0.000358452
0.000211505
0.000204355
0.000253505
0.000172232
0.000268004
0.000213833
0.000226372
0.000242152
0.000214358
0.000242322
0.000145724
0.000229486
0.000219777
0.00025668
0.000181783
0.000197334
0.000223582
0.00026304
0.000197192
0.00023127
0.000225152
0.000199461
0.000161573
0.000156613
0.00021374
0.000189229
0.000218254
0.00456649
0.00194541
0.000552621
0.00151967
0.00120433
0.002226
0.000804158
0.00115423
0.00105215
5.95018e-05
0.00440667
0.00189882
0.00697745
0.00326713
0.00449758
0
0
0.00270304
0.277032
0.00529241
0.00931513
0.0129571
0.0036183
0.0102351
0.00956179
0
0
0
0
0.0109831
0.00837802
0
0
0
0.0222073
0
0
0
0
0
0.0334147
0
0.0174798
0
0
0
0
0
0
0
0
0.00159493
0
0
0
0.0060667
0
0
0
0
0
0
0
0
0
0
0
0
0
0
0
0
0.0128238
0
0.00758365
0
0
0
0
0
0
0
0
0
0
6.37009e-05
0.000358413
0.000290605
0.000194059
0.000140121
0.000125996
0.000875924
7.39404e-05
0.000654098
0.000519915
0.000195464
0.000714421
0.000492651
0.000270692
0.000341213
0.000857338
0.00111145
0.000613621
0.000220611
0.000325331
0.000420657
0.000322124
0.910818
0
0.00968989
0
0
0
0
0
0
0
0
0
0
0
0
0
0
0
0
0
0
0
0
0.028454
0
0
0.00859696
0.00366343
0.000248125
0.001464
0.000149672
0.00010048
0.000182297
0.000222596
4.55198e-05
0.000516536
6.14922e-05
0.000120847
0.000377111
0.000265255
0.000244473
8.5821e-05
0.000366924
0.000249504
0
0
0
0
0
0
0
0
0
0
0
0
0
0
0.00614362
0
0
0
0
0.00227744
0
0.0018564
0
0
0.0373479
0
0
0
0
0
0
0.000840313
0.00100229
0.000880147
0.00178084
0.00395022
0.00165532
0.00116603
0.00361926
0.000599188
0.000799592
0.000573921
0.0119706
0.00334881
0.0760666
0.0251638
0.00589435
0.00220166
0.0205972
0.00238728
0.00305685
0.00520148
0.00430481
0.00697098
0.0194657
0.0725439
0.0464687
0.0174599
0
0
0
0.353032
0.0168762
0.190821
0
0
0.000153919
0.000101405
0.000132293
0.000121097
8.66086e-05
0.000144009
0.000119917
0.000105575
0.000115971
9.72811e-05
0.000148118
0.000121515
0.000150123
0.000108377
0.000160793
0.000173409
0.000188431
0.000153875
0.000135859
0.000151971
0.000145598
0.000149017
0.000102041
0.000162838
0.000125854
0.000123422
0.000140743
0.000157689
0.000146247
0.000258799
0.000268321
0.000249778
0.000244377
0.00018903
0.000207813
0.000301072
0.000439859
0.000444187
0.000615273
0.000947438
0.000586566
0.000411411
0.000488502
0.00036947
0.000341738
0.000329321
0.000288793
0.000345132
0.000342516
0.000333534
0.000304586
0.000331329
0.000327684
0.000282717
0.000364604
0.000253567
0.000321668
0.000266549
0.000312734
0.000290486
0.000282843
0.000276529
0.000312626
0.000938985
0.00119235
0.000779353
0.00145467
0.00143799
0.000506697
0.000743141
0.000585742
0.00205147
0.00161597
0.00300546
0.000150747
0.000128138
0.000159472
0.000157498
0.00011452
0.000108076
0.00011317
0.000108558
7.50796e-05
0.000131895
7.50549e-05
0.000118363
8.55893e-05
9.23224e-05
0.000110092
0.000120534
8.44469e-05
0.000125992
0.00510526
0.00575206
0.00930732
0.000941942
0.00153901
0.00015531
0.0025989
0.00231245
0.00230972
0.00355101
0.00784485
0.00622784
0
0.0178221
0
0
2.29952
0
0.0143299
0.0270515
0.905062
0.00664763
0.00386439
0.00482384
0.00305799
0.00569337
0.000677718
0.00344548
0.00145687
0.00170173
0.00164904
0.00145371
0.00123442
0.000948385
0.000883935
0.000970379
0.000574835
0.00111182
0.000622451
0.000948909
0.000939798
0.000753591
0.000860732
0.000771978
0.000470648
0.000572571
0.000647909
0.00063054
0.000406332
0.000374479
0.000124045
0.000471479
0.000528015
0.000211874
0.000396949
0.000237634
0.000515892
0.000267715
0.000559218
0.00018867
0.000390419
0.000380583
0.000281242
0.000318485
0.000206825
0.000225406
0.000163704
0.000127002
0.000220443
0.000151195
0.000200176
0.000211994
0.000205428
0.000201837
0.000171167
0.000184129
0.000179091
0.000201101
0.00012014
0.000205797
0.000172546
0.000349263
0.000163032
0.000186139
0.000160523
0.0134566
0.00289178
0.00773641
0.0112864
0.00862161
0.00418825
0.00749794
0.000579839
0.00417626
0.0301974
0.0155874
0.0259027
0
0.00635478
0.0108848
0
0
0
0
0.0106501
0.204485
0.107757
0.0670821
0
0
0
0
0
0.0102522
0.0108443
0.0117103
0
0.000114612
0
0
0
0
0
0
0
0
0
0.039348
0
0
0
0
0
0
0
0
0.205048
0
0.00148201
0
0
0
0
0
0
0.00213127
0
0
0
0.00574751
0
0
0
0
0.00976715
0
0
0
0
0
0
0
0
0.0271681
0
0
0
0
0
0
0
0
0
0
0.0134316
0
0
0
0
0.0118805
0.000153189
0.000197164
0.000167959
0.000172273
0.00015567
0.00012499
0.000528608
0.000251615
7.31283e-05
0.000298198
0.000453092
0.000228476
0.000415131
0.000822277
0.000673014
0.000275613
0.000424877
0.000510933
0.000348744
0.000229049
0.000250053
0.000846982
0.000269124
0.000127301
0.000434518
0
0
0
0
0
0
0
0
0
0
0
0
0
0.00271005
0.0037422
0.00375445
0
0
0
0
0
0
0
0
0
0
0
0.000827723
0.000262261
0.000244556
0.000226523
0.000371569
0.000239536
0.000417442
0.000288876
0.000101095
0.000445397
0.000185615
0.000132889
4.35443e-05
0.000325487
0.000340283
0.000174806
0
0.00431993
0
0
0
0
0
0
0
0
0
0
0
0.0339887
0
0
0
0.0349652
0
0.0208529
0
0
0
0.0222258
0
0
0
0
0
0
0.0111993
0
0
0
0
0
0
0.000579138
0.000392541
0.000996485
0.000186989
0.00127741
0.00162093
0.00117126
0.00830452
0.00526163
0.00781672
0.0431165
0.000808492
0.000840304
0
0
0
0.156666
0.0275817
0.0626201
0.0188115
0.340685
0.00915451
0.0200486
0.00622649
0.00651712
0
0
0
0
0
0
0
0
0
0
0
0
0.000138375
0.000158268
0.000120737
0.000116906
0.000145056
9.99424e-05
0.00014029
0.000140721
0.000178549
0.000165414
0.000159996
0.000173793
0.00016183
0.000176732
0.000174104
0.000155522
0.000278772
0.000269202
0.000249957
0.000245621
0.000225925
0.000195751
0.000356578
0.00058269
0.000580321
0.000324197
0.000490708
0.000879339
0.000491725
0.000452168
0.000253101
0.000350274
0.000330774
0.000482406
0.000302764
0.0003644
0.000392809
0.000304924
0.000389391
0.000355309
0.000364868
0.000337669
0.000370583
0.000298194
0.000350464
0.000326524
0.000280899
0.000271216
0.000299701
0.000277252
0.000287729
0.0002974
0.000281908
0.000561444
0.00229241
0.000894423
0.000675188
0.0016879
0.00138987
0.000572863
0.000743147
0.00145844
0.000420615
0.00496874
0.00173264
0.00015139
0.000140825
0.000127159
0.000147405
0.000133804
9.93103e-05
0.000136462
9.03452e-05
9.84856e-05
6.3707e-05
0.000105985
0.000117635
6.79322e-05
8.59172e-05
8.61075e-05
7.9021e-05
0.000108639
0.000140549
0.000108994
0.000123741
0.000100867
0.000108684
0.000152341
0.000185258
0.000196764
0.00722929
0.0189444
0.0131304
0.0190131
0.00296979
0.00450246
0
0.287525
0.0403612
0
0
0
0
0.0104619
0
0.00486654
0
0
0.0916262
0
0.0202349
0.0206397
0.0060265
0.0250247
0.000931732
0.00157072
0.00426448
0.00272038
0.00203562
0.0015555
0.000974581
0.00139155
0.00124637
0.00120432
0.000749799
0.000993482
0.000810759
0.000546157
0.000625176
0.000482926
0.000789633
0.000834347
0.000651251
0.000808492
0.000360214
0.000217934
0.000272684
0.000396102
0.000346796
0.000713442
0.000310018
0.000180466
0.000406706
0.000128643
0.000434378
0.000218021
0.000460107
0.000222534
0.000340882
0.000218384
0.000363542
0.000204233
0.000212721
0.000120674
0.000134394
0.000134146
0.000164576
0.000159161
0.000154589
0.000169963
0.000161115
0.00016158
0.000132995
0.000157682
0.000116511
8.78766e-05
0.000169141
0.000129513
0.000289419
0.000216452
0.000186059
0.00031864
0
0
0
0
0.00596082
0.0121347
0.0269964
0.0400443
0.00361939
0
0
0
0
0
0
0
0
0
0
0
0
0
0
0
0
0
0
0
0.0141624
0.00603308
0
0
0
0
0
0
0
0
0
0
0
0
0.0171515
0
0
0
0
0
0
0
0
0.535898
0
0
0
0.00778256
0.00571029
0
0.00437944
0.0119133
0
0
0.0302085
0
0.00782603
0.00459822
0
0
0.00827767
0.0108263
0
0
0
0
0.0126119
0
0.0213726
0
0
0
0
0.0116448
0.0071224
0.00780679
0
0
0
0
0
0
0
0
0
0
0.00687998
0
0
0
0
0
0
0
0
0.000195529
0.000191812
0.000183534
0.000230319
0.000205849
0.000242543
0.00021604
0.00020524
0.000238358
0.000243007
0.000280157
0.000678586
0.000403977
0.000474825
0.000847652
0.000246403
0.000259627
0.00076775
0.000293815
9.57798e-05
0.000446046
0.000415736
0.000198904
0.000426789
0.000441729
9.4176e-05
0.000634808
0
0
0
0
0
0
0
0.00140717
0.00120184
0.00465957
0
0
0
0
0.181108
0
0.00800476
0
0
0.00216841
0
0
0
0
0
0.000579062
0.000578847
0.000643865
0.000441812
6.06899e-05
0.000175877
2.12014e-05
0.000464846
0.00023355
7.67281e-05
0.000434916
0.000299572
0.000302181
0.000177492
0.0003146
0.000576801
0
0
0.00101053
0.013361
0
0
0.0135363
0.0553601
0
0
0
0
0
0
0
0.00584368
0.000504548
0.00501808
0
0
0
0.0258132
0
0
0
0.0322559
0
0
0
0
0
0
0
0
0
0
0
0
0
0
0
0
0.0571772
0
0
0.000480699
0.000922267
0.000665601
0.00135295
0.00207103
0.00426177
0.00136189
0.0168241
0.0205498
0
0
0.0528779
0.02248
0.00825535
0.004377
0
0
0
0
0
0
0
0.0408513
0.00106276
0.0156662
0.00566147
0.0126812
0
0
0
0.00955456
0
0
0
0
0
0
0
0.00682972
0.000163666
0.000172007
0.00013328
0.000137887
0.00019195
0.000173791
0.000237033
0.000208997
0.000133583
0.00024656
0.000220012
0.000239276
0.000223582
0.000243505
0.000181754
0.000167109
0.000203142
0.000168794
0.000191059
0.000186549
0.000184027
0.000207348
0.000283305
0.000283703
0.000263924
0.000241421
0.000240692
0.000183449
0.000432718
0.000627325
0.00049925
0.00034917
0.000762651
0.000606966
0.00045267
0.000497315
0.000299396
0.000318336
0.000301295
0.000511187
0.000336394
0.000341418
0.000316019
0.000270171
0.000338002
0.000319954
0.000334456
0.000301178
0.000283244
0.000240075
0.000272035
0.000252315
0.000321401
0.000237161
0.000280406
0.000305477
0.000262842
0.000271865
0.00191557
0.00153125
0.000612113
0.000785876
0.000606558
0.00125503
0.000853056
0.000778206
0.0011872
0.00113506
0.00117064
0.00263555
0.000106541
0.0001121
0.000159832
0.000121761
0.000181796
8.96715e-05
5.95337e-05
0.000108774
9.41366e-05
8.56081e-05
8.7152e-05
9.08481e-05
5.90724e-05
8.63699e-05
4.88344e-05
7.12863e-05
6.79179e-05
0.000121073
9.95329e-05
0.000173761
0.000154494
7.90809e-05
7.20175e-05
0.000197495
0.000229253
0
0
0
0
0
0
0
0
0.00939967
0
0
0
0
0
0
0
0.0166124
0
0.851466
0.607822
0
0.0559554
0.00227084
0.014243
0.00194337
0.00160032
0.00220268
0.00533831
0.00149843
0.00104647
0.00134987
0.000749713
0.00101066
0.000871163
0.000731177
0.000656474
0.000588596
0.000723457
0.000424139
0.000257098
0.000641737
0.000441579
0.000363898
0.000297662
0.000490742
0.000417797
0.00040209
0.000207744
0.000463881
0.000273502
0.000394719
0.000236341
0.000382157
0.000146949
0.000262703
0.000471024
0.000280527
0.000288175
0.000207922
0.000219636
0.000116282
0.000126485
0.000124781
0.000151752
0.00014817
0.00015833
0.000110131
0.000147175
0.000114975
0.000115723
0.000122786
9.73907e-05
0.000135508
0.000111656
0.000183344
0.000118198
0.000241299
1.72926e-05
0.000352146
0
0
0.162075
0.00085215
0
0
0
0
0
0
0
0.00085742
0
0.00939847
0.0136983
0.0111323
0.00556969
0
0.0180322
0.0438422
0
0
0
0.00368214
0
0.0162487
0.0085538
0
0
0
0
0
0
0
0.0263688
0.0105296
0
0
0
0
0
0
0.0354421
0
0
0
0
0
0
0
0
0
0
0
0
0
0
0
0
0
0
0
0
0
0
0
0
0
0
0
0
0.0869072
0
0
0
0
0
0
0
0
0
0
0.0203946
0
0
0
0
0
0
0
0
0
0
0
0
0
0
0
0
0
0
0
0
0
0
0
0
0
0
0
0
0
0.00482698
0
0
0
0
0.000241209
0.000217299
0.000251419
0.000259007
0.000281091
0.000268765
0.00021186
0.000226596
0.000266406
0.000274456
0.000279886
0.00030299
0.000318738
0.000236024
0.000251561
0.000268605
0.000584076
0.000639235
0.000362729
0.000561449
0.000122082
0.000420935
0.00072823
0.00013803
0.00064201
0.00038442
0.000362149
0.000412278
0.000948732
0
0
0
0.00799287
0.00559718
0.0010052
0.00441126
0.0164812
0
0.00929394
0
0
0
0
0
0
0
0
0.00270081
0
0.00215272
0
0
0
0.000562863
0.000118806
0.000258237
0.000367606
0.000338947
0.00021748
0.000162646
0.000354526
4.73298e-05
0.000687522
0.000416538
5.84423e-05
0.000257163
0.000345105
0.000573926
0.000386012
0
0.00392427
0
0
0
0
0
0.000462763
0
0
0.062109
0
0
0
0
0
0
0
0
0.000392673
0
0
0
0
0
0
0
0
0
0
0
0
0
0
0
0
0
0
0.00433638
0.0248551
0
0
0
0
0.013229
0
0
0
0
0
0
0
0
0
0
0
0
0.00068769
0.0018444
0.0011174
0.00473145
0.00365209
0.0233555
0.0251076
0.059464
0.0811505
0.0756405
0.0953325
0
0
0
0
0.031148
0.04155
0
0
0
0
0.00686437
0.00590919
0.00828777
0
0
0.0853058
0
0.0244128
0
0
0
0
0.0122871
0.0125258
0
0
0
0
0
0
0.000141527
0.000137835
0.000226443
0.000140861
0.000103376
0.00015322
0.000315828
0.000194762
0.000240042
0.00028714
0.000270625
0.000289057
0.000298909
0.00018422
0.000213467
0.000164682
0.000210284
0.000200378
0.000172237
0.000200496
0.000177454
0.000289785
0.00025196
0.000224069
0.000253312
0.000246117
0.000189089
0.000466364
0.000570998
0.000579802
0.000558192
0.000696579
0.000526485
0.000596911
0.000599985
0.000335459
0.000264561
0.000470113
0.000366987
0.000229255
0.000261177
0.000195667
0.000156084
0.000221901
0.000206951
0.000201253
0.00021955
0.000215663
0.000283967
0.000277991
0.000222574
0.000340456
0.000233512
0.000237531
0.000294812
0.000242107
0.000284976
0.00181587
0.000563371
0.000893264
0.000839893
0.00123665
0.000855381
0.000813047
0.000965619
0.000380068
0.00148205
0.00238695
0.00363384
0.0204604
0.00473959
0.00317326
0.000126846
1.73725e-05
0.000101229
0.000165586
5.55312e-05
6.91333e-05
2.83242e-05
0.00010349
3.46582e-05
7.06593e-05
6.87449e-05
6.20788e-05
4.57401e-05
6.13791e-05
3.68647e-05
6.03006e-05
0.000100569
8.5549e-05
0.000154138
0.000138021
0.000186326
0.000197919
7.21102e-05
5.35831e-05
0.00022888
0.000200746
0
0
0.0148806
0
0
0.00742484
0.0156982
0
0
0
0
0.00576483
0.00612352
0
0
0
0
0
0.0598275
0.247477
0
0.00796549
0.00998096
0.000659434
0.00620209
0.00207566
0.00111444
0.00433618
0.00121794
0.00112256
0.00127603
0.00107233
0.000742295
0.00119469
0.000816874
0.000567933
0.000410741
0.000704895
0.00030378
0.000414744
0.000580957
0.000354499
0.000215241
0.000243042
0.000194119
0.000458818
0.000326396
0.000140855
0.000218098
0.000164154
0.00027401
0.000409343
0.000187926
0.000199054
0.000214773
0.00023782
0.000100364
0.000226918
0.000110903
0.000149518
0.000105991
0.000147693
0.000119414
0.00017642
0.000163286
0.000106119
0.000133479
9.07849e-05
9.62164e-05
0.000109825
0.000107827
0.000105272
9.8349e-05
0.000137064
0.000117416
0.000135877
0.000156723
0.000119597
0
0
0.0169475
0
0
0
0
0.0369076
0
0.00275875
0
0
0
0.00805717
0.0139374
0.0237685
0.0221677
0.0137093
0.022283
0
0
0
0
0
0
0
0
0
0
0
0
0
0
0
0
0.0248761
0
0
0
0.132068
0
0
0
0
0
0
0
0
0
0
0
0
0
0
0
0
0
0
0.802172
0
0
0
0
0
0.0044879
0.00103995
0.00460886
0
0
0
0
0
0
0
0
0
0
0
0
0
0
0
0
0
0
0
0
0
0
0
0
0
0
0
0
0
0
0
0
0
0
0
0
0
0
0
0.00586275
0
0
0
0.00134265
0
0
0.000580728
0.0199585
0
0.00023069
0.000242488
0.000206634
0.000268841
0.000263376
0.000313098
0.00029754
0.000269732
0.000255267
0.000303595
0.000304137
0.00034618
0.000356683
0.00031058
0.000237957
0.000266062
0.000319966
0.000266122
0.000297595
0.000651696
0.000220845
0.000114791
0.000226584
0.000291202
0.000474451
0.000487983
0.00066276
0.000422884
0.000470799
0.00028475
0.000561284
0.000323487
0.000594105
0
0
0.000660469
0.000947578
0.00856237
0
0
0.0132936
0.0224431
0
0
0
0
0
0
0
0
0.0187759
0
0
0
0
0
0
0.000388956
9.82294e-05
9.67795e-05
0.000754303
0.000335804
0.000568839
0.000450348
0.000282416
0.000284392
0.000504899
4.36092e-05
0.000424298
0.000196495
0
0
0
0
0
0
0.0153108
0.00624285
0
0
0.0063841
0
0
0
0
0
0
0.592992
0
0
0
0
0
0
0
0
0
0
0.0494808
0
0
0
0
0
0
0
0
0
0
0
0
0
0
0
0
0.0127436
0
0
0
0
0
0.0144206
0
0
0
0
0
0
0
0
0
0
0
0.0032375
0.00611154
0.00154682
0.00908411
0.00571502
0.0746368
0.0113161
0.0613846
0.00246398
0
0
0
0
0
0
0
0
0
0
0
0
0
0
0.178556
0.0386937
0
0
0
0.0332321
0.0101452
0.00859023
0
0
0
0.00478424
0
0
0
0
0
0
0
0
0.000337272
0.00022024
0.000174894
0.000226214
0.000330963
0.000226447
0.000268711
0.000315412
0.000329002
0.000337618
0.000367474
0.000342259
0.000372291
0.000305652
0.000241209
0.000191668
0.000196479
0.000185462
0.000198563
0.000211825
0.000217973
0.00018919
0.00024951
0.000233327
0.000300912
0.000230542
0.000222418
0.000230523
0.000546825
0.000526846
0.000517198
0.00064087
0.000445783
0.000649499
0.000655594
0.000718574
0.000271989
0.000356938
0.000436438
0.000432866
7.27138e-05
7.11541e-05
0.000125733
0.000196302
9.36871e-05
0.000157276
0.000169654
0.000151253
0.00018523
0.000249679
0.000283899
0.000267772
0.000151855
0.000224991
0.000231391
0.000244081
0.000249768
0.000272646
0.000815472
0.00169153
0.00113012
0.000854526
0.00121452
0.0010469
0.00094269
0.000753285
0.000358597
0.000288175
0.00169031
0.00066883
4.37418e-05
0.00198819
5.13958e-05
4.39903e-05
3.55258e-05
5.00738e-05
5.66519e-05
9.69697e-06
6.69611e-05
2.96377e-05
7.9315e-05
4.84318e-05
3.92964e-05
4.52405e-05
2.53823e-05
4.84416e-05
8.01734e-05
0.000123363
0.000108309
0.000167467
0.000160229
0.000189828
0.000202932
4.86035e-05
1.17245e-05
0.000192957
0.000216995
0
0
0
0
0
0
0
0
0
0.00685907
0
0
0
0
0
0
0.0153686
0
0
0.0874384
0
0.00851394
0.00520962
0.00177695
0.0135808
0.00269136
0.000692711
0.00108484
0.000674049
0.00189848
0.000714677
0.00112156
0.000306816
0.00130087
0.000766779
0.00057785
0.000621992
0.00035151
0.000252703
0.000207049
0.000339459
0.000207773
0.000188838
0.000206886
0.000116914
0.000214947
0.000292377
9.38991e-05
0.000182529
0.000120725
0.000194784
0.000127213
0.000174248
8.94713e-05
6.98052e-05
0.000163438
0.000195852
8.20011e-05
0.000129304
0.00010891
0.000144955
8.94952e-05
8.14083e-05
0.000152195
9.15842e-05
0.000160394
9.97138e-05
0.000134036
0.000111288
8.71607e-05
0.000105606
8.79676e-05
7.40897e-05
0.000127384
9.81962e-05
7.33959e-05
5.20447e-05
4.40432e-05
0
0
0
0
0
0
0
0
0
0
0
0
0
0
0
0
0
0.0293891
0
0
0.0319278
0
0
0
0.000854736
0
0
0
0
0
0.00112369
0
0
0
0
0
0
0
0
0
0
0
0
0
0
0
0.0126977
0.0128581
0.0180151
0
0
0
0
0.00454461
0
0
0.00640834
0
0
0
0
0.0173485
0
0
0.00957335
0
0
0
0
0
0
0
0
0
0
0
0
0
0
0
0
0
0
0
0
0
0
0
0
0
0
0
0
0
0
0
0
0
0
0
0
0
0
0
0
0
0
0
0
0
0
0
0
0
0
0
0
0.00374865
0
0
0
0.0168963
0
0
0.000200489
0.000218057
0.000238465
0.000310367
0.00028207
0.000280737
0.000256595
0.000251368
0.000267517
0.000307702
0.000297384
0.00031483
0.000350663