/*--------------------------------*- C++ -*----------------------------------*\
  =========                 |
  \\      /  F ield         | OpenFOAM: The Open Source CFD Toolbox
   \\    /   O peration     | Website:  https://openfoam.org
    \\  /    A nd           | Version:  8
     \\/     M anipulation  |
\*---------------------------------------------------------------------------*/
FoamFile
{
    version     2.0;
    format      ascii;
    class       volScalarField;
    location    "2400";
    object      H;
}
// * * * * * * * * * * * * * * * * * * * * * * * * * * * * * * * * * * * * * //

dimensions      [0 1 0 0 0 0 0];

internalField   nonuniform List<scalar> 
526318
(
0.915605
0.871059
0.943225
0.851911
0.932649
0.880882
0.897093
0.815354
0.882016
0.75568
0.736672
0.858627
0.804125
0.844206
0.799723
0.826075
0.807027
1.00612
0.911186
0.952646
0.951353
0.902636
0.662563
0.904365
0.796174
0.657479
0.926061
0.928068
0.925678
0.940241
0.971562
1.01408
0.996929
0.87744
0.881417
0.847815
0.853093
0.947809
0.876652
0.81653
0.87548
0.855254
0.518802
0.571297
0.475034
0.528871
0.500806
0.619744
0.802537
0.704382
0.786639
0.786192
0.745144
0.700265
0.201187
0.441216
0.447099
0.234134
0.959199
0.960869
0.990361
0.942957
0.890001
1.01338
1.00905
0.96872
0.960823
0.960137
0.857497
0.840279
0.9673
0.738468
0.803389
0.691538
0.655626
0.63948
0.730862
0.73184
0.647071
0.681128
0.764957
0.778235
0.726931
0.674416
0.703462
0.761833
0.772891
0.751662
0.699273
0.778275
0.681366
0.625284
0.614565
0.556023
0.551584
0.552343
0.551173
0.549473
0.541658
0.551668
0.000784583
2.21039e-06
0.012738
0.0485375
0.108671
0.000429643
0.45748
0.268765
0.583247
0.546871
0.586886
0.701801
0.928985
0.815239
0.928326
0.94437
1.00875
0.98107
1.02042
0.542767
0.542658
0.549219
0.545218
0.502991
0.543622
0.454751
0.493726
0.407244
0.453333
0.40363
0.40439
0.395618
0.369412
0.364048
0.388344
0.331898
0.385337
0.336168
0.354548
0.299434
0.30543
0.330882
0.352192
0.3393
0.299014
0.300381
0.313656
0.304347
0.295577
0.304327
0.319656
0.305975
0.309123
0.307662
0.310786
0.276162
0.306838
0.308862
0.275279
0.231384
0.30356
0.262122
0.316019
0.819556
0.898992
0.856635
0.836462
0.636686
0.707784
0.638102
0.638483
0.638826
0.639552
0.657553
0.640006
0.574761
0.542659
0.511936
0.452717
0.509564
0.554591
0.549355
0.55387
0.440562
0.486714
0.373127
0.386547
0.393943
0.385034
0.387554
0.392925
0.383734
0.382006
0.376988
0.369823
0.349028
0.370916
0.364481
0.33682
0.318313
0.343012
0.32453
0.32315
0.33739
0.326281
0.332489
0.290567
0.312609
0.343977
0.340733
0.797129
0.816123
0.844857
0.804705
0.793078
0.79123
0.790953
0.670355
0.710498
0.46211
0.431424
0.435637
0.558485
0.695621
0.570471
0.609571
0.608193
0.555327
0.534377
0.044887
0.000176537
0.171129
0.385508
0.00027704
9.76159e-09
0.000995694
0.000255125
0.000396609
0.000963311
1.00618
0.985052
1.0396
1.03839
1.0031
0.99891
0.896304
0.987413
0.834325
0.776568
0.772449
0.770418
0.769612
0.784326
0.75424
0.757387
0.677747
0.745869
0.558608
0.612537
0.541021
0.55835
0.0009874
4.64191e-11
0.000121003
0.00101247
0.0222969
0.000880731
0.0229608
0.172235
0.551826
0.368663
0.603039
0.606402
0.72096
0.819815
0.937339
0.94054
0.980751
0.959176
1.02396
1.05112
0.523282
0.523645
0.481284
0.457095
0.354875
0.387592
0.315841
0.324049
0.315597
0.312303
0.300627
0.302456
0.229154
0.254942
0.290155
0.321643
0.376193
0.346362
0.307683
0.302976
0.238872
0.228555
0.283574
0.337374
0.259194
0.296426
0.298687
0.268157
0.263543
0.229272
0.229976
0.189125
0.189194
0.192671
0.186175
0.304476
0.338076
0.305603
0.346399
0.709639
0.664635
0.565257
0.656159
0.578008
0.629009
0.639945
0.62753
0.642477
0.633521
0.549273
0.46509
0.39318
0.376504
0.453499
0.389944
0.378932
0.488028
0.377647
0.430525
0.366636
0.370322
0.376419
0.366594
0.380612
0.376544
0.376295
0.380596
0.382406
0.376353
0.387526
0.37994
0.390266
0.388431
0.392253
0.36963
0.384299
0.370414
0.342266
0.342132
0.369239
0.398005
0.392945
0.367279
0.348314
0.37735
0.412032
0.418317
0.429763
0.38921
0.419163
0.435696
0.475569
0.431195
0.438186
0.459944
0.490034
0.615296
0.690533
0.610672
0.646798
0.73551
0.800228
0.695001
0.561388
0.667297
0.571252
0.593639
0.324573
0.27705
0.2954
0.289753
0.405482
0.525979
0.464109
0.529799
0.53149
0.554026
0.527641
0.000666694
0.000841568
0.103614
2.85369e-09
0.188353
0.0694794
0.000599399
0.00116947
0.000180524
0.00100962
0.000664765
0.00100889
0.000730728
0.000955715
0.000582482
0.000952703
1.0382
1.02161
1.06267
1.05258
1.02888
0.998851
0.922324
0.839781
0.771566
0.787159
0.761117
0.756773
0.741149
0.743351
0.723448
0.726173
0.670858
0.710725
0.640893
0.580903
0.526252
0.484
0.000956836
0.00121228
0.000992504
0.000663073
0.000354635
0.000718604
0.000571556
0.000420374
0.00121367
0.0012108
0.000664237
0.00100984
0.000781229
0.00100942
0.00133915
0.00017911
0.000296916
0.000521937
0.000986333
0.00099142
0.000127064
0.00102501
0.0890139
0.0609473
0.259209
0.105271
0.467338
0.626755
0.642933
0.729411
0.954349
0.849071
0.969122
0.96349
0.976784
1.01376
1.04126
1.05645
0.442562
0.444146
0.397359
0.421418
0.361286
0.324957
0.31535
0.316473
0.310704
0.315852
0.269452
0.260095
0.212858
0.220941
0.279651
0.245078
0.226862
0.273171
0.262115
0.278358
0.194893
0.182272
0.202601
0.218174
0.218967
0.175025
0.179008
0.172549
0.177543
0.161312
0.162068
0.458445
0.436287
0.441035
0.438503
0.457577
0.564405
0.521956
0.494053
0.382455
0.428463
0.41259
0.417915
0.31465
0.252001
0.435461
0.54021
0.435561
0.439441
0.419275
0.498818
0.484651
0.550325
0.587045
0.511654
0.492658
0.526503
0.404466
0.378824
0.371997
0.376243
0.29087
0.343981
0.270636
0.225215
0.202863
0.319731
0.320808
0.368195
0.367746
0.367222
0.368825
0.370692
0.376271
0.372515
0.383107
0.374129
0.388269
0.385504
0.392581
0.39037
0.415964
0.403776
0.428414
0.431725
0.378268
0.362388
0.429637
0.412137
0.396232
0.417175
0.399243
0.386433
0.437961
0.416305
0.515427
0.524574
0.473235
0.517615
0.531076
0.494264
0.585315
0.557249
0.620249
0.644898
0.669031
0.593086
0.590816
0.593727
0.554196
0.531743
0.500864
0.587682
0.440832
0.427829
0.471737
0.490676
0.173513
0.21923
0.312496
0.41958
0.460084
0.487224
0.399744
0.359714
0.322456
0.263111
0.000965631
0.00059563
0.000568222
2.2806e-06
0.098229
0.175595
0.000993891
0.000234006
0.00100979
0.000545241
0.00024476
0.000470015
0.000926911
0.000208943
0.000668875
0.000986846
0.000766556
0.000551352
0.000138864
0.000388285
0.00097475
0.00101
0.000135422
0.00100014
0.000977362
0.000382747
0.00118471
0.000965411
0.000977768
0.00118447
0.00118446
0.00118448
0.000844587
0.000999494
0.000972368
0.000201819
9.59135e-05
0.000989075
0.000892979
0.0009482
0.00100959
0.000881287
0.00100838
0.000997328
2.70386e-05
0.00098603
1.0188
1.03833
1.05792
1.04725
1.02219
0.953986
0.778448
0.856393
0.746159
0.741871
0.732045
0.721065
0.716645
0.71057
0.706979
0.708572
0.653279
0.627195
0.525614
0.565629
0.422561
0.464849
0.000851104
0.000624444
0.000948563
0.000967574
0.000969827
0.000959968
0.000986514
0.000867944
0.000998153
0.000705574
0.000677989
0.000965569
0.000971308
0.000759356
0.000363775
0.000983729
0.000690401
0.00100737
0.000803925
0.000839513
0.000369052
0.000975289
0.000889611
0.000439439
0.000917861
0.000958039
0.00114726
0.000171578
1.07075e-05
0.000365725
0.130133
0.000258269
0.1472
0.144968
0.443277
0.273383
0.650637
0.609501
0.674132
0.781615
0.886136
0.96591
0.980045
0.967484
1.00243
1.04225
1.02011
1.02419
0.00101
0.000734461
0.000886173
0.00027503
0.000939994
0.000922867
0.00081396
0.000927793
0.000890554
0.00075788
0.000975785
0.00092383
0.000794854
6.36832e-07
0.000696213
0.00103814
0.000170373
0.424951
0.42303
0.423221
0.387447
0.307415
0.343587
0.26877
0.258476
0.225617
0.221195
0.173261
0.175664
0.204043
0.198388
0.159725
0.18757
0.187025
0.237311
0.219764
0.221046
0.13773
0.116663
0.108873
0.160633
0.167045
0.164294
0.140862
0.148618
0.107349
0.0919209
0.0545822
0.0638821
0.659901
0.628059
0.665978
0.677444
0.620167
0.58196
0.753574
0.771001
0.833629
0.846782
0.395076
0.433756
0.484393
0.570307
0.391276
0.332998
0.372805
0.371995
0.208105
0.268494
0.316052
0.203091
0.418721
0.415408
0.422088
0.413896
0.440625
0.419206
0.429112
0.44876
0.327642
0.320227
0.218215
0.309156
0.294957
0.256368
0.205315
0.231099
0.169099
0.185703
0.167243
0.252989
0.316105
0.250073
0.316733
0.367381
0.363704
0.369989
0.366921
0.373331
0.390674
0.385444
0.402826
0.396603
0.418457
0.411542
0.435921
0.432226
0.436797
0.431428
0.443101
0.439872
0.479357
0.449237
0.4159
0.413855
0.481036
0.448249
0.457172
0.496277
0.538289
0.537579
0.54135
0.536156
0.571323
0.62171
0.686686
0.701054
0.715703
0.688126
0.834215
0.773189
0.899508
0.941615
0.929274
0.967147
1.02251
0.887298
0.973739
0.997518
1.06884
1.11889
1.14699
1.16618
1.19644
1.14088
1.19849
1.15457
1.23383
1.23412
1.2862
1.25381
1.31531
1.34714
1.33301
1.2834
1.34784
1.37195
1.3403
1.33277
1.40122
1.37817
1.40664
1.34816
1.34814
1.41307
1.37861
1.33301
1.33321
1.36562
1.39999
0.389668
0.362067
0.528672
0.522708
0.494418
0.491571
0.491952
0.258932
0.387186
0.0909265
0.12071
0.218896
0.210039
0.0885027
0.16146
0.153413
0.32147
0.225028
0.224719
0.137536
0.131246
0.14177
0.162685
0.000349388
0.00106965
0.000683709
0.000146763
0.000913198
5.0752e-05
0.00101
0.000966006
0.000995857
0.0007035
2.31661e-05
0.00125343
0.000842141
0.000928041
0.000844807
0.000851353
0.000177845
0.00069126
0.000943677
0.000831092
0.0011185
0.000810628
0.00012748
0.000146108
0.000949
0.000255762
1.53441e-05
1.61879e-05
0.000990101
0.000818938
0.00100231
0.000825397
0.00091624
0.000410555
0.000483556
0.000714413
0.000762255
0.000945839
0.000952861
0.00101343
0.0010096
0.000994975
0.00134411
0.000892005
0.00118268
0.000917652
0.00118071
0.00117421
0.00119204
0.000939747
0.0011753
0.00117299
0.000271759
0.000898916
0.00103359
0.000919493
0.000920142
0.000377029
0.000991017
0.000960908
0.00100744
0.000997061
0.000136942
0.000974285
0.000950381
0.000921886
0.000915695
0.000919934
0.00093203
0.00134907
0.000895396
0.000968314
1.01071
1.00521
0.985657
0.971653
0.897783
0.967081
0.791298
0.719385
0.714563
0.715166
0.71076
0.707284
0.653459
0.667124
0.503268
0.46391
0.420424
0.594772
0.587626
0.545207
0.545339
0.541923
0.000806943
0.000487639
0.0012753
0.00126647
0.000967853
0.000410537
0.000585626
0.000410365
0.000995265
0.00102384
0.000161511
0.00100893
0.000992648
0.000944764
0.000297472
0.000985833
0.000726155
0.00091818
0.00021426
0.00071546
0.000688384
0.000951565
0.0011221
0.0011225
0.000363518
8.17344e-06
0.00101137
0.146348
0.275323
0.146852
0.43912
0.608977
0.642385
0.669628
0.756678
0.864576
0.928316
0.905006
0.953243
0.892426
0.934913
0.980174
0.936934
0.932132
0.00125502
0.000958736
0.00110344
0.000849207
0.000994379
0.00120731
0.000657969
0.000796137
0.00120728
0.00098429
0.00099196
0.00100515
0.000831908
1.14836e-05
0.000803617
0.000729251
0.000776991
0.000656439
0.00098774
0.000236686
0.000248866
0.000349087
0.00096459
0.000824756
0.00131262
0.000470056
0.397198
0.399102
0.317272
0.331664
0.213275
0.229706
0.171876
0.170247
0.169678
0.168799
0.141991
0.144621
0.119511
0.112537
0.091198
0.134816
0.205566
0.174754
0.200575
0.208864
0.0321034
0.0509509
0.0957229
0.0722901
0.0826137
0.0892382
0.0354793
0.0307652
0.0134761
0.0256712
0.0329
0.0323395
0.879795
0.881816
0.709272
0.624901
0.606638
0.595878
0.875443
0.793294
1.03264
1.11007
1.0072
0.931099
1.1239
1.10587
1.17285
1.22127
1.25309
1.25134
1.27955
1.25225
1.30856
1.33383
1.33094
1.32812
1.34748
1.33284
1.33228
1.38024
1.3212
1.32005
0.441565
0.373075
0.511579
0.585598
0.369251
0.316416
0.369056
0.373613
0.197136
0.251028
0.0902715
0.257218
0.145893
0.419699
0.359696
0.41806
0.413202
0.41665
0.314152
0.2134
0.135703
0.118846
0.13313
0.173716
0.101143
0.085375
0.0154495
0.101976
0.181554
0.175183
0.0937543
0.194218
0.2665
0.208849
0.316275
0.260655
0.301776
0.358053
0.395495
0.373269
0.405988
0.406765
0.41813
0.40741
0.443134
0.450435
0.450024
0.465235
0.469768
0.468628
0.501271
0.515763
0.505937
0.498188
0.502633
0.496098
0.513559
0.5297
0.581508
0.56984
0.536832
0.566165
0.563472
0.595687
0.632468
0.69141
0.723454
0.724965
0.736976
0.806044
0.889156
0.961597
0.970565
1.09644
0.973319
1.02143
1.17469
1.19918
1.19891
1.23856
1.28184
1.33589
1.34179
1.34889
1.37403
1.4043
1.42752
1.43005
1.42953
1.43146
1.42644
1.41276
1.34789
1.41336
1.38134
1.33351
1.33356
1.36615
1.39705
1.40701
1.33494
1.3946
1.35443
0.182898
0.182461
0.247207
0.321639
0.208023
0.280417
0.413123
0.34783
0.383122
0.218391
0.116735
0.0811688
0.0844742
0.18233
0.176695
1.5648e-08
0.00103606
0.133959
0.0210623
0.133069
0.139066
0.142918
0.130773
0.154131
0.159519
0.000871197
0.000837817
0.000904459
0.000812212
0.00129121
0.00129097
0.00086849
0.000172666
0.000894635
0.00125289
0.000981197
0.000938506
0.000494164
0.000315336
0.000547183
0.0010341
0.000693899
0.001118
0.000934557
0.000984534
0.000937123
0.000660221
0.000998234
0.000701989
0.00100779
0.000868975
0.0010536
0.000959713
0.000825036
0.000709956
0.00119032
0.000105209
0.000999557
0.000884356
0.000260075
0.000845589
0.000544652
0.00089456
0.000765323
0.000975382
0.000997
0.000823507
0.000978339
0.000943996
0.000974885
0.00092222
0.000277299
0.00151784
0.00094852
0.00106559
0.000911042
0.00100962
0.000641972
0.000367709
0.000916152
0.000960434
0.000953508
0.000892128
0.000779737
0.000479733
0.928982
0.932726
0.915478
0.911384
0.841018
0.911036
0.717995
0.779899
0.670939
0.683513
0.614764
0.598911
0.548671
0.543429
0.46043
0.355083
0.331072
0.499917
0.546075
0.545496
0.546255
0.543739
0.00126175
0.000999579
0.00127508
0.000273742
0.000956527
0.000945818
0.000983339
0.00099334
0.000967193
0.000813892
0.000135327
0.000443454
0.000999665
0.000979554
0.00060297
0.00100999
0.00098232
3.53596e-05
0.000985985
0.000873381
0.000276721
0.000836893
0.000492115
0.00104788
0.000321117
0.000418635
0.110464
0.146132
0.339746
0.173626
0.478323
0.612045
0.584011
0.692655
0.863419
0.771043
0.842103
0.840323
0.841643
0.862619
0.923437
0.914233
0.925751
0.890009
0.000769413
0.000922585
0.000573493
0.000958878
0.000712787
0.000933944
0.000627141
0.000311966
0.000810465
0.000879841
0.000957505
0.000891854
0.000965037
0.000710573
0.00102023
0.000863437
0.00096514
0.000987798
0.000871367
0.00107181
0.000725267
0.0010718
0.000906513
0.000913339
0.0010187
0.000860782
0.000668131
0.000491275
0.000136748
0.000756032
0.000938482
0.272664
0.272096
0.232234
0.216454
0.168839
0.194204
0.15673
0.156696
0.316192
0.2575
0.233777
0.0843393
0.0961712
0.029698
0.0310876
0.0908526
0.0977877
0.0856264
0.12791
0.185077
0.146397
0.169236
0.152687
0.0534951
0.0310265
0.0453407
0.0633043
0.000409856
0.000918415
4.62917e-05
0.00741564
0.0239036
0.0122901
0.000897365
0.000931291
1.45149
1.46401
1.48886
1.46751
1.51136
1.49431
1.51942
1.51209
1.56732
1.55495
1.51731
1.57098
1.54008
1.59179
1.42069
1.37397
1.39461
1.44227
1.42468
1.39399
1.39757
1.44966
1.4557
1.4317
1.40962
1.46316
1.44384
1.45413
1.4784
1.33229
1.33204
1.33376
1.33196
1.35126
1.37243
0.925282
0.872031
0.767038
0.673609
0.582112
0.658242
0.858025
0.847351
1.08132
1.10572
0.994164
1.07586
1.11392
1.15997
1.20849
1.24854
1.24938
1.24881
1.24841
1.27607
1.29322
1.31453
1.30572
1.30474
1.3102
1.3181
1.29906
1.29818
0.492474
0.424457
0.364493
0.357354
0.413031
0.585608
0.562221
0.297198
0.349437
0.217628
0.155524
1.43868
1.45884
1.47368
1.48061
1.48746
1.49999
1.50171
1.53047
1.51593
1.53176
1.53345
1.57948
1.60456
1.62741
1.62731
1.63269
1.64698
1.66875
0.13697
0.0813786
0.0832115
0.341273
0.2344
0.406001
0.30492
0.22188
0.124407
0.122816
0.124756
0.12272
8.53279e-05
0.0502654
0.000347173
0.000669959
0.00583709
1.03636e-117
0.185291
0.119332
0.0128629
0.211056
0.211935
0.211141
0.261423
0.224284
0.348113
0.296663
0.379255
0.348594
0.381314
0.408721
0.432013
0.455591
0.475716
0.474825
0.483627
0.474649
0.535101
0.520566
0.514259
0.517489
0.564327
0.544749
0.611573
0.571124
0.551674
0.598998
0.640337
0.632822
0.656381
0.689889
0.692204
0.637343
0.744445
0.776267
0.746829
0.735613
0.818697
0.902229
0.969805
1.03778
0.985159
1.00213
1.13496
1.19261
1.23714
1.2205
1.27893
1.3148
1.35408
1.36529
1.35955
1.38347
1.44292
1.41634
1.43374
1.4375
1.42513
1.42963
1.42964
1.4315
1.43027
1.42505
1.42839
0.170778
0.152432
0.184578
0.106314
0.128181
0.146507
0.0823335
0.219021
0.119835
0.0551604
0.076807
0.0594112
0.000169601
0.0600513
0.0848472
0.000232507
2.26374e-05
2.29752e-09
0.000994979
0.131816
0.0262977
0.0283397
0.0272975
0.000305268
4.33155e-06
0.000181562
0.000953536
0.000932322
0.00112606
0.00112588
0.00129069
0.000654774
0.00109832
0.000959708
0.000776109
0.00096702
0.000896738
0.000998449
0.00026155
0.000888291
0.00100984
0.000919365
0.00112564
0.000734279
0.000398457
0.000668916
0.000970299
0.000270015
0.000740386
6.86554e-07
7.13764e-05
0.00238093
0.000303303
0.0010102
0.000694792
0.000545923
0.000960813
0.000393885
0.00100993
0.000972125
0.00102275
0.000987747
0.000999516
0.000691414
0.00117422
0.000983846
0.000683558
0.00097546
0.000857827
0.00117323
0.00089779
0.000955844
0.000631827
0.000258775
0.000802722
0.000964465
0.000941166
0.000838222
0.00106529
0.000356472
0.000893833
0.00070665
0.000978177
0.000925692
0.000935309
0.000931658
0.00091709
0.000695524
0.000567275
0.00172045
0.000259413
0.000674617
0.000835469
0.000980413
0.00172558
1.61859
1.58969
1.5601
1.66523
1.69695
1.69344
0.903559
0.90607
0.890891
0.8831
0.819519
0.866872
0.711743
0.63184
0.559452
0.578193
0.543475
0.548625
0.547162
0.545717
0.422255
0.344817
0.429595
0.50989
0.511258
0.00093523
0.000867485
0.000875173
0.000890082
0.00095502
0.000963454
0.0009791
0.000493094
0.000952111
0.000556963
0.00100943
0.00100702
0.000860931
0.10743
0.141146
0.171157
0.00100998
0.000498781
0.000128694
0.000935308
4.59314e-06
0.000268466
0.000921556
0.000842691
0.000607061
0.000783296
0.00092319
0.31272
0.452709
0.567427
0.56732
0.88832
0.801014
0.817536
0.606005
0.693461
0.779093
0.834569
0.837358
0.83462
0.843906
0.877784
0.877748
0.000765795
0.001097
0.000627181
0.000982796
0.000866192
0.00089974
0.00100904
0.000845157
0.000773738
0.000899768
0.000817811
0.000932446
0.000763197
0.00111169
0.000973282
0.000891784
0.000929381
0.0010697
0.000960141
0.00107143
0.000902739
0.000907413
0.000803256
0.00109924
0.000977541
0.000886037
0.000446538
0.000801713
0.000962731
0.000991798
0.00111797
0.000984843
0.000791152
0.000994874
0.000808738
0.00101
0.001009
0.269001
0.304675
0.297939
0.235947
0.235416
0.207428
0.228337
0.0971584
0.121399
0.0364669
0.0334562
0.245195
0.229298
0.000363569
0.00087171
0.000859053
0.00151106
0.0436265
0.0244732
0.0579073
0.00922965
0.131904
0.0800931
0.137712
0.138337
0.000818675
0.000686285
0.000702988
0.000815392
0.000825976
0.000551523
0.000693939
0.000125447
0.000359008
0.000994303
8.71897e-06
0.000979051
1.4512
1.46773
1.48934
1.51348
1.52092
1.51994
1.55881
1.53269
1.38682
1.3846
1.36638
1.39013
1.42427
1.38248
1.43193
1.40148
1.31916
1.3079
1.30672
1.33731
1.36658
1.33915
0.931241
0.854882
0.750145
0.837214
0.684257
0.59343
0.852033
0.849902
1.09006
1.09368
1.10583
1.00761
1.08245
1.19117
1.13971
1.08457
1.12338
1.22575
1.23695
1.23132
1.23485
1.24712
1.26694
1.29532
1.28647
1.29367
1.29756
1.29541
1.29668
1.29906
1.29462
0.337997
0.339701
0.48234
0.561179
0.344014
0.420842
0.576314
0.592461
0.325894
0.275585
0.181253
0.251682
1.46918
1.42845
1.44492
1.49104
1.49157
1.49514
1.50033
1.52824
1.54444
1.5579
1.56017
1.56383
1.58721
1.6277
1.61083
1.6295
1.64635
1.69287
1.67006
1.49832
1.51346
1.52363
1.69669
1.69686
1.6965
0.0845002
0.0838058
0.0829964
0.0532378
0.152406
0.171037
0.000553889
0.00893608
0.042782
0.000493563
0.000749553
0.000461384
0.000774404
0.00138932
0.000567343
0.00138924
0.000969713
3.35802e-07
0.0615788
8.54388e-05
0.00177287
0.140835
0.214547
0.125539
0.286667
0.317157
0.243982
0.285964
0.344681
0.312208
0.440657
0.382659
0.453138
0.464137
0.473773
0.462029
0.515739
0.552332
0.589039
0.590143
0.599884
0.576769
0.610568
0.587887
0.636681
0.646719
0.66995
0.663558
0.642164
0.645005
0.76531
0.812861
0.710513
0.776237
0.819349
0.780927
0.881178
0.925829
1.02321
1.064
1.04127
1.1355
1.19106
1.2902
1.27786
1.33486
1.30575
1.39965
1.40735
1.40166
1.42867
1.45533
1.4609
1.5078
1.48146
1.498
1.4698
1.46322
1.50394
1.43306
1.46277
1.43444
0.000375887
0.000172257
0.000915973
0.00049104
0.096527
0.0795806
0.0765172
0.0568325
0.0742489
0.000496373
0.000343287
0.000555993
0.000134481
0.000688562
0.000554115
0.000411717
7.83634e-05
4.42365e-06
0.000302915
3.1775e-05
0.000958079
0.000656089
6.25055e-07
0.000313882
0.000978557
0.000437825
0.000999883
0.000217521
0.00112587
0.00112583
0.000952727
0.000995782
0.000992745
3.82214e-05
0.00101
0.000912008
0.0010004
0.000112849
0.00044385
0.000919656
0.000754156
0.000297927
0.00142152
0.000121254
0.000984734
7.65591e-05
0.0009581
0.000364482
0.000986126
2.55198e-05
0.000984786
0.00215731
0.000986464
0.000134455
0.000967947
0.00133221
0.00110141
0.000476947
0.00101108
0.00101111
0.000465046
0.000983007
0.00102271
0.000866466
0.00117412
0.00117373
0.000955336
0.000971613
0.00117354
0.00117351
0.000955402
0.000835692
0.000711032
0.000919589
0.00121976
0.000123893
0.00121941
0.00096608
0.00098702
0.000966821
0.000995487
0.00102183
0.00105172
0.0010506
0.000889487
0.000805878
0.000827454
1.24245e-05
9.12481e-06
0
0.000966502
0.000799517
0.000430028
0.00090056
0.00110128
0.000923733
0.00100958
0.00100998
0.000997538
0.000998553
0.000946811
0.000914726
0.00101
1.57592
1.59822
1.59428
1.59707
1.62686
1.73587
1.71106
1.71298
1.73834
1.67993
0.813038
0.809553
0.749239
0.746575
0.69792
0.729403
0.639732
0.593075
0.576976
0.547012
0.521234
0.522639
0.431996
0.442792
0.309684
0.352976
0.350816
0.000529692
0.000965684
0.000913493
0.00101
0.000994913
0.000958706
0.000782216
0.142026
0.283534
0.142192
0.000919443
0.000194133
0.000939635
0.000968299
0.00933026
0.000741578
0.00101074
0.000946703
0.000973134
0.001023
0.000849804
0.000987297
0.000944045
0.000847483
0.00025022
0.670427
0.68081
0.731804
0.424712
0.565894
0.563935
0.601863
0.729993
0.786183
0.757774
0.664796
0.747158
0.770869
0.783425
0.699134
0.730656
0.000957717
0.000997217
0.00109732
0.00107275
0.000414037
0.000954314
0.00107443
0.00127375
0.000939977
0.000989895
0.000161435
0.00096466
0.00096803
0.000936631
0.000510229
0.00293697
0.00293655
0.00293647
0.000378744
0.000930677
0.000827964
0.00106983
0.000892458
0.000962561
0.000901506
0.00103645
0
0
0
0.000945975
0.000905119
0.000967225
0.00100048
0.000836671
0.000427824
0.000893962
0.000930546
0.000997229
0.000970024
0.000330773
0.000914357
0.000968505
0.00101186
0.000686934
0.000957148
0.286527
0.300533
0.309334
0.176728
0.200538
0.155427
0.15824
0.085611
0.0761606
0.000322584
0.000735889
0.00151035
0.00250869
0.0898087
0.0838307
0.000406739
0.000566038
0.000242686
0.000584634
0.00059664
0.000679464
0.00090432
0.046277
0.120013
0.088402
0.159654
0.115531
0.000105983
0.000851402
0.000736701
0.00126597
0.000312228
0.000747328
0.000713314
0.000346646
0.00101
0.000942721
0.000726334
0.00138224
1.45974
1.41115
1.48953
1.45174
1.45959
1.50711
1.49737
1.5487
1.53053
1.57614
1.54321
1.50807
1.57601
1.54063
1.34975
1.35137
1.34117
1.35721
1.36782
1.38241
1.37887
1.38999
1.29443
1.2949
1.31665
1.30076
1.33269
1.34097
0.933092
0.856639
0.775125
0.851268
0.640725
0.739291
0.851977
0.860357
1.08473
1.08018
1.08177
1.01152
1.17036
1.21468
1.12639
1.08457
1.22223
1.22307
1.23732
1.22139
1.25966
1.28335
1.29257
1.29649
1.30066
1.28815
1.29646
1.29529
1.29607
1.28754
0.335626
0.331496
0.500781
0.573464
0.477801
0.396197
0.628614
0.573198
0.303782
0.331332
0.305944
0.209471
1.46632
1.50027
1.49033
1.51413
1.5324
1.52086
1.55793
1.56881
1.54607
1.55495
1.55205
1.56122
1.56181
1.58946
1.60998
1.63023
1.62762
1.6791
1.65832
1.70537
1.71219
1.58049
1.59596
1.71051
1.72143
0.000437086
0.000555967
0.000719293
0.00065571
0.000541369
0.000104466
0.000196559
0.000228181
0.00104356
1.06681e-05
0.000927799
0.000258474
0.000568721
0.000657476
5.07035e-06
0.000780461
0.00176764
0.000583495
0.00360548
0.00320212
0.000827065
0.0636233
0.209582
0.113868
0.302397
0.300776
0.265953
0.212913
0.334207
0.385449
0.437848
0.424861
0.449927
0.438638
0.558072
0.505302
0.611078
0.59845
0.62498
0.630103
0.605772
0.659528
0.706644
0.679223
0.66266
0.689091
0.740986
0.725185
0.707832
0.752448
0.832295
0.835449
0.825837
0.851855
0.977095
0.89104
1.0618
1.08764
1.09034
1.15961
1.23504
1.31287
1.317
1.32832
1.37495
1.42116
1.46084
1.45857
1.49959
1.4735
1.52251
1.54275
1.53557
1.5407
1.53726
1.53819
1.50947
1.53557
1.51092
0.00084547
5.06977e-05
0.00555208
0.00102608
0.000785775
0.00018377
0.000760291
0.000489262
0.000817924
0.000529165
0.000734544
0.0012424
0.000272075
0.00124211
0.00124263
0.00124257
0.00124306
0.000972939
0.00124346
0.00520531
0.00099082
0.000638589
0.000184916
0.00224418
0.000293113
0.00224447
0.00224785
0.000481827
0.000517592
0.00100217
0.000993637
0.000687571
0.000928674
0.000455348
0.00111572
0.00103668
0.000790525
0.000959982
0.00100986
0.000887496
0.000962023
0.000965441
0.00142661
0.000995755
0.000146754
1.36216e-05
0.000607696
0.00096357
0.000988249
0.000479144
0.000826696
0.000958084
0.00100941
0.00031059
0.000110089
0.000987756
0.00100992
0.000817418
0.000560979
0.00090547
0.00101
0.000799183
0.000975017
0.000279366
0.000904827
0.00095865
0.000976871
0.00101
0.000954704
0.000876282
0.000926714
0.00101767
0.00097168
0.000773375
0.000984106
0.000952799
0.000939894
0.00098992
0.000934564
0.000964099
0.000974876
0.000974485
0.00134928
0.000981396
0.000905098
0.000665837
0
0
0
0
0
0
0
0
0
0
0
0
0
0
0
0
0
0
0
0.00099334
0.000900694
0.000937661
0.000812305
0.000958666
0.000436148
0.00095208
0.00111058
0.000325168
0.000811332
0.000317982
0.000878445
1.7628
1.75032
1.77155
1.75987
1.77093
1.77144
1.61043
1.61214
1.67588
1.64695
1.73752
1.76047
1.73449
1.62226
1.56887
0.682332
0.677211
0.677165
0.674842
0.667353
0.608832
0.662406
0.445052
0.495051
0.362727
0.365086
0.309615
0.312444
0.30965
4.53839e-05
0.000936058
0.00049954
0.00132262
0.122267
0.308568
0.141561
0.00104186
0.000846862
0.0936735
0.000271297
0.000971966
0.000945796
0.000976708
0.000992125
0.000717645
0.000362926
0.000975114
0.0010232
0.000195235
0.00102397
0.000932938
0.0004632
0.000753974
0.680519
0.677253
0.683661
0.68342
0.6749
0.393613
0.508692
0.451719
0.573923
0.633465
0.654429
0.585324
0.67496
0.620442
0.621164
0.607051
0.000954778
0.00115308
0.00062488
0.000970576
0.000973219
0.000935143
0.000948334
0.00101902
9.89577e-05
0.000700401
0.00101005
0.000498655
6.92933e-05
0.000527482
0.000992891
0.000616055
0.000763669
0.000919235
0.000882552
0.00101601
0.000695426
0.000937573
0.000740767
0.000726241
0.000621516
0.00100951
0.000739043
0.000834563
0.000354107
2.15212e-05
0
0
0
0
0
0.000969416
0.000983316
0.000907267
0.00118512
0.00109738
0.000632814
0.000835369
0.000430948
0.000994977
0.00101161
0.000964926
0.000965413
0.00072636
0.000982231
0.000787048
0.000894515
0
0
0
0
0
0
0.288152
0.213948
0.203877
0.133655
0.124503
0.0432771
0.0287919
0.0187694
0.0182593
0.00921406
0.0189885
0.000829757
0.000829349
0.000550644
0.00033854
0.0194548
0.0240313
0.000795758
0.000905726
0.000971356
0.000992575
0.0876638
0.153671
0.0717936
0.000551055
0.000711457
0.0239507
0.000835248
0.038268
0.00027789
0.000685812
1.31742e-05
0.000467482
0.00182389
0.00182624
0.000743419
0.000959699
0.000281529
0.000798649
0.00100972
0.000818552
1.42751
1.40495
1.43185
1.43142
1.43267
1.45256
1.46287
1.49365
1.49355
1.50134
1.58262
1.53609
1.49524
1.34384
1.33944
1.37114
1.35473
1.38307
1.379
1.40502
1.38694
1.29527
1.30201
1.3273
1.30917
1.323
1.3322
0.971788
0.892866
0.813889
0.855934
0.799054
0.701149
0.892155
0.851524
1.08808
1.08356
1.04646
1.09009
1.17739
1.22451
1.09055
1.13454
1.22589
1.22572
1.25019
1.22698
1.26499
1.2904
1.28241
1.27949
1.29374
1.28183
1.29466
1.29145
1.29159
1.28958
0.327403
0.38737
0.57477
0.554848
0.478133
0.557234
0.578563
0.651317
0.321745
0.317915
0.314365
0.225915
0.0656238
0.11754
0.187213
1.5363
1.54272
1.57153
1.56282
1.58232
1.5988
1.59833
1.59717
1.63487
1.61277
1.62864
1.59015
1.62216
1.63686
1.65715
1.68052
1.69298
1.68488
1.73976
1.73662
1.76213
1.73914
1.6552
1.65982
1.77625
1.77071
0.000169711
0.000303698
0.00102817
8.92839e-06
0.000729054
0.00125741
0.00125728
0.000782536
0.000305007
0.000155955
0.000196204
0.00183804
0.0013409
0.000333143
0.000822227
0.000835447
0.00100232
0.000626775
0.048544
0.0107306
0.000420573
0.105903
0.144589
0.163951
0.145053
0.247145
0.323789
0.194622
0.424065
0.360817
0.430105
0.431346
0.524548
0.461902
0.583681
0.617062
0.609906
0.622834
0.741742
0.708109
0.679835
0.731792
0.755936
0.747535
0.741591
0.732997
0.749088
0.748757
0.826751
0.873705
0.909323
0.863611
0.911262
0.933581
1.07635
1.00747
1.10301
1.09008
1.17265
1.24988
1.33318
1.32816
1.36397
1.39626
1.47391
1.4686
1.48902
1.49807
1.52532
1.53293
1.5493
1.54393
1.55064
1.54891
1.53944
1.54973
1.5395
1.54281
0.000955837
0.000960024
0.0010615
0.00076045
0.000962092
0.000657298
0.000566723
0.00124478
0.000842518
0.00124285
0.000319007
0.000895974
0.000295436
0.00124235
0.00124245
0.00124295
0.0012431
0.00124402
0.00124335
0.000328857
0.000371652
0.00100886
0.000717288
0.000938422
0.000788581
0.00100179
0.000935601
0.000997704
0.000180038
0.000954666
0.000624923
0.00101
0.000209386
0.000790635
0.00100863
0.00103606
0.00075162
0.000881619
0.000863699
0.00369368
3.58858e-05
0.000210438
0.00024578
0.00100994
0.000902067
6.57154e-09
0.000994584
0.00100983
0.000289275
0.000848872
0.00100647
0.000131712
0.00100976
0.000959372
0.000191524
0.000986414
0.000975827
0.000990248
0.00348491
0.000980885
0.000759889
0.00098777
0.000863879
0.000789258
0.00111267
0.00111248
0.0011121
0.000896489
0.000943214
0.000915976
0.000973731
0.000935172
0.000927075
0.000961192
0.000874935
0.000897996
0.000947049
0.000951887
0.000925848
1.67713e-05
0.000881191
0.00092376
0.0003855
0.000414352
0.00098456
0
0
0
0
0
0
0
0
0
0
0
0
0
0
0
0
0
0
0
0.000980451
0.00094681
0.00101231
0.000937016
0.000897593
0.000832801
0.00120085
0.000673244
0.000784247
0.00115225
0.00109202
0.000962708
1.78309
1.80966
1.81441
1.77155
1.7793
1.76153
1.77265