/*--------------------------------*- C++ -*----------------------------------*\
  =========                 |
  \\      /  F ield         | OpenFOAM: The Open Source CFD Toolbox
   \\    /   O peration     | Website:  https://openfoam.org
    \\  /    A nd           | Version:  8
     \\/     M anipulation  |
\*---------------------------------------------------------------------------*/
FoamFile
{
    version     2.0;
    format      ascii;
    class       volVectorField;
    location    "2400";
    object      HU;
}
// * * * * * * * * * * * * * * * * * * * * * * * * * * * * * * * * * * * * * //

dimensions      [0 2 -1 0 0 0 0];

internalField   nonuniform List<vector> 
526318
(
(-0.0146699 -0.0132192 0)
(-0.0136808 -0.0267085 0)
(-0.01089 -0.0263961 0)
(0.00174874 -0.0372196 0)
(-0.0101226 -0.0295582 0)
(-0.0106365 -0.029203 0)
(-0.0253187 -0.00847533 0)
(-0.0100807 -0.0306442 0)
(-0.0124928 -0.021216 0)
(-0.00726722 -0.0133587 0)
(-0.0116739 -0.0332638 0)
(-0.0140393 -0.0193627 0)
(-0.0075549 -0.0370421 0)
(-0.00668232 -0.0258349 0)
(-0.0155511 -0.0295183 0)
(-0.0125715 -0.032588 0)
(0.00269559 -0.031031 0)
(-0.00366054 -0.0145687 0)
(0.00599219 -0.0202489 0)
(0.011157 -0.0237228 0)
(-0.00690243 0.000811999 0)
(0.00838878 -0.026552 0)
(-0.00661975 -0.00919436 0)
(-0.0111721 0.000838035 0)
(0.00628459 -0.0173961 0)
(-0.00434432 -0.0209627 0)
(-0.00571381 -0.0106408 0)
(-0.00709298 -0.000772193 0)
(-0.0275031 -0.0091427 0)
(-0.0158425 0.00504218 0)
(0.00681141 -0.0129444 0)
(0.00996453 -0.0192887 0)
(-0.0133053 -0.0142104 0)
(-0.00699498 -0.0139328 0)
(0.0203687 -0.0304182 0)
(0.00550686 -0.0331612 0)
(-0.0315491 -0.0236622 0)
(0.0294433 -0.0198657 0)
(-0.0143669 -0.0110666 0)
(-0.0180505 -0.0284914 0)
(-0.0183022 -0.0337771 0)
(0.00241971 -0.0228386 0)
(0.0114579 -0.0049573 0)
(0.00730361 -0.0017772 0)
(0.0177748 -0.00247345 0)
(-0.0102543 -0.00833715 0)
(0.0180047 -0.0152655 0)
(-0.0110264 -0.0244009 0)
(-0.01254 -0.0211046 0)
(0.0209862 -0.0224447 0)
(-0.0250517 -0.0136804 0)
(0.0110851 -0.0238405 0)
(-0.0202205 0.00259566 0)
(0.00758117 -0.0170376 0)
(-0.00696766 -0.00467809 0)
(0.0103773 0.0112097 0)
(-0.00803127 0.00401027 0)
(0.0142684 -0.00458654 0)
(0.0100136 -0.018667 0)
(-0.00599263 0.00768951 0)
(0.0116929 -0.0189976 0)
(0.0112315 -0.0271328 0)
(0.00958109 -0.0265397 0)
(-0.00227191 0.00479191 0)
(-0.0133416 0.00923225 0)
(0.0189042 -0.00812982 0)
(0.000956864 -0.010172 0)
(0.00269224 -0.012427 0)
(0.0387199 0.00264786 0)
(-0.0148289 0.017541 0)
(0.0267182 -0.00421682 0)
(0.0255641 -0.00403285 0)
(0.0220447 0.00425587 0)
(0.021454 -0.00678965 0)
(0.01117 -0.00254036 0)
(0.0151142 -0.0133057 0)
(0.0162125 0.00979174 0)
(0.0127326 -0.00345573 0)
(0.00816954 -0.00771802 0)
(-0.0046466 0.00776963 0)
(-0.00966362 0.00282857 0)
(0.0130825 -0.000665118 0)
(0.0083502 0.00955254 0)
(0.0119382 -0.00797194 0)
(-0.0118263 0.00775141 0)
(0.00691573 -0.00469559 0)
(0.0115887 -0.00883568 0)
(0.01726 -0.00970558 0)
(-0.0163921 0.00821042 0)
(0.00104117 -0.0178651 0)
(-0.00449886 -0.0118741 0)
(0.00520811 -0.00773984 0)
(0.0125594 -0.0121657 0)
(-0.00198438 -0.00836591 0)
(0.00104024 -0.0159086 0)
(0.00991692 -0.00810078 0)
(-0.00076687 -0.00436574 0)
(0.00378769 -0.002765 0)
(-0.00188114 -0.00495711 0)
(0.00520007 -0.0100856 0)
(0 0 0)
(0 0 0)
(0.000131203 -7.38426e-05 0)
(0.000159138 8.50476e-05 0)
(-0.000659401 -0.00284656 0)
(0 0 0)
(-0.0141381 -0.00586261 0)
(0.00714675 0.00191003 0)
(-0.0147351 -0.0114514 0)
(0.0094177 0.00448146 0)
(-0.00763577 -0.00392147 0)
(-0.0148046 -0.00809757 0)
(-0.000511466 0.00400013 0)
(-0.0216349 0.00257201 0)
(-0.0161235 -0.0112642 0)
(-0.00240701 0.00623541 0)
(0.0025911 0.00172511 0)
(-0.0178683 0.0113877 0)
(-0.0100541 -0.0221042 0)
(-0.00224506 -0.0120512 0)
(-0.000207774 -0.003371 0)
(0.00343998 -0.0063517 0)
(-0.0013418 -0.0107449 0)
(-0.00481987 -0.00884508 0)
(-0.0034726 -0.00334678 0)
(-0.000251854 -0.00842171 0)
(-0.00171928 -0.0098973 0)
(-0.0039823 -0.00981511 0)
(-0.00302498 -0.00904853 0)
(-0.000298063 -0.0134352 0)
(-0.00222532 -0.0101691 0)
(-0.00235359 -0.00976659 0)
(-0.00265888 -0.00835118 0)
(-0.000794264 -0.0107826 0)
(-0.00421024 -0.0120829 0)
(-0.000307523 -0.00678648 0)
(-0.00122091 -0.00897159 0)
(-0.00498125 -0.0120443 0)
(-0.00216673 -0.0118883 0)
(0.000146915 -0.00657318 0)
(-0.00336512 -0.0101464 0)
(-0.00105245 -0.00676936 0)
(-0.00243859 -0.00919301 0)
(-0.00221536 -0.0124801 0)
(-0.00184616 -0.00394355 0)
(0.000309023 -0.010454 0)
(-0.00249053 -0.00391061 0)
(-0.00302375 -0.00522527 0)
(-0.00320381 -0.00600731 0)
(-0.000653414 -0.00777532 0)
(-0.00277575 -0.0105578 0)
(-0.00429426 -0.0124028 0)
(0.00114088 -0.00469864 0)
(0.000868316 -0.00910598 0)
(-0.00608519 -0.00342086 0)
(0.000473594 -0.00620704 0)
(-0.00607833 -0.0109361 0)
(-0.000679656 -0.00758927 0)
(-0.00248242 -0.00798932 0)
(-0.000601155 -0.000693121 0)
(-0.00684979 -0.0103197 0)
(0.00141355 -0.00856195 0)
(-0.00228714 -0.0147401 0)
(0.000701628 -0.000573213 0)
(0.0153002 -0.0186217 0)
(0.0189218 -0.0136369 0)
(0.00822186 -0.011236 0)
(0.0201332 0.00119198 0)
(0.00222924 -0.00213214 0)
(-0.00283351 -0.0122741 0)
(0.0139825 0.00175128 0)
(-0.00350258 -0.0063718 0)
(-0.0021317 0.000124182 0)
(-0.0119082 0.00367366 0)
(0.00858769 -0.00551627 0)
(0.000881651 0.0043354 0)
(0.00549912 -0.00664786 0)
(0.00291947 -0.00794115 0)
(-0.00358822 -0.000174847 0)
(0.000127426 -0.00419858 0)
(-0.00141667 -0.00966784 0)
(-0.000983254 -0.00559033 0)
(0.0022413 -0.0102443 0)
(0.00161525 -0.00689324 0)
(0.000369775 -0.00952012 0)
(0.000281784 -0.0102788 0)
(0.00257617 -0.011064 0)
(0.00313948 -0.0120838 0)
(-0.000668263 -0.00972772 0)
(0.00056817 -0.0113971 0)
(-0.00289581 -0.00990897 0)
(0.00199014 -0.0098765 0)
(-0.00210228 -0.0121589 0)
(-0.00153238 -0.0134395 0)
(-0.000585874 -0.00969266 0)
(-0.00485456 -0.010569 0)
(0.00163325 -0.0130072 0)
(0.00047749 -0.00793485 0)
(-0.00375199 -0.0111647 0)
(-0.0017884 -0.0098027 0)
(-0.000837874 -0.0106132 0)
(-0.00296325 -0.00583775 0)
(0.000220462 -0.00939781 0)
(-0.0048882 -0.0131274 0)
(-0.00280792 -0.00785248 0)
(-0.000585274 -0.0107338 0)
(-0.00533022 -0.00939463 0)
(-0.00542047 -0.0034494 0)
(-0.00290455 -0.00964835 0)
(-0.00513624 -0.00889931 0)
(-0.011592 -0.0232708 0)
(-0.0117505 -0.0217257 0)
(0.0195795 0.0118888 0)
(-0.00459081 -0.026559 0)
(0.0516691 -0.0265542 0)
(0.00953779 -0.0151913 0)
(0.0215587 0.00561484 0)
(0.00933592 -0.0224748 0)
(-0.00872185 0.00887319 0)
(0.0287979 0.00114805 0)
(-0.00777962 -0.00051463 0)
(0.0304131 -0.002557 0)
(0.00446753 -0.000946771 0)
(-0.0110763 0.0187441 0)
(0.0306492 -0.00488257 0)
(0.0238065 0.00367844 0)
(-0.0084359 0.0207488 0)
(-0.00499447 0.0180233 0)
(0.00908439 -0.000142601 0)
(-0.00691106 -0.00747125 0)
(0 0 0)
(0.00135183 -0.0163535 0)
(0.0217051 0.0594285 0)
(0 0 0)
(0 0 0)
(0 0 0)
(0 0 0)
(0 0 0)
(0 0 0)
(-0.00445097 -0.0152731 0)
(0.000659326 0.0125655 0)
(-0.0207614 0.0211967 0)
(0.00323671 -0.000695759 0)
(0.0267704 0.00562587 0)
(0.0253021 -0.01562 0)
(0.0250155 0.0114857 0)
(0.0133315 0.00461365 0)
(0.0165738 0.00669827 0)
(-0.00270062 -0.0026134 0)
(0.0187871 0.0050281 0)
(-0.00608467 -0.0211534 0)
(0.00241946 -0.000360651 0)
(-0.00351903 0.00496767 0)
(-0.0223504 -0.0125554 0)
(0.0034586 0.00128679 0)
(-0.00247356 -0.00526283 0)
(0.0137609 -0.0258002 0)
(-0.00182412 -0.0084855 0)
(-0.0054172 -0.0106953 0)
(0.00212114 -0.00808425 0)
(0.00138496 -0.00618017 0)
(0 0 0)
(0 0 0)
(0 0 0)
(1.26353e-06 -1.05828e-06 0)
(0.000126475 -6.43577e-05 0)
(0 0 0)
(-0.000221595 -0.000667053 0)
(-0.00436557 -8.49855e-05 0)
(-0.0162351 -0.0106286 0)
(-0.00143445 -0.00328062 0)
(-0.0138614 -0.0116535 0)
(0.00285923 0.0117485 0)
(0.0121038 0.0114049 0)
(-0.0161071 -0.00327627 0)
(0.00188631 0.00144618 0)
(-0.00623447 0.00282743 0)
(-0.0158152 0.0191269 0)
(-0.00555744 0.0085582 0)
(-0.0144899 0.000552451 0)
(0.00977423 0.00438702 0)
(-0.00122404 -0.00826276 0)
(-0.00466537 -0.0039213 0)
(-0.00286523 -0.00360278 0)
(-0.00134521 -0.00656943 0)
(0.00157979 -0.00851949 0)
(-0.00131211 -0.00692722 0)
(-0.00079454 -0.00653934 0)
(-0.00228349 -0.00552411 0)
(-0.000899293 -0.0102793 0)
(-0.00105338 -0.00560424 0)
(-0.00104697 -0.00647622 0)
(-0.00147342 -0.00966104 0)
(-0.00780023 -0.00696737 0)
(-0.000923437 -0.00214321 0)
(-0.000304344 -0.00437329 0)
(-0.0063838 -0.00715453 0)
(-0.000597897 -0.00860848 0)
(-0.00180871 -0.00427041 0)
(-0.000975784 -0.00738505 0)
(-0.00630844 -0.00685613 0)
(0.00390011 -0.00586222 0)
(-0.00523463 -0.00706987 0)
(-0.004486 -0.00725351 0)
(-0.000557439 -0.0117559 0)
(-0.00360785 -0.00502046 0)
(-0.00486399 -0.00306643 0)
(-0.00300636 -0.00931295 0)
(0.00231453 -0.00786584 0)
(-0.00401418 -0.00404429 0)
(0.00328048 -0.00337775 0)
(-0.000288022 -0.00940499 0)
(0.000283845 -0.000731168 0)
(-0.00085582 -0.00623097 0)
(-0.00498637 -0.00203079 0)
(0.00112375 0.0029299 0)
(0.000180824 -0.00571171 0)
(-0.00465329 -0.00455441 0)
(-0.00101435 -0.00789299 0)
(-0.00228363 -0.00119673 0)
(0.037534 -0.0152174 0)
(-0.0106215 -0.0159668 0)
(0.0319287 -0.0173131 0)
(0.0195389 -0.00565687 0)
(0.0191857 -0.00442548 0)
(0.0062833 -0.00471696 0)
(0.00163595 0.00333529 0)
(0.0116002 -0.00405751 0)
(0.00391013 0.00334851 0)
(0.00284132 0.00051163 0)
(-0.00317912 -0.00230391 0)
(-0.00057007 -0.00254591 0)
(0.00472271 -0.00861695 0)
(-0.00393026 -0.00298945 0)
(-0.000585934 -0.0038577 0)
(-0.00161576 8.248e-05 0)
(-0.000243158 -0.00749825 0)
(0.000498678 -0.00572748 0)
(-0.00276628 -0.00285469 0)
(0.000825253 -0.00909497 0)
(0.000362888 -0.011079 0)
(0.00159291 -0.00964554 0)
(0.00292298 -0.0104736 0)
(0.00296922 -0.00858451 0)
(0.00336781 -0.0112937 0)
(0.000546613 -0.0103658 0)
(0.000644619 -0.00959425 0)
(0.00190159 -0.0104959 0)
(0.000653529 -0.0126973 0)
(0.000598599 -0.0115548 0)
(-0.00309211 -0.0165973 0)
(-0.0016829 -0.011688 0)
(-0.00770645 -0.0145078 0)
(-0.00505299 -0.0127116 0)
(-0.000993145 -0.0138391 0)
(-0.00629057 -0.0103211 0)
(-0.00116663 -0.0121235 0)
(-0.00443624 -0.0106233 0)
(-0.000463451 -0.00774331 0)
(0.000114032 -0.0102567 0)
(-0.000208038 -0.0111829 0)
(-0.00301325 -0.00905237 0)
(-0.00523782 -0.00705268 0)
(-0.00155769 -0.0052098 0)
(-0.00222039 -0.00451486 0)
(-0.00108144 -0.00785299 0)
(-0.00503098 -0.0113137 0)
(-0.00323696 -0.00680202 0)
(-0.00924425 -0.00682605 0)
(-6.0421e-05 -0.000187877 0)
(-0.00417704 -0.00377169 0)
(-0.00339516 -0.00916067 0)
(-0.0041163 -0.00500941 0)
(-0.00506474 -0.00810859 0)
(-0.00634929 -0.00899597 0)
(-0.0089455 -0.00898447 0)
(-0.0101117 -0.0112898 0)
(0.00730133 0.00641911 0)
(-0.00107534 -0.0345621 0)
(-0.00852176 0.0027542 0)
(-0.000183261 -0.00659836 0)
(-0.0494234 -0.0256613 0)
(0.0200274 -0.0359871 0)
(0.00324209 -0.00483198 0)
(-0.0325229 -0.0137045 0)
(0.0150473 -0.00393401 0)
(-0.00768355 0.00503845 0)
(-0.0107156 0.0151561 0)
(0.0272431 -0.00557152 0)
(0.0221137 -0.00423571 0)
(-0.0277933 -0.00891585 0)
(0.0311949 0.00370639 0)
(0.00817039 0.0121183 0)
(-0.000986281 0.0232697 0)
(0.0103783 0.00492969 0)
(0.000314225 0.0292891 0)
(0.0107172 0.015555 0)
(0.00276057 0.0201719 0)
(-0.000615004 0.00766273 0)
(0 0 0)
(0 0 0)
(-0.00703245 -0.00725349 0)
(0 0 0)
(-0.00393733 -0.00435714 0)
(0.00506651 -0.00689539 0)
(0 0 0)
(-1.59222e-07 -1.48192e-06 0)
(0 0 0)
(0 0 0)
(0 0 0)
(0 0 0)
(0 0 0)
(0 0 0)
(0 0 0)
(0 0 0)
(0.000260087 -0.0144109 0)
(0.0370534 0.0222897 0)
(-0.00794861 0.0170583 0)
(0.0173557 0.0193662 0)
(0.00553276 0.0162647 0)
(0.00191261 0.00507382 0)
(0.00271606 -0.000258399 0)
(-0.00538624 0.00649633 0)
(0.0215763 -0.0144724 0)
(0.0116224 0.00224197 0)
(-0.00259203 -0.00441327 0)
(-0.00160646 0.00194339 0)
(-0.00402053 -0.00789036 0)
(0.0127755 -0.00678478 0)
(-0.000826603 -0.0191091 0)
(-0.00173148 -0.00242603 0)
(-0.00327019 -0.00580218 0)
(-0.00367035 -0.00179959 0)
(0.00346462 -0.0151305 0)
(0.00267843 -0.0105432 0)
(-0.00402816 -0.00370283 0)
(0.0026527 -0.00843312 0)
(0 0 0)
(-1.4964e-08 -8.59647e-08 0)
(0 0 0)
(0 0 0)
(0 0 0)
(0 0 0)
(0 0 0)
(0 0 0)
(-2.30712e-09 -6.73285e-09 0)
(3.83162e-08 -4.00529e-08 0)
(0 0 0)
(0 0 0)
(0 0 0)
(0 0 0)
(-8.77525e-08 -7.56973e-08 0)
(0 0 0)
(0 0 0)
(0 0 0)
(0 0 0)
(0 0 0)
(0 0 0)
(6.608e-09 -4.66167e-07 0)
(0.00132309 -0.00102405 0)
(0.00144133 -0.00124316 0)
(0.00113008 0.000201141 0)
(0.00109092 -0.00343099 0)
(-0.00639162 -0.00529167 0)
(-0.00873569 -0.003869 0)
(-0.00591154 0.0121171 0)
(-0.018838 -0.00248964 0)
(-0.0213649 -0.00265055 0)
(0.0141095 0.020476 0)
(-0.00016231 0.00689189 0)
(-0.0214297 0.00737637 0)
(-0.00241525 0.0179025 0)
(-0.000706988 0.0177519 0)
(-0.00748802 0.0122335 0)
(-0.0134781 0.00425837 0)
(-0.000538527 -0.00485009 0)
(4.83118e-05 -0.00535738 0)
(0.0016661 -0.0067895 0)
(0.000853721 -0.00303958 0)
(-2.70775e-05 -0.00459287 0)
(-0.00144969 -0.00605555 0)
(-0.00228234 -0.00599605 0)
(-0.000105063 -0.00615727 0)
(-0.000513323 -0.00601816 0)
(0.000514665 -0.00868942 0)
(0.000179108 -0.00312053 0)
(-0.00299819 -0.00284976 0)
(0.00359289 -0.00556687 0)
(0.00207251 -0.0078159 0)
(0.00295725 -0.00376959 0)
(-0.00179735 -0.00120255 0)
(-0.00469679 -0.00830624 0)
(-0.00369973 -0.0025809 0)
(-0.00440733 -0.00613819 0)
(-0.00380978 -0.00352626 0)
(0.0028516 -0.000370334 0)
(-0.00372223 -0.00254398 0)
(-0.00234086 -0.0032113 0)
(-8.87706e-05 0.00100154 0)
(-0.0025726 -0.00647264 0)
(0.00164174 -0.0013992 0)
(-0.00440778 -0.00577206 0)
(0.00390184 -0.00375606 0)
(-0.0066527 -0.00623406 0)
(-0.00275754 -0.00637564 0)
(0.00164877 -0.002075 0)
(-0.0056698 -0.00847358 0)
(-0.0093091 -0.00794011 0)
(-0.0108808 -0.00580329 0)
(-0.00986834 -0.00831987 0)
(-0.0196205 -0.00586857 0)
(-0.0191143 -0.0161366 0)
(-0.0164573 -0.010935 0)
(-0.0119724 -0.0146362 0)
(-0.00315724 -0.00199119 0)
(-0.005048 -0.00185968 0)
(-0.00447795 -0.00378409 0)
(-0.00999919 -0.00672226 0)
(-0.00623464 -0.00448467 0)
(-0.000262157 -0.00533301 0)
(0.00852293 0.0023947 0)
(0.0198908 0.00791397 0)
(0.00940475 0.00373955 0)
(0.000456949 -0.0106221 0)
(-0.000151376 -5.63625e-05 0)
(0.00582708 -0.00381601 0)
(-0.00271666 -0.00758502 0)
(0.00783387 -0.00209154 0)
(-0.00230413 -0.00283272 0)
(-0.00172909 -0.00688507 0)
(-0.00368887 -0.00533966 0)
(0.000942234 -0.0061593 0)
(-0.00188637 -0.00561496 0)
(-0.0019007 -0.00474528 0)
(-0.0010514 0.000152048 0)
(0.0049199 -0.00560534 0)
(0.000989061 -0.00325203 0)
(0.00517326 0.000647149 0)
(0.00286092 -0.00701454 0)
(0.00276711 -0.00181566 0)
(0.000400716 -0.00834477 0)
(0.00236795 -0.00999941 0)
(0.00251746 -0.00699128 0)
(0.00228917 -0.0099822 0)
(0.00301414 -0.0120588 0)
(0.00801669 -0.00734898 0)
(-9.98073e-05 -0.013673 0)
(0.00289658 -0.00610853 0)
(-0.00332863 -0.014406 0)
(0.000933205 -0.0102216 0)
(-0.00495426 -0.0151288 0)
(-0.00426616 -0.0151153 0)
(-0.00327504 -0.0153819 0)
(-0.00572212 -0.0158327 0)
(-0.00537536 -0.0110333 0)
(-0.0052281 -0.0113101 0)
(-0.00688314 -0.0118437 0)
(-0.000458935 -0.012456 0)
(-0.00648087 -0.012403 0)
(-0.000338012 -0.0105596 0)
(-0.00501417 -0.00906631 0)
(0.000996992 -0.00906817 0)
(-0.00284387 -0.0132173 0)
(-0.0020655 -0.0101833 0)
(-0.00475238 -0.0110945 0)
(-0.00309168 -0.00641346 0)
(0.00105503 -0.00446776 0)
(-0.00455433 -0.0116719 0)
(-0.002748 -0.00657535 0)
(-0.00583749 -0.00732221 0)
(-0.00913756 -0.0119286 0)
(-0.00563731 -0.0101577 0)
(-0.00616547 -0.0142347 0)
(-0.00889015 -0.00995612 0)
(-0.00800414 -0.00519271 0)
(-0.00969083 -0.0142241 0)
(-0.0214135 -0.0154465 0)
(-0.00932675 -0.0180364 0)
(-0.0141458 -0.0129842 0)
(-0.0165087 -0.0123677 0)
(-0.0104931 -0.0120812 0)
(-0.00447072 0.00932859 0)
(-0.00486817 0.0101846 0)
(-0.01107 0.0101822 0)
(-0.0155452 0.0152079 0)
(0.0310674 -0.00126263 0)
(-0.0039291 -0.00183476 0)
(-0.000973382 -0.0183813 0)
(-0.00769673 0.00843044 0)
(-0.00105321 -0.0113465 0)
(-0.00590797 0.00786285 0)
(0.00271218 0.00990746 0)
(0.0242259 -0.00768272 0)
(0.0183243 -0.00206131 0)
(0.0164463 -0.00562994 0)
(-0.00564887 0.0125986 0)
(0.00555456 0.00979925 0)
(0.00501579 0.0262272 0)
(0.00723127 0.0235824 0)
(0.00827481 0.00919087 0)
(-0.00055182 0.00793931 0)
(0.00780119 -0.00144353 0)
(0 0 0)
(0 0 0)
(0 0 0)
(0 0 0)
(0.00394333 -0.0085073 0)
(-0.014026 0.0268714 0)
(0 0 0)
(0 0 0)
(0 0 0)
(0 0 0)
(0 0 0)
(0 0 0)
(0 0 0)
(0 0 0)
(0 0 0)
(0 0 0)
(0 0 0)
(0 0 0)
(0 0 0)
(0 0 0)
(0 0 0)
(0 0 0)
(0 0 0)
(0 0 0)
(0 0 0)
(0 0 0)
(-8.10491e-08 -5.21179e-08 0)
(0 0 0)
(0 0 0)
(7.42217e-09 7.68707e-09 0)
(-9.00438e-09 -3.82575e-08 0)
(1.0269e-07 -2.1053e-08 0)
(0 0 0)
(0 0 0)
(0 0 0)
(0 0 0)
(0 0 0)
(0 0 0)
(0 0 0)
(0 0 0)
(0 0 0)
(0 0 0)
(0 0 0)
(0 0 0)
(0 0 0)
(0 0 0)
(0.0157309 0.0255325 0)
(0.002973 -0.00538261 0)
(0.0107162 0.0181717 0)
(-0.0195772 0.0250124 0)
(-8.57834e-05 0.0223276 0)
(-0.00296749 0.0275353 0)
(0.0345122 -0.0174435 0)
(0.0107984 -0.00241422 0)
(-0.00945317 0.0158743 0)
(0.00142631 0.00884972 0)
(0.0228518 -0.0174542 0)
(0.00267828 -0.00825068 0)
(-0.00866704 -0.00170258 0)
(-0.0122722 -0.0121707 0)
(0.00250744 -0.0115059 0)
(0.00851322 -0.014366 0)
(-0.00450692 -0.00935652 0)
(-0.000837397 -0.00134755 0)
(0.000854214 -0.0107266 0)
(8.72619e-05 -0.00622944 0)
(-0.00190355 -0.00769738 0)
(0.000887567 -0.00525731 0)
(0 0 0)
(0 0 0)
(0 0 0)
(0 0 0)
(0 0 0)
(0 0 0)
(0 0 0)
(0 0 0)
(0 0 0)
(0 0 0)
(0 0 0)
(0 0 0)
(0 0 0)
(0 0 0)
(0 0 0)
(0 0 0)
(0 0 0)
(0 0 0)
(0 0 0)
(0 0 0)
(0 0 0)
(0 0 0)
(0 0 0)
(0 0 0)
(0 0 0)
(0 0 0)
(1.61581e-08 -3.85059e-07 0)
(0 0 0)
(0 0 0)
(0 0 0)
(-0.00234883 -0.000852958 0)
(0 0 0)
(-0.000750353 0.00195493 0)
(-0.00168837 -0.00271532 0)
(-0.000269457 0.00388394 0)
(-0.00113113 -0.00266807 0)
(-0.00621713 0.00107243 0)
(-0.000269135 0.00331632 0)
(-0.00463207 0.00197543 0)
(-0.00524323 -0.00150967 0)
(-0.0140061 0.019505 0)
(-0.0183877 0.0119161 0)
(-0.0099842 -0.00504567 0)
(9.36244e-05 0.0126534 0)
(-0.00781016 0.016614 0)
(-0.0177704 0.0259785 0)
(-0.0339252 0.0073369 0)
(0.00315805 0.00282344 0)
(0 0 0)
(0 0 0)
(0 0 0)
(0 0 0)
(0 0 0)
(0 0 0)
(0 0 0)
(0 0 0)
(0 0 0)
(0 0 0)
(0 0 0)
(0 0 0)
(0 0 0)
(0 0 0)
(0 0 0)
(3.13958e-07 -2.51064e-08 0)
(0 0 0)
(0.00255396 -0.00534426 0)
(-0.00317364 -0.00633164 0)
(0.00224679 -0.00213946 0)
(-0.0033409 -0.00904888 0)
(-0.00251594 -0.00580882 0)
(0.00107993 -0.00437695 0)
(0.00176205 -0.00721186 0)
(-0.000386209 -0.00551992 0)
(-0.00304235 0.000477471 0)
(0.00119453 -0.00500984 0)
(-0.00188713 -0.003856 0)
(-0.00168975 -0.00215443 0)
(-0.00535176 -0.00595857 0)
(0.0020143 0.000450824 0)
(0.00190592 -0.00289131 0)
(-0.00652891 -0.00294578 0)
(-0.000735314 -0.00510619 0)
(-0.00334548 -0.00698248 0)
(-0.00397508 -0.00229786 0)
(-0.00350628 -0.00655705 0)
(-0.000331472 -0.00602656 0)
(-0.00109081 -0.00502673 0)
(-0.00220459 -0.00244402 0)
(0.00385907 -0.00365371 0)
(0.000279116 -0.00541395 0)
(-0.000140276 -0.0018388 0)
(0.00135396 -0.00414779 0)
(-0.00290971 0.000371852 0)
(-0.000747313 -0.00331596 0)
(-0.000784277 -0.0022977 0)
(-0.00123207 -0.0011132 0)
(0.000373737 -0.00181298 0)
(-0.0103152 -0.0132401 0)
(-0.0182905 -0.00521631 0)
(-0.0112195 -0.0125948 0)
(-0.023216 -0.0139937 0)
(-0.0169367 -0.0120481 0)
(-0.0222091 -0.0096518 0)
(-0.0254054 -0.01271 0)
(-0.0117564 -0.0220349 0)
(-0.0147618 -0.0178704 0)
(-0.0199632 -0.0122556 0)
(-0.0133052 -0.00079849 0)
(-0.00999836 -0.010971 0)
(-0.0198722 -0.00622697 0)
(-0.0145805 -0.00394685 0)
(-0.00305096 -0.00571181 0)
(-0.00969212 -0.00656943 0)
(-0.00501611 -0.00310118 0)
(-0.00326857 0.00296203 0)
(-0.00498635 -5.78324e-05 0)
(-0.00650023 -0.00323522 0)
(0.00645791 0.0113018 0)
(-0.00231373 -0.00693913 0)
(0.00291894 -0.00727373 0)
(0.00858353 0.00329344 0)
(0.00886465 -0.00503606 0)
(0.00739768 0.000352383 0)
(0.00686831 -0.00360528 0)
(-8.4197e-05 -0.0028602 0)
(0.0022503 -0.00437693 0)
(0.00296622 -0.00354987 0)
(0.00359167 -0.00605786 0)
(0.000836369 -0.00798645 0)
(-0.000311912 -0.00250914 0)
(-0.000139645 -0.00325219 0)
(0.00282889 -0.00525775 0)
(-0.00117126 0.00194758 0)
(0.00375462 -0.00547327 0)
(0.00716148 -0.000576119 0)
(-0.00393702 -0.00725021 0)
(0.00311012 -0.00641867 0)
(0.00169374 -0.009578 0)
(0.00235732 -0.00880068 0)
(0.00478563 -0.011485 0)
(0.0112902 -0.00264349 0)
(0.00934461 -0.00375515 0)
(-0.00077735 -0.0139394 0)
(-0.0039013 -0.018765 0)
(0.00209361 -0.00859999 0)
(-0.00113282 -0.017374 0)
(-0.00881998 -0.0107212 0)
(-0.00424202 -0.00896378 0)
(-0.000635398 -0.0134112 0)
(-0.00498315 -0.0107622 0)
(0.00077509 -0.0163092 0)
(-0.00593845 -0.0159206 0)
(-0.0102759 -0.00984783 0)
(-0.0109161 -0.014421 0)
(-0.00954101 -0.0137752 0)
(-0.00796421 -0.0187764 0)
(-0.00924917 -0.0115028 0)
(-0.00466274 -0.0136036 0)
(0.000470675 -0.00917187 0)
(-0.00841795 -0.0103659 0)
(-0.00214192 -0.01435 0)
(-0.00550789 -0.00885407 0)
(-0.00161063 -0.0131109 0)
(-0.00582369 -0.0125986 0)
(-0.00615067 -0.0146423 0)
(-0.00974213 -0.0111749 0)
(-0.00833732 -0.00467927 0)
(-0.00534057 -0.00612358 0)
(-0.00868092 -0.0117223 0)
(-0.00475353 -0.00809521 0)
(-0.00474087 -0.00944673 0)
(-0.0147092 -0.0118411 0)
(-0.00903991 -0.00956201 0)
(-0.00921743 -0.00875813 0)
(-0.0122508 -0.0170134 0)
(-0.0103363 -0.0132977 0)
(-0.015803 -0.0174066 0)
(-0.0150721 -0.0148746 0)
(-0.00868707 -0.0230979 0)
(-0.00920057 -0.0208837 0)
(-0.0084165 -0.0252249 0)
(-0.0136554 -0.0191046 0)
(-0.00905102 -0.0292978 0)
(-0.00823822 -0.0354803 0)
(-0.0112683 -0.0232867 0)
(-0.0117581 -0.0298906 0)
(-0.00653713 -0.030761 0)
(-0.00396142 -0.0323156 0)
(-0.00576047 -0.0372998 0)
(5.68648e-05 -0.0351584 0)
(0.00897856 -0.0347557 0)
(0.0132518 -0.0275964 0)
(0.000999713 -0.0362797 0)
(0.00839541 -0.0279137 0)
(0.0104414 -0.0344236 0)
(0.0157865 -0.0338973 0)
(0.0222249 -0.0312471 0)
(0.0211061 -0.0276686 0)
(0.0189692 -0.0295518 0)
(0.0172707 -0.0268776 0)
(0.0222464 -0.0310788 0)
(0.0225876 -0.0304113 0)
(0.0228594 -0.0359733 0)
(0.0200153 -0.0258213 0)
(0.0276873 -0.0379739 0)
(0.0184242 -0.0280713 0)
(0.0268714 -0.0401393 0)
(0.0178731 -0.0286619 0)
(0.0205451 -0.0329152 0)
(0.0295773 -0.0381818 0)
(0.0243703 -0.0304944 0)
(0.0193308 -0.0379533 0)
(0.0238797 -0.0248349 0)
(0.0259199 -0.0302783 0)
(0.0238874 -0.0373307 0)
(0.0140565 -0.0283946 0)
(0.0197364 -0.0290614 0)
(0.0162081 -0.0412744 0)
(0.00398556 0.0107093 0)
(0.00468353 0.00937384 0)
(-0.000822493 0.0140017 0)
(-0.00444781 -0.00374025 0)
(-0.00126403 0.0129467 0)
(-0.00289265 0.0126635 0)
(-0.0021735 -0.0117814 0)
(0.0014457 0.000502548 0)
(-0.00223697 0.00684479 0)
(0.00298982 0.000485518 0)
(-0.0025084 -0.00170973 0)
(0.000959168 0.00718452 0)
(0.00604653 0.00214215 0)
(0.00487472 -0.00844472 0)
(0.00796942 0.00702107 0)
(0.0100281 0.00167545 0)
(-0.00638643 0.00940154 0)
(-0.00499923 0.013336 0)
(0.00191166 0.00295587 0)
(-0.00203862 0.0036686 0)
(0.00681895 -0.00282845 0)
(0.00889446 -0.00595546 0)
(0.00202367 -0.000437646 0)
(0 0 0)
(1.53219e-07 1.21579e-08 0)
(0 0 0)
(0 0 0)
(0 0 0)
(0 0 0)
(0 0 0)
(0 0 0)
(0 0 0)
(0 0 0)
(0 0 0)
(-1.26774e-07 1.57893e-07 0)
(0 0 0)
(0 0 0)
(0 0 0)
(0 0 0)
(0 0 0)
(0 0 0)
(0 0 0)
(0 0 0)
(4.69685e-08 1.69923e-07 0)
(0 0 0)
(0 0 0)
(0 0 0)
(0 0 0)
(0 0 0)
(0 0 0)
(0 0 0)
(0 0 0)
(0 0 0)
(0 0 0)
(0 0 0)
(0 0 0)
(0 0 0)
(0 0 0)
(0 0 0)
(0 0 0)
(0 0 0)
(0 0 0)
(6.69341e-08 1.0751e-07 0)
(0 0 0)
(0 0 0)
(3.04058e-07 4.65325e-08 0)
(0 0 0)
(-1.30074e-07 5.7954e-07 0)
(0 0 0)
(6.46846e-08 -6.09758e-08 0)
(-5.08354e-07 9.89631e-08 0)
(6.21778e-09 -1.42071e-09 0)
(0 0 0)
(1.31621e-07 -2.95771e-07 0)
(-4.59127e-07 4.18717e-07 0)
(0 0 0)
(0 0 0)
(9.12278e-08 -8.09289e-08 0)
(0 0 0)
(0 0 0)
(0 0 0)
(0 0 0)
(0 0 0)
(0 0 0)
(0 0 0)
(0 0 0)
(0 0 0)
(0 0 0)
(0 0 0)
(0 0 0)
(0 0 0)
(0 0 0)
(1.96988e-07 -9.83539e-08 0)
(0 0 0)
(0 0 0)
(0.00469677 0.00480122 0)
(0.0091241 0.00285337 0)
(-0.0102819 0.00971316 0)
(0.00670352 0.019463 0)
(0.038832 0.0066264 0)
(0.014236 0.00489267 0)
(0.00948023 0.00104157 0)
(-0.0203639 -0.00113383 0)
(0.00386708 -0.0230765 0)
(0.0112579 -0.0220976 0)
(-9.14689e-05 0.000499014 0)
(-0.00351661 0.00757168 0)
(-0.00223905 0.00242416 0)
(0.00884224 -0.026356 0)
(-0.00221637 -0.00449197 0)
(0.00192593 -0.00700992 0)
(-0.00332734 -0.00680261 0)
(-0.000839417 -0.00979166 0)
(-0.00706451 -0.00710602 0)
(0.00318818 -0.00431293 0)
(0.0013573 -0.0101312 0)
(-0.000615145 -0.00787328 0)
(0 0 0)
(0 0 0)
(-3.89175e-08 -2.82605e-07 0)
(7.57179e-08 -1.27262e-07 0)
(0 0 0)
(0 0 0)
(0 0 0)
(0 0 0)
(0 0 0)
(-6.22904e-09 -2.38669e-08 0)
(0 0 0)
(0 0 0)
(0 0 0)
(0 0 0)
(0 0 0)
(0 0 0)
(0 0 0)
(0 0 0)
(0 0 0)
(0 0 0)
(0 0 0)
(0 0 0)
(-7.1008e-08 -2.14006e-07 0)
(4.2321e-08 1.38232e-07 0)
(0 0 0)
(0 0 0)
(-5.94141e-06 -1.88813e-05 0)
(-0.00461232 -0.00789246 0)
(-0.0035572 -0.00119327 0)
(-0.000144083 0.00404234 0)
(-0.00015665 0.000826261 0)
(0.00206405 0.000296059 0)
(-0.00036324 0.00345927 0)
(0.00138428 0.0028891 0)
(0.00333401 0.0162592 0)
(-0.00683744 0.000517996 0)
(-0.00403766 0.0121777 0)
(-0.00340971 0.004408 0)
(-0.0151851 -0.00721658 0)
(0.00353083 0.0160443 0)
(-0.013627 0.00539684 0)
(-0.0111193 0.026674 0)
(-0.00716908 -0.00441813 0)
(0.0118929 -0.00710727 0)
(3.93287e-08 -4.41266e-09 0)
(0 0 0)
(5.78286e-06 -6.62408e-06 0)
(0 0 0)
(0 0 0)
(-8.32213e-09 7.55257e-10 0)
(0 0 0)
(0 0 0)
(2.95333e-09 1.31717e-09 0)
(0 0 0)
(0 0 0)
(0 0 0)
(0 0 0)
(0 0 0)
(0 0 0)
(0 0 0)
(0 0 0)
(0 0 0)
(0 0 0)
(0 0 0)
(0 0 0)
(0 0 0)
(0 0 0)
(0 0 0)
(2.26528e-07 -4.80832e-08 0)
(0 0 0)
(-0.0039934 -0.00564314 0)
(0.00139425 -0.00476499 0)
(-0.00614359 -0.00606227 0)
(0.00020125 -0.00220829 0)
(-0.000566175 -0.00663154 0)
(0.000987659 -0.00159543 0)
(0.00265553 -0.0031627 0)
(-0.00428277 -0.00244727 0)
(-0.000409819 -0.0037226 0)
(-0.0025685 -0.00202672 0)
(-0.00314492 0.00034527 0)
(-0.000882032 -0.00606694 0)
(5.89705e-05 -0.00128117 0)
(-0.00249815 -0.00136691 0)
(-0.00203898 -0.00242811 0)
(0.000934265 0.00119703 0)
(-0.00195109 -0.00423609 0)
(0.00416703 0.000163615 0)
(0.00340888 -0.00428564 0)
(-0.00188531 -0.00273497 0)
(-0.00105562 -0.00122955 0)
(0.000131391 -0.00249442 0)
(-0.00140673 -0.00166925 0)
(-0.0025454 -0.00230015 0)
(-0.00447575 -0.00187717 0)
(0.000904738 -0.00158129 0)
(-0.000846163 -0.00158569 0)
(-0.00145866 -0.00109304 0)
(0.000405668 0.00015497 0)
(-0.000325858 -0.000659989 0)
(0.000409106 -0.00145153 0)
(0.000297967 -1.79385e-05 0)
(-0.00946986 -0.0181432 0)
(-0.0170383 -0.01535 0)
(-0.0169481 -0.00744093 0)
(-0.017327 -0.000918911 0)
(-0.0184381 -0.00723274 0)
(-0.0238292 -0.0065633 0)
(-0.017339 -0.0160434 0)
(-0.0233893 -0.0139683 0)
(-0.00723053 -0.0385809 0)
(-0.00548162 -0.0377515 0)
(-0.00743029 -0.0289852 0)
(-0.00949665 -0.0251401 0)
(0.00424909 -0.0372253 0)
(-0.0031373 -0.0383474 0)
(0.00619306 -0.0359846 0)
(0.0129365 -0.0341342 0)
(0.0213228 -0.0288025 0)
(0.0173926 -0.0338755 0)
(0.024904 -0.0295577 0)
(0.022307 -0.0405548 0)
(0.0187899 -0.0320595 0)
(0.0312599 -0.0359908 0)
(0.0202022 -0.0276514 0)
(0.0358271 -0.0308624 0)
(0.0201328 -0.0296969 0)
(0.015654 -0.0338496 0)
(0.0260207 -0.0345702 0)
(0.0243584 -0.0305256 0)
(0.0337415 -0.0312579 0)
(0.0229561 -0.0301832 0)
(-0.0125864 -0.00541647 0)
(-0.0129841 0.000403484 0)
(-0.0216407 -0.00334333 0)
(-0.0123214 0.000592806 0)
(-0.00762189 -0.00918132 0)
(-0.00291262 -0.00830865 0)
(-0.00763184 -0.00297388 0)
(-0.0093927 0.00857984 0)
(-0.00334812 -0.00471157 0)
(-0.00692076 0.000309563 0)
(0.00323828 -0.00156917 0)
(-0.000727751 -0.000427638 0)
(-0.002228 0.000229147 0)
(0.000579715 -0.00291752 0)
(0.0101965 -0.00510608 0)
(0.00820482 -0.00454834 0)
(0.000558836 -0.00228391 0)
(-0.00433692 -0.0019756 0)
(0.00140757 -0.00390694 0)
(0.000311892 -0.00418302 0)
(0.000677713 -0.00113957 0)
(0.00315706 -0.00249147 0)
(0.00331381 -0.0025733 0)
(0.00107258 -0.0065236 0)
(0.00420564 -0.00028311 0)
(0.00278635 -0.000680123 0)
(0.000549479 -0.000245171 0)
(0.00250402 -0.00533447 0)
(0.00647383 -0.00924131 0)
(0.0054144 -0.0163849 0)
(-0.00403953 0.000183451 0)
(0.00440405 -0.0144452 0)
(-0.00447947 -0.00987935 0)
(0.0076079 -0.00712001 0)
(-0.00880515 -0.0103183 0)
(0.00038016 -0.00918176 0)
(-0.00494084 -0.0171287 0)
(-0.004953 -0.0108792 0)
(-0.0082485 -0.00695533 0)
(-0.0039579 -0.01218 0)
(-0.00294556 -0.0150432 0)
(-0.00695687 -0.0111457 0)
(-0.00103986 -0.0154532 0)
(-0.00420943 -0.0128027 0)
(-0.00831377 -0.0124716 0)
(-0.00308506 -0.013991 0)
(-0.00556513 -0.0114309 0)
(-0.00681986 -0.013755 0)
(-0.00604563 -0.00850524 0)
(-0.00713176 -0.0114393 0)
(-0.000466074 -0.0136442 0)
(-0.00535695 -0.00799227 0)
(-0.00847128 -0.00813038 0)
(-0.00373398 -0.0127688 0)
(-0.0015361 -0.00630795 0)
(-0.00643738 -0.0139538 0)
(-0.00286532 -0.013441 0)
(0.00402874 -0.0146176 0)
(-0.00988963 -0.00575085 0)
(-0.0060522 -0.00769372 0)
(-0.00769738 -0.0132348 0)
(-0.00333875 -0.007889 0)
(-0.00236942 -0.00725073 0)
(-0.00725905 -0.0147176 0)
(-0.00411647 -0.000364498 0)
(-0.0087553 -0.0174917 0)
(-0.0115609 -0.0212598 0)
(-0.00994035 -0.0102073 0)
(-0.0133553 -0.0197304 0)
(-0.0134435 -0.0141914 0)
(-0.0125553 -0.027599 0)
(-0.00949575 -0.0129054 0)
(-0.00786197 -0.0318187 0)
(0.000256734 -0.0366929 0)
(-0.0060864 -0.0230577 0)
(0.000527869 -0.0313234 0)
(0.011615 -0.0201287 0)
(0.00569806 -0.024456 0)
(0.0205047 -0.0229799 0)
(0.0136448 -0.0202487 0)
(0.0211523 -0.0320688 0)
(0.0188538 -0.0267173 0)
(0.0212833 -0.0288904 0)
(0.0189546 -0.0318361 0)
(0.0235708 -0.0274113 0)
(0.024592 -0.0336195 0)
(0.0215778 -0.0183449 0)
(0.0293738 -0.026359 0)
(0.0284371 -0.0330837 0)
(0.0211101 -0.0428597 0)
(0.0312278 -0.00916484 0)
(0.0241106 -0.0206789 0)
(0.013942 -0.0332039 0)
(0.00888764 -0.0459608 0)
(0.0251279 -0.0242836 0)
(0.021838 -0.0296157 0)
(0.0160836 -0.0310756 0)
(0.0233592 -0.0230582 0)
(0.0157905 -0.0241502 0)
(0.00898001 -0.0274543 0)
(0.0212587 -0.0258949 0)
(0.0199099 -0.0263456 0)
(0.0167168 -0.0316899 0)
(0.00477273 -0.00390688 0)
(-0.00275856 0.00150163 0)
(-0.000282291 -0.000598296 0)
(-0.00254439 0.00911592 0)
(-0.00143345 0.00193947 0)
(-0.00242103 0.0087605 0)
(0.00728836 -0.00254139 0)
(0.00369325 -0.00733224 0)
(-0.00690543 0.00561543 0)
(4.93689e-05 0.000249145 0)
(-0.00231956 0.00039425 0)
(-0.000273457 0.000434763 0)
(-0.00162684 -0.000459905 0)
(0.000444344 -0.00497533 0)
(-0.00540628 0.00415585 0)
(0 0 0)