/*--------------------------------*- C++ -*----------------------------------*\
  =========                 |
  \\      /  F ield         | OpenFOAM: The Open Source CFD Toolbox
   \\    /   O peration     | Website:  https://openfoam.org
    \\  /    A nd           | Version:  8
     \\/     M anipulation  |
\*---------------------------------------------------------------------------*/
FoamFile
{
    version     2.0;
    format      ascii;
    class       volScalarField;
    location    "2400";
    object      nut;
}
// * * * * * * * * * * * * * * * * * * * * * * * * * * * * * * * * * * * * * //

dimensions      [0 2 -1 0 0 0 0];

internalField   nonuniform List<scalar> 
526318
(
0.000155993
0.000219381
0.000233245
0.000297227
0.000248462
0.000274102
0.000210737
0.000266228
0.000196523
0.000123366
0.000287426
0.000203876
0.000300275
0.000206765
0.000281531
0.000269984
0.000251994
0.000133129
0.000175009
0.000216403
4.08517e-05
0.000214167
0.00010052
0.000109248
0.00014589
0.000179513
9.79361e-05
5.68174e-05
0.000226208
0.000117729
0.00011072
0.000164053
0.000140083
0.000112352
0.000298066
0.000256016
0.000348022
0.000274157
0.000132729
0.000257802
0.000332647
0.000165566
0.000109514
5.4877e-05
0.000153013
0.000120857
0.00020028
0.000231071
0.000185951
0.000255158
0.000225045
0.00021453
0.000162114
0.000168716
8.09642e-05
0.000128827
6.84702e-05
0.000148244
0.000199927
7.41474e-05
0.000122305
0.000213939
0.000210972
3.58466e-05
0.000130063
0.000192452
9.32592e-05
7.01409e-05
0.000355331
0.00022878
0.00024519
0.000239081
0.000178245
0.000140525
9.00907e-05
0.000203903
0.000169498
0.00016351
6.9425e-05
8.04131e-05
0.000143201
9.5684e-05
0.000103861
0.000137098
0.000113185
0.00010015
0.000163998
0.000176128
0.000188416
0.000158812
9.72719e-05
6.55276e-05
0.00015821
6.87093e-05
0.000180632
0.000120448
4.34032e-05
1.88417e-05
3.34531e-05
7.87465e-05
0
0
2.38986e-06
1.42308e-06
3.27639e-05
0
0.000130162
7.05319e-05
0.000159563
8.12317e-05
7.02106e-05
0.000170892
2.27763e-05
0.000158813
0.000170856
4.395e-05
4.50649e-05
0.000168825
0.000175059
0.000114218
3.86787e-05
6.2404e-05
9.88555e-05
8.62919e-05
3.9147e-05
7.664e-05
8.21376e-05
9.73688e-05
8.31513e-05
0.000123335
9.29407e-05
9.26664e-05
8.04061e-05
0.00010201
0.000114749
6.25973e-05
8.44225e-05
0.000122212
0.000106384
6.60038e-05
9.89173e-05
6.37977e-05
9.50955e-05
0.000112851
4.21286e-05
9.59419e-05
4.39026e-05
6.08226e-05
6.73144e-05
7.41285e-05
0.000103809
0.000123007
4.36088e-05
8.11449e-05
6.77481e-05
5.90395e-05
0.000124421
7.33992e-05
8.65302e-05
1.36044e-05
0.000119321
8.29678e-05
0.000134885
4.29006e-05
0.000205365
0.000166219
0.000143313
0.000171503
1.85158e-05
0.000113972
0.000118322
6.52299e-05
3.12279e-05
0.000115061
6.73109e-05
3.15643e-05
7.62441e-05
6.9686e-05
3.19901e-05
3.82197e-05
8.10669e-05
5.40085e-05
8.70393e-05
6.10029e-05
8.21859e-05
9.24268e-05
0.000108582
0.000119684
8.63669e-05
0.000102012
9.44082e-05
9.16546e-05
0.000119885
0.000124435
9.00293e-05
0.000105903
0.000116802
7.17808e-05
0.000107165
9.43129e-05
0.000100486
6.1003e-05
9.39996e-05
0.00013225
7.64776e-05
0.000102801
0.000101582
6.09605e-05
9.45934e-05
9.52975e-05
0.000178062
0.000224054
0.000189336
0.000245659
0.00048641
0.000165994
0.000210283
0.000196033
7.75378e-05
0.00025721
6.1317e-05
0.000287373
4.30073e-05
0.000190946
0.000275359
0.000212276
0.000201445
0.00016603
7.54098e-05
0.000132697
0
0.000185075
0.000581807
0
0
0
0
0
0
8.97662e-05
8.59863e-05
0.000201617
6.17846e-05
0.000205852
0.000240611
0.000222386
0.000100267
0.000147871
9.70779e-06
0.000148977
0.000211654
5.8583e-05
5.30515e-05
0.000225881
5.27441e-05
1.57758e-05
0.000257909
9.56071e-05
0.000103809
6.92909e-05
4.60997e-05
0
0
0
4.15197e-08
2.15285e-06
0
1.04695e-05
4.50615e-05
0.000168213
2.83238e-05
0.000146945
9.95316e-05
0.000118717
0.000111165
3.21807e-05
3.51258e-05
0.000199043
7.73802e-05
0.000100275
9.09197e-05
7.05684e-05
4.99903e-05
4.03759e-05
5.87602e-05
8.11865e-05
6.52239e-05
6.39406e-05
5.57163e-05
0.000102371
5.25227e-05
6.4972e-05
9.38939e-05
0.000109749
1.94813e-05
3.92533e-05
8.19593e-05
8.49413e-05
4.19144e-05
7.40968e-05
8.84114e-05
7.04256e-05
8.57699e-05
8.67819e-05
0.000104856
6.91893e-05
5.8931e-05
9.41449e-05
8.21233e-05
5.58361e-05
4.35288e-05
8.90316e-05
1.31638e-05
6.70073e-05
4.94907e-05
3.46238e-05
5.28791e-05
6.08817e-05
7.34832e-05
3.11489e-05
0.000343973
0.000181449
0.000334296
0.000166783
0.000185405
5.76713e-05
4.58189e-05
0.000118473
5.74939e-05
3.34087e-05
2.52504e-05
2.54848e-05
8.35186e-05
4.96447e-05
3.25096e-05
1.28425e-05
7.48003e-05
4.66891e-05
3.2226e-05
8.49952e-05
0.000102284
9.26028e-05
0.00010214
7.79637e-05
0.000108989
9.49691e-05
9.28282e-05
9.63076e-05
0.000116292
0.000111043
0.000152085
0.000103581
0.00015131
0.000115652
0.000127451
0.000110369
0.000116947
0.000107605
7.09874e-05
9.20347e-05
0.000100385
8.34657e-05
7.09356e-05
5.61512e-05
4.73342e-05
7.02155e-05
0.000111835
6.7987e-05
9.70727e-05
4.67608e-06
4.58027e-05
7.99757e-05
5.60242e-05
8.89584e-05
9.46491e-05
0.000101577
0.000125051
8.12813e-05
0.000282144
9.76599e-05
9.43761e-05
0.000485412
0.000309476
0.000104278
0.00031134
0.0001419
8.5886e-05
0.000161801
0.000257447
0.000207359
0.000280683
0.000302721
0.000127395
0.000205334
0.000104255
0.000263276
0.000158102
0.000172933
6.05375e-05
0
0
0.000113709
0
6.33726e-05
0.00010806
0
3.63922e-08
0
0
0
0
0
0
0
0
8.31362e-05
0.000335515
0.000131061
0.000191446
0.000105522
4.46575e-05
2.23325e-05
7.04789e-05
0.000207718
0.000115478
1.32527e-05
1.66006e-05
6.2504e-05
0.00013624
0.000172176
3.95473e-05
6.2485e-05
4.84602e-05
0.000129248
8.47376e-05
4.85169e-05
7.64658e-05
0
2.1158e-09
0
0
0
0
0
0
1.55639e-10
1.36836e-09
0
0
0
0
2.73329e-09
0
0
0
0
0
0
1.15127e-08
1.87734e-05
2.35274e-05
9.98747e-06
4.29403e-05
7.08638e-05
8.57728e-05
0.000118642
0.000170482
0.000148597
0.000192964
6.91491e-05
0.000205173
0.000122987
0.000128873
0.000128736
0.000132555
4.69675e-05
4.40716e-05
6.48084e-05
2.74997e-05
4.07607e-05
5.77199e-05
5.96602e-05
5.78214e-05
5.70756e-05
8.40547e-05
2.65482e-05
3.52431e-05
6.80476e-05
8.43339e-05
5.07276e-05
1.50476e-05
8.94359e-05
3.91541e-05
8.53074e-05
4.51123e-05
2.46582e-05
5.25678e-05
4.14201e-05
1.12025e-05
6.85319e-05
2.20573e-05
7.70983e-05
5.57141e-05
9.55946e-05
7.38158e-05
2.88645e-05
9.11883e-05
0.00011109
9.37881e-05
0.000123205
0.000190211
0.000194083
0.000173394
0.000150056
3.78491e-05
5.31905e-05
5.8152e-05
0.000109881
7.37938e-05
5.65946e-05
7.7833e-05
0.000153485
0.000105788
9.38827e-05
1.18397e-05
7.08787e-05
7.02067e-05
6.0059e-05
4.2546e-05
7.13456e-05
5.97792e-05
5.39302e-05
5.59152e-05
3.92832e-05
1.50489e-05
7.22539e-05
3.91084e-05
5.24426e-05
7.12227e-05
3.44486e-05
8.05406e-05
9.72694e-05
7.07503e-05
9.29135e-05
0.000122794
9.98945e-05
0.000128629
6.04999e-05
0.000135409
9.74867e-05
0.000146636
0.000142381
0.000146532
0.000146104
0.000116044
0.00011503
0.000126572
0.000116129
0.000129545
9.75178e-05
9.4501e-05
8.66918e-05
0.000120446
9.43686e-05
0.000107092
7.19824e-05
4.23093e-05
0.000119919
5.65365e-05
7.88203e-05
0.000131721
0.000113649
0.000137109
0.000125721
8.78444e-05
0.000151886
0.00023433
0.000177269
0.000150883
0.000194373
0.000132826
8.48516e-05
8.93948e-05
0.000122994
0.000200246
0.000265108
5.94927e-05
0.000152432
9.30756e-05
0.000111645
9.44817e-05
7.95647e-05
0.000265266
0.000178806
0.000164164
0.000134297
0.000102042
0.000244995
0.000232242
0.000103801
6.58846e-05
7.71139e-05
0
0
0
0
0.000116174
0.000309703
0
0
0
0
0
0
0
0
0
0
0
0
0
0
0
0
0
0
0
0
2.31956e-09
0
0
2.5725e-10
9.46149e-10
2.52343e-09
0
0
0
0
0
0
0
0
0
0
0
0
0
0
0.000227065
9.70486e-06
0.00014712
0.000267577
0.000157631
0.000210487
0.000302058
0.000103527
0.000117219
6.00253e-05
0.000222857
3.08073e-05
7.98331e-05
0.000158324
9.38245e-05
0.000126425
0.000100656
2.1552e-05
0.000100991
4.82573e-05
6.84109e-05
4.75743e-05
0
0
0
0
0
0
0
0
0
0
0
0
0
0
0
0
0
0
0
0
0
0
0
0
0
0
9.32905e-09
0
0
0
2.74117e-05
0
2.4396e-05
3.36295e-05
3.47286e-05
2.9641e-05
6.13975e-05
2.9764e-05
3.90446e-05
5.87864e-05
0.000193387
0.000178354
8.61928e-05
9.49183e-05
0.000136373
0.000228852
0.00028511
6.32261e-05
0
0
0
0
0
0
0
0
0
0
0
0
0
0
0
7.75044e-09
0
5.50783e-05
5.74474e-05
2.7595e-05
8.70182e-05
5.97967e-05
4.04256e-05
7.69238e-05
5.42737e-05
3.49171e-05
5.21266e-05
4.70605e-05
3.12009e-05
8.77585e-05
2.82728e-05
3.05525e-05
7.44417e-05
5.45377e-05
8.37202e-05
4.68252e-05
8.00749e-05
6.14843e-05
5.46477e-05
4.11717e-05
5.4605e-05
5.81239e-05
2.13511e-05
4.99704e-05
3.28029e-05
4.00914e-05
2.7936e-05
2.09824e-05
2.43057e-05
0.000143416
0.000169666
0.000140389
0.000228279
0.000181413
0.000194021
0.000225104
0.000204129
0.000180912
0.000198491
0.00012441
0.000132747
0.000190167
0.000131775
6.83483e-05
0.000103043
5.73759e-05
4.29754e-05
5.36385e-05
6.85634e-05
0.000123028
6.83426e-05
6.28277e-05
9.12389e-05
8.86743e-05
7.10343e-05
6.58532e-05
3.50095e-05
4.42731e-05
4.80747e-05
6.52945e-05
7.26137e-05
2.81742e-05
3.35777e-05
6.30771e-05
2.93706e-05
6.53854e-05
7.00459e-05
8.84604e-05
7.2514e-05
0.000102597
9.25874e-05
0.000118445
0.000115886
9.2251e-05
0.000130295
0.000166807
7.66174e-05
0.000168816
0.000127162
9.12526e-05
0.000120411
0.000109714
0.000146956
0.000157741
0.000130228
0.000160475
0.000153099
0.000184066
0.000130137
0.000132275
8.0414e-05
0.000111976
0.000134583
9.21843e-05
0.000120265
0.000116804
0.000141375
0.000133981
0.000105166
7.21168e-05
0.000128293
8.16957e-05
8.6111e-05
0.000156253
0.000122703
0.000102517
0.000189484
0.000145956
0.000199478
0.000182613
0.000215818
0.000174763
0.000210693
0.000173822
0.000234333
0.000276336
0.000201818
0.000247862
0.000238327
0.000249067
0.000291669
0.000279365
0.000276169
0.000235383
0.000283006
0.00022382
0.000281573
0.000289172
0.000291612
0.000265456
0.000270824
0.00023179
0.000295527
0.000286024
0.000323095
0.00023624
0.00036056
0.00023624
0.000353347
0.000235344
0.000295708
0.000352235
0.000292149
0.000305897
0.00025005
0.000305274
0.000328811
0.000235568
0.000249909
0.000341596
0.000114025
9.72365e-05
0.000113979
5.78523e-05
0.000117138
0.000109145
0.00010311
8.87019e-06
6.50431e-05
3.41259e-05
3.04497e-05
7.52735e-05
6.46838e-05
0.000109661
0.000117806
7.16087e-05
0.000108266
0.000141322
3.49974e-05
4.8367e-05
7.60147e-05
0.000116366
2.47203e-05
0
3.76339e-09
0
0
0
0
0
0
0
0
0
4.82866e-09
0
0
0
0
0
0
0
0
4.28461e-09
0
0
0
0
0
0
0
0
0
0
0
0
0
0
0
0
0
0
3.13358e-09
0
0
7.25318e-09
0
1.43491e-08
0
2.21689e-09
1.25591e-08
1.53371e-10
0
7.78832e-09
1.50566e-08
0
0
3.0031e-09
0
0
0
0
0
0
0
0
0
0
0
0
0
0
5.18718e-09
0
0
9.2516e-05
9.8727e-05
8.3242e-05
0.000139046
0.000341074
0.000147693
6.53889e-05
0.000160745
0.000203442
0.000194104
4.77e-05
8.17329e-05
7.79382e-05
0.000248592
5.4719e-05
6.04794e-05
7.25619e-05
0.000109789
9.09138e-05
4.03826e-05
9.18241e-05
6.62162e-05
0
0
6.65854e-09
3.42433e-09
0
0
0
0
0
6.08564e-10
0
0
0
0
0
0
0
0
0
0
0
0
5.47656e-09
3.51028e-09
0
0
4.82769e-07
9.20605e-05
3.52697e-05
4.30172e-05
8.3273e-06
2.34279e-05
2.81464e-05
3.97337e-05
0.00013479
5.59842e-05
7.47131e-05
4.90589e-05
9.11094e-05
0.000117006
0.000125491
0.000206924
5.19537e-05
0.000118413
9.4371e-10
0
2.34437e-07
0
0
2.01092e-10
0
0
7.71662e-11
0
0
0
0
0
0
0
0
0
0
0
0
0
0
0
5.47999e-09
0
6.07672e-05
5.02799e-05
8.6182e-05
2.07521e-05
7.11115e-05
2.00187e-05
4.01832e-05
5.48673e-05
4.06467e-05
3.58837e-05
3.21685e-05
6.61786e-05
1.65359e-05
3.33534e-05
3.97704e-05
1.75078e-05
4.44722e-05
4.60387e-05
6.04244e-05
4.23928e-05
2.209e-05
3.16982e-05
2.33071e-05
4.19768e-05
5.62402e-05
2.09274e-05
2.30604e-05
2.50509e-05
7.14773e-06
9.92159e-06
2.03436e-05
4.51345e-06
0.000154238
0.000188013
0.000157871
0.000151304
0.000177132
0.000207049
0.000184012
0.000218582
0.000301224
0.000303601
0.000228004
0.000211821
0.000291528
0.000299339
0.000281583
0.000274345
0.000266917
0.000289403
0.000299428
0.000340686
0.00027999
0.000359511
0.000245132
0.000357797
0.00026249
0.000273227
0.000318766
0.000287801
0.000340504
0.000279269
0.000120265
0.000124769
0.000190769
0.000106175
0.000113769
8.19233e-05
7.48111e-05
0.000115972
6.09921e-05
6.32103e-05
4.18379e-05
9.96662e-06
2.29882e-05
3.13025e-05
0.000107074
8.37257e-05
2.77671e-05
5.07447e-05
3.61815e-05
3.71906e-05
1.49746e-05
4.38317e-05
4.52045e-05
7.11956e-05
5.04371e-05
3.43768e-05
9.35194e-06
6.55368e-05
0.000116619
0.000179422
4.71352e-05
0.000153713
0.000102173
0.000110313
0.000121461
8.40752e-05
0.000163532
0.000117652
9.82114e-05
0.000120598
0.000136299
0.000117026
0.000146155
0.000122039
0.000136696
0.000126127
0.000111371
0.000137496
8.90444e-05
0.000114744
0.000115928
8.38624e-05
0.000103056
0.000122014
6.80414e-05
0.000135205
0.000120971
0.000131491
0.000100019
7.22532e-05
0.000132855
7.58075e-05
7.17651e-05
0.00014054
3.84395e-05
0.000158649
0.000199745
0.000117987
0.000201663
0.000158568
0.000239695
0.000103076
0.000247961
0.000295872
0.00018866
0.000234953
0.000187538
0.000189548
0.000234993
0.000171366
0.000287286
0.000250605
0.000267923
0.000289792
0.000267073
0.000316369
0.000197201
0.000311905
0.00029802
0.000349408
0.000245563
0.000261257
0.000267132
0.000348335
0.000248372
0.000270042
0.00026284
0.000245403
0.000208664
0.000205412
0.000250141
0.000243473
0.000263526
7.20177e-05
3.04964e-05
1.6758e-05
8.14326e-05
2.50765e-05
8.87917e-05
7.41671e-05
7.33437e-05
8.23845e-05
1.37604e-06
2.62473e-05
5.14809e-06
2.06717e-05
5.1188e-05
6.59439e-05
0
0
2.17114e-05
4.05702e-05
4.17568e-05
8.13739e-05
0.000119714
2.75683e-05
0.000111554
0.000112179
0
0
0
0
3.78131e-09
2.88324e-09
0
0
0
7.16243e-09
0
0
0
0
0
7.11063e-09
0
4.40465e-09
0
0
0
0
0
0
0
0
3.53423e-10
0
0
0
1.7511e-09
0
0
0
0
0
0
0
0
0
0
0
0
0
0
0
0
5.72072e-09
0
1.72218e-09
0
0
0
0
0
0
0
0
0
0
3.40193e-05
0.000192739
0.000150164
9.92368e-05
6.02599e-05
6.43055e-05
0.000267662
2.6991e-05
0.000172323
0.000142283
4.27279e-05
0.000147331
8.38795e-05
4.52031e-05
3.97643e-05
5.69787e-05
6.33811e-05
8.54823e-05
3.72264e-05
5.47647e-05
7.10504e-05
5.38411e-05
2.98301e-07
0
3.24595e-09
0
0
0
0
0
0
0
0
0
0
0
0
0
0
0
0
0
0
0
0
6.23127e-09
0
0
4.54799e-05
3.55372e-05
1.49753e-05
2.06275e-05
1.89548e-05
2.17044e-05
3.5591e-05
6.28737e-05
2.07373e-05
0.000184061
2.65066e-05
5.18389e-05
0.000162469
0.000120629
0.000128622
4.42399e-05
0.00019413
0.000121235
0
0
0
0
0
0
0
0
0
0
0
0
0
0
1.26967e-09
0
0
0
0
5.23751e-10
0
4.2691e-10
0
0
7.69344e-09
0
0
0
0
0
0
3.14798e-05
3.73807e-05
2.33024e-05
4.04609e-05
5.23468e-05
2.97234e-05
1.31724e-05
4.08598e-05
3.09479e-05
2.64495e-05
1.54148e-05
3.53282e-05
1.31175e-05
2.34006e-05
8.52145e-06
2.04552e-05
8.94019e-06
6.27395e-05
1.7325e-05
4.95099e-05
5.06453e-05
5.74905e-05
7.43145e-05
2.14215e-05
2.45245e-05
3.57726e-05
2.76275e-05
0
0
0
5.35315e-06
3.23943e-06
8.67028e-06
0
0
0.000215933
0.000144942
0.000196121
0.00017397
0.000132611
0.000215172
0.000185761
0.00016182
0.000192173
0.000158409
0.000228736
0.000202284
0.000239406
0.000185716
0.000215349
0.000215988
0.000242418
0.000212915
0.000183027
0.000195287
0.00018817
0.000208472
0.000144068
0.000221786
0.000165716
0.000176167
0.000195188
0.000222097
0.00021351
0.000301574
0.000312467
0.000291637
0.00028459
0.000227105
0.000258206
0.000159235
0.000204566
0.000156524
0.000163575
0.000183641
0.000148292
0.000184763
0.000213583
0.000273887
0.000265851
0.000203494
0.000211738
0.000272877
0.0002956
0.000314584
0.000308288
0.00033588
0.000331766
0.000286136
0.000386927
0.000276944
0.000364093
0.000297291
0.000348283
0.000326447
0.000321991
0.000305034
0.000344426
0.000126718
0.000116472
5.47131e-05
9.78349e-05
0.000132521
9.9479e-05
0.000133577
2.64779e-05
0.000131593
3.71418e-05
3.33336e-05
0.000207441
0.000181781
0.00023119
0.000230681
0.000169427
0.00016278
0.00017092
0.000170788
0.00011574
0.000207916
0.000118609
0.000199411
0.000149192
0.000165949
0.000197834
0.00021819
0.000155768
0.000239096
4.30146e-05
1.56762e-05
2.66491e-05
5.73844e-05
4.15837e-05
1.37874e-05
0.000124105
5.54677e-05
1.58189e-05
2.36105e-05
5.40183e-05
4.13621e-05
0
1.71046e-05
0
0
2.08267e-05
0
0.000232681
0.000169052
4.54063e-05
0.000142852
8.3862e-05
0.000103864
0.000104532
0.000139761
4.3101e-05
0.000154822
0.000111596
0.000108683
0.000127776
0.000130903
0.000125368
0.000108002
0.000110609
0.000120966
7.45728e-05
0.000138423
0.000100548
0.000144383
0.000139232
0.000113123
0.000155918
0.000129604
0.000101467
0.000106457
0.000111813
0.000129952
9.67675e-05
8.69194e-05
3.11878e-05
0.000132016
0.00014897
4.99716e-05
0.000131091
8.59077e-05
0.000171451
8.61354e-05
0.000226907
9.44722e-05
0.000228681
0.000258065
0.000170388
0.00020029
0.000170236
0.000206606
0.000162394
0.000122428
0.000235114
0.000171222
0.000241579
0.00026054
0.000250124
0.000255191
0.000237072
0.000244946
0.000244432
0.000276276
0.000162028
0.000279845
0.000233885
0.000475427
0.000221614
0.00025098
0.00021754
0.00018351
3.07765e-05
0.000124158
5.49658e-05
6.28313e-05
4.081e-05
2.09884e-05
1.35102e-05
2.63487e-05
3.55434e-05
3.75463e-05
3.57866e-05
0
8.95408e-06
3.25007e-05
0
0
0
0
8.26052e-05
4.84427e-05
2.99715e-05
1.71931e-05
0
0
0
0
0
2.62393e-09
2.77455e-09
4.02817e-09
0
2.77906e-11
0
0
0
0
0
0
0
0
0
1.00625e-08
0
0
0
0
0
0
0
0
2.65769e-07
0
2.99793e-10
0
0
0
0
0
0
4.42816e-10
0
0
0
1.61074e-09
0
0
0
0
2.73224e-09
0
0
0
0
0
0
0
0
5.5053e-09
0
0
0
0
0
0
0
0
0
0
8.61217e-09
0
0
0
0
7.66679e-09
0.000272079
0.000336812
0.000275572
0.000325467
0.000306364
0.000244898
0.000265358
0.000127267
3.55785e-05
0.00014267
0.000184367
0.000105144
0.000124539
0.000190212
0.000119736
5.25204e-05
7.09441e-05
8.712e-05
5.90884e-05
3.85981e-05
2.41808e-05
5.27594e-05
2.69989e-05
1.85112e-05
6.35465e-05
0
0
0
0
0
0
0
0
0
0
0
0
0
1.34873e-05
3.36889e-05
5.12563e-05
0
0
0
0
0
0
0
0
0
0
0
4.17087e-05
2.94832e-05
4.48478e-05
4.14976e-05
0.000179902
9.28423e-05
0.000168903
6.10611e-05
2.85646e-05
0.000162353
7.85054e-05
5.65814e-05
1.8415e-05
0.000141155
0.000160634
8.2404e-05
0
1.04476e-09
0
0
0
0
0
0
0
0
0
0
0
8.46028e-09
0
0
0
7.14893e-09
0
4.27848e-09
0
0
0
4.82056e-09
0
0
0
0
0
0
2.82195e-09
0
0
0
0
0
0
2.1062e-05
1.87053e-05
4.52546e-05
5.12037e-06
3.48045e-05
3.35677e-05
2.98827e-05
3.32787e-05
3.41812e-05
3.73852e-06
1.71644e-05
2.40736e-05
2.16305e-05
0
0
0
7.58321e-08
1.95062e-05
1.26691e-05
2.4571e-05
8.32841e-06
7.10418e-05
5.29787e-05
5.31413e-05
5.61712e-05
0
0
0
0
0
0
0
0
0
0
0
0
0.00019404
0.000227446
0.000179065
0.000179559
0.000225252
0.000154937
0.000229744
0.00022207
0.000226931
0.000209514
0.000196913
0.000222047
0.000217896
0.000223088
0.000237198
0.000202217
0.000317902
0.000301389
0.000279258
0.00028848
0.000278115
0.000230645
0.000191113
0.000259604
0.000194769
0.000138077
0.000134937
0.000177592
0.000217589
0.000198909
0.000190954
0.000266177
0.00025746
0.00030691
0.000224913
0.000333158
0.000326367
0.000227562
0.000313644
0.000345597
0.000361949
0.000331628
0.000366224
0.000301065
0.000366165
0.000357979
0.000303306
0.000296536
0.000329614
0.000304042
0.000316079
0.0003281
0.000308706
3.34972e-05
0.000138231
0.000115351
0.000120876
0.000104619
0.000133397
0.000108619
0.000149648
8.03661e-05
1.61247e-05
7.68933e-05
5.44967e-05
0.000218072
0.000190631
0.000176671
0.000219171
0.000199131
0.000148555
0.000205682
0.000141698
0.000158081
0.000104193
0.00017383
0.000193944
0.00011566
0.000154495
0.000151362
0.000142405
0.000200249
0.000275179
0.00020721
0.000185975
0.000154907
0.000169371
0.000299761
0.000364635
0.000387031
2.14144e-05
5.5162e-05
3.73925e-05
2.06783e-05
3.15265e-05
6.13108e-05
0
6.55726e-06
2.73541e-05
0
0
0
0
4.22123e-09
0
1.96334e-09
0
0
0.000136645
0
1.38462e-08
0.000184988
0.00013415
0.000174616
3.89037e-05
8.1661e-05
0.000125606
0.000113008
0.000126723
7.81974e-05
0.000103355
0.000108592
0.000140431
0.0001428
9.2953e-05
0.000116643
0.000120873
9.44431e-05
0.000124366
9.64252e-05
0.000163294
0.000158449
0.000139909
0.000160064
8.47342e-05
5.30349e-05
7.16538e-05
0.000101892
8.31782e-05
0.000172703
0.000108622
7.21168e-05
0.000121267
4.6513e-05
0.000176555
7.98529e-05
0.000218988
0.000117839
0.000224267
0.000156321
0.000248352
0.000168276
0.000194435
0.000131119
0.000143099
0.000156987
0.000183572
0.000206384
0.000202862
0.000221065
0.000218405
0.000227942
0.000189213
0.000240195
0.000170836
0.000132034
0.000244112
0.000184465
0.000438387
0.000295983
0.000265603
0.000435593
0
0
0
0
2.34835e-05
3.15524e-05
6.45766e-05
5.02545e-05
8.07625e-06
0
0
0
0
0
0
0
0
0
0
0
0
0
0
0
0
0
0
0
3.62338e-09
1.54341e-09
0
0
0
0
0
0
0
0
0
0
0
0
7.27251e-09
0
0
0
0
0
0
0
0
5.61048e-07
0
0
0
2.86717e-09
1.39305e-09
0
8.8759e-10
2.41461e-09
0
0
6.27593e-09
0
2.19286e-09
1.28748e-09
0
0
2.31692e-09
3.03012e-09
0
0
0
0
3.42699e-09
0
5.80388e-09
0
0
0
0
2.15604e-09
1.40373e-09
1.53504e-09
0
0
0
0
0
0
0
0
0
0
1.67798e-09
0
0
0
0
0
0
0
0
0.000327781
0.000331438
0.000315517
0.000397453
0.000369758
0.000501436
0.000432864
0.000412327
0.000494203
0.000467957
0.000112003
0.000268598
0.000135069
0.000157961
0.000243276
7.75861e-05
6.18353e-05
0.000154841
5.58342e-05
1.62187e-05
6.80062e-05
6.37949e-05
2.01886e-05
4.57008e-05
2.18179e-05
6.17025e-06
4.10546e-05
0
0
0
0
0
0
0
1.28172e-05
4.90071e-05
4.26246e-05
0
0
0
0
4.53107e-06
0
1.62115e-09
0
0
4.50775e-10
0
0
0
0
0
0.000152271
0.000157054
0.00020498
4.32221e-05
1.10625e-05
3.1818e-05
4.41677e-06
0.00014716
8.67321e-05
2.63619e-05
0.000112375
9.97045e-05
0.000107569
6.54528e-05
9.0606e-05
0.000182817
0
0
2.44545e-10
3.07849e-09
0
0
3.12951e-09
1.85057e-08
0
0
0
0
0
0
0
1.19368e-08
1.03032e-09
1.02466e-08
0
0
0
5.27912e-09
0
0
0
6.15887e-09
0
0
0
0
0
0
0
0
0
0
0
0
0
0
0
0
1.16076e-08
0
0
2.00494e-05
4.26689e-05
3.27675e-05
1.97903e-05
3.98749e-05
4.72584e-05
1.57089e-05
5.11184e-05
4.85188e-05
0
0
2.55688e-08
3.26355e-08
2.78678e-05
1.27205e-05
0
0
0
0
0
0
0
3.27121e-05
6.71282e-06
5.11119e-05
6.67142e-05
7.39876e-05
0
0
0
3.15175e-09
0
0
0
0
0
0
0
2.72534e-09
0.000232416
0.000226995
0.000197729
0.000193468
0.000272592
0.000264355
0.00035587
0.000337406
0.000210236
0.000413479
0.000352674
0.000364683
0.000374871
0.000388788
0.000217786
0.000200819
0.00024014
0.000204729
0.000235711
0.000235462
0.000230998
0.000264766
0.00031009
0.000310847
0.000299769
0.000267071
0.000280555
0.000216739
0.00023309
0.000280809
0.000179828
0.000154172
0.000181884
0.00019729
0.000200192
0.000224713
0.00022348
0.000235468
0.000223534
0.000327937
0.00029601
0.000325662
0.000255954
0.000201573
0.000326703
0.00030973
0.000331991
0.00029067
0.000292156
0.000257903
0.000296879
0.000277017
0.00035541
0.000256901
0.000307984
0.000334949
0.000288533
0.000293956
0.000112572
8.76157e-05
8.5658e-05
0.000147407
7.66119e-05
0.000105697
0.000195337
0.000145851
5.62439e-05
6.484e-05
5.62249e-05
5.5741e-05
0.000152484
0.000168954
0.000237696
0.000187107
0.000286834
0.000139193
9.73894e-05
0.000180623
0.000151388
0.000139427
0.000141347
0.000149219
9.71291e-05
0.000147483
8.57519e-05
0.000128602
0.000122123
0.000232923
0.000186347
0.000345731
0.000310003
0.000133409
0.000124093
0.000395512
0.000465438
0
0
0
0
0
0
0
0
2.04011e-09
0
0
0
0
0
0
0
1.12946e-08
0
2.72114e-06
1.50302e-06
0
8.95955e-05
4.81112e-05
8.04155e-05
9.11111e-05
7.41549e-05
7.81314e-05
0.000116992
8.72533e-05
8.29726e-05
0.000141087
7.34469e-05
0.000112011
9.13915e-05
0.000129269
9.3597e-05
0.000126715
0.000148886
9.58468e-05
5.91392e-05
0.000135527
0.000112106
0.000107351
8.05752e-05
0.000125903
0.000116695
0.000131367
6.48059e-05
0.000137268
9.24288e-05
0.000165951
0.000100206
0.000157976
6.49817e-05
0.000156358
0.000229567
0.000199908
0.000216351
0.000156868
0.000189431
0.000114919
0.000142792
0.000141799
0.000175714
0.000184842
0.000212182
0.000156636
0.000208667
0.000173118
0.000167672
0.000190989
0.00015595
0.00021477
0.000178253
0.000291267
0.00018786
0.000369328
2.74209e-05
0.000538169
0
0
1.31602e-06
1.78305e-10
0
0
0
0
0
0
0
2.71548e-10
0
2.97505e-09
4.34007e-09
3.5267e-09
1.76597e-09
0
5.72144e-09
3.09365e-07
0
0
0
4.199e-09
0
1.85349e-08
9.78906e-09
0
0
0
0
0
0
0
6.61527e-09
2.25282e-09
0
0
0
0
0
0
1.51449e-08
0
0
0
0
0
0
0
0
0
0
0
0
0
0
0
0
0
0
0
0
0
0
0
0
0
0
0
0
1.77654e-08
0
0
0
0
0
0
0
0
0
0
6.89615e-09
0
0
0
0
0
0
0
0
0
0
0
0
0
0
0
0
0
0
0
0
0
0
0
0
0
0
0
0
0
1.19893e-09
0
0
0
0
0.000515579
0.000457351
0.000543099
0.000551587
0.000606769
0.000580471
0.000372279
0.00039921
0.000510367
0.00050633
0.000579783
0.000645647
0.000657833
0.000421364
0.000417629
7.33324e-05
0.000157236
0.000171855
9.68309e-05
0.000146419
2.60533e-05
0.000107838
7.88763e-05
1.88496e-05
4.4649e-05
2.71025e-05
1.78605e-05
2.07491e-05
4.68113e-05
0
0
0
2.89891e-09
3.68901e-05
4.92641e-05
3.99561e-05
3.5645e-09
0
3.43742e-05
0
0
0
0
0
0
0
0
5.61687e-10
0
4.48429e-10
0
0
0
0.00015303
3.20148e-05
7.09183e-05
0.000100907
9.04973e-05
1.80425e-05
2.35338e-05
3.966e-05
8.88584e-06
0.000160133
0.000103885
1.14639e-05
6.86109e-05
7.68132e-05
0.000128021
8.19441e-05
0
1.05733e-09
0
0
0
0
0
9.53912e-11
0
0
1.256e-08
0
0
0
0
0
0
0
0
8.04271e-11
0
0
0
0
0
0
0
0
0
0
0
0
0
0
0
0
0
0
1.10701e-09
6.01561e-09
0
0
0
0
2.68416e-09
0
0
0
0
0
0
0
0
0
0
0
0
2.90563e-05
4.08582e-05
2.22864e-05
3.77789e-05
2.50301e-05
1.6235e-05
7.20602e-06
6.76345e-06
8.69174e-06
1.8401e-06
1.11188e-05
0
0
0
0
3.83004e-06
8.06952e-06
0
0
0
0
2.19825e-05
6.40109e-05
1.72513e-05
0
0
1.64922e-05
0
1.29923e-05
0
0
0
0
8.94057e-09
9.13984e-09
0
0
0
0
0
0
0.000191541
0.000180115
0.000308583
0.000191829
0.000140903
0.000215533
0.000450565
0.000290368
0.000358229
0.000433302
0.000457736
0.000458445
0.000447074
0.000218682
0.000251632
0.000204174
0.000254042
0.000253177
0.000216292
0.000262118
0.000225602
0.000317577
0.000279335
0.00025898
0.00028415
0.000282408
0.000220305
0.000274352
0.00027955
0.000232168
0.00024928
0.000268078
0.000152677
0.000291767
0.000265058
0.00025202
0.000196958
0.000324638
0.000276815
0.000204359
0.000253519
0.000147712
0.000128376
0.00021584
0.000201287
0.000204299
0.000214026
0.000224651
0.000308805
0.000298034
0.000237709
0.000372293
0.000250182
0.000260097
0.000321074
0.000263786
0.000309328
0.000101149
4.51541e-05
0.000168432
0.000146616
0.000156354
0.000150824
0.000155448
0.00023875
2.03842e-05
7.75414e-05
0.000121732
9.04002e-05
3.5043e-05
2.87438e-05
5.25972e-05
0.00020092
2.7834e-05
0.00016861
0.000272787
9.38926e-05
0.000119558
4.89786e-05
0.000178682
6.29198e-05
0.000124522
0.000123763
0.000106117
8.16383e-05
0.000111717
6.89209e-05
0.000116185
0.000196909
0.000165825
0.000320174
0.000285634
0.00039792
0.000410841
0.000134475
0.000100503
0.000497325
0.000433278
0
0
3.12744e-09
0
0
2.41349e-09
5.10158e-09
0
0
0
0
4.26558e-09
2.28797e-09
0
0
0
0
0
5.33134e-05
8.38469e-06
0
3.84515e-05
9.47017e-05
8.20859e-06
5.9169e-05
6.27889e-05
6.0573e-05
7.83284e-05
0.000118867
7.72098e-05
0.000128273
0.000108594
0.000114787
0.000140155
0.000159143
0.000124853
8.80698e-05
0.000158133
9.94922e-05
0.000122929
0.000157573
0.000112778
7.34491e-05
8.09882e-05
6.35166e-05
0.000146513
0.000109193
4.70844e-05
9.04055e-05
7.66393e-05
0.000139496
0.000186505
9.61313e-05
0.000107366
0.000157564
0.000151241
7.76612e-05
0.000171157
9.79623e-05
0.000151712
0.000123684
0.000170935
0.000146432
0.000227526
0.00023676
0.000152689
0.000197888
0.000136335
0.00015025
0.000173432
0.000174212
0.000168838
0.000159239
0.000221412
0.000187066
0.000219653
0.000249764
0.000191497
0
0
3.81667e-09
0
0
0
0
1.17373e-08
0
8.74391e-10
0
0
0
2.55151e-09
4.41439e-09
7.53482e-09
7.02921e-09
4.35413e-09
7.06887e-09
0
0
0
0
0
0
0
0
0
0
0
0
0
0
0
0
5.31542e-09
0
0
0
4.43029e-07
0
0
0
0
0
0
0
0
0
0
0
0
0
0
0
0
0
0
2.37515e-06
0
0
0
0
0
1.11925e-09
2.5926e-10
1.14813e-09
0
0
0
0
0
0
0
0
0
0
0
0
0
0
0
0
0
0
0
0
0
0
0
0
0
0
0
0
0
0
0
0
0
0
0
0
0
0
0
1.19135e-09
0
0
0
3.9501e-10
0
0
1.56224e-10
4.77947e-09
0
0.000505404
0.000548563
0.000470105
0.0005807
0.000574294
0.000668043
0.000643524
0.000507105
0.000490541
0.000596126
0.000608277
0.00069216
0.000745913
0.000671354
0.000424692
0.000495747
0.0005334
0.000465345
0.000514875
0.000178282
5.82548e-05
2.18324e-05
3.67532e-05
6.8069e-05
8.78281e-05
9.0863e-05
7.27504e-05
5.26732e-05
2.79943e-05
1.38038e-05
2.73005e-05
1.61168e-05
2.52017e-05
0
0
1.69627e-05
5.56057e-05
4.90036e-05
0
0
2.793e-05
3.6648e-05
0
0
0
0
0
0
0
0
5.5809e-09
0
0
0
0
0
0
9.12152e-05
2.67902e-05
2.41579e-05
0.000175826
2.87671e-05
4.86925e-05
4.30883e-05
3.85074e-05
6.0664e-05
0.000107321
7.78494e-06
9.09344e-05
4.18884e-05
0
0
0
0
0
0
5.41029e-09
2.20352e-09
0
0
1.36774e-09
0
0
0
0
0
0
3.80075e-07
0
0
0
0
0
0
0
0
0
0
2.14314e-08
0
0
0
0
0
0
0
0
0
0
0
0
0
0
0
0
2.71117e-09
0
0
0
0
0
7.69895e-09
0
0
0
0
0
0
0
0
0
0
0
6.59925e-05
3.92029e-05
9.33537e-06
1.29054e-05
8.10924e-06
3.43185e-05
1.08578e-05
8.58223e-06
3.5478e-06
0
0
0
0
0
0
0
0
0
0
0
0
0
0
5.79773e-06
4.50331e-05
0
0
0
3.8619e-05
6.19986e-05
1.67974e-05
0
0
0
2.17454e-09
0
0
0
0
0
0
0
0
0.000452806
0.000295165
0.000238955
0.000315197
0.000454829
0.000320913
0.000396286
0.000449181
0.000481013
0.000534938
0.000540638
0.000566744
0.000587061
0.000532238
0.000277085
0.000228703
0.000231917
0.000227327
0.000235608
0.000263121
0.000283425
0.000230947
0.000271471
0.000257428
0.000337738
0.000262173
0.000250441
0.000260473
0.000363109
0.000292826
0.000216746
0.000285112
0.000151065
0.000282151
0.000293576
0.000372219
0.000206138
0.000270841
0.000331511
0.000314353
6.56737e-05
6.98845e-05
0.000106588
0.000152669
9.20877e-05
0.000155045
0.000167165
0.000155008
0.000202629
0.000265118
0.000312394
0.000284311
0.000161491
0.000244647
0.000251876
0.000263235
0.000270048
0.00029657
7.32077e-05
8.82914e-05
0.000221085
0.000168394
0.000170312
0.000211407
0.000186069
0.000209461
1.80694e-05
1.43657e-05
7.24972e-05
2.57346e-05
9.08405e-07
9.84372e-05
8.36339e-05
7.35898e-05
6.08645e-05
8.99602e-05
0.000100966
1.77811e-05
0.000124876
5.60148e-05
0.00015124
9.10175e-05
7.44473e-05
8.83432e-05
5.06908e-05
9.81084e-05
0.000162942
0.000253442
0.000227242
0.000361925
0.000348652
0.00041543
0.000449582
9.26071e-05
2.20412e-05
0.000438036
0.000505249
0
0
0
0
0
0
0
0
0
5.07384e-09
0
0
0
0
0
0
5.00709e-09
0
0
5.2407e-06
0
3.66153e-05
8.65785e-05
2.68147e-05
4.46696e-05
8.42906e-05
2.09215e-05
6.47053e-05
5.76668e-05
0.000142254
7.79661e-05
9.11263e-05