/*--------------------------------*- C++ -*----------------------------------*\
  =========                 |
  \\      /  F ield         | OpenFOAM: The Open Source CFD Toolbox
   \\    /   O peration     | Website:  https://openfoam.org
    \\  /    A nd           | Version:  8
     \\/     M anipulation  |
\*---------------------------------------------------------------------------*/
FoamFile
{
    version     2.0;
    format      ascii;
    class       volScalarField;
    location    "17460";
    object      alpha;
}
// * * * * * * * * * * * * * * * * * * * * * * * * * * * * * * * * * * * * * //

dimensions      [0 0 -1 0 0 0 0];

internalField   nonuniform List<scalar> 
526318
(
0.000194036
0.000294396
0.00025415
0.000112353
0.00033633
0.000189012
0.000544985
0.000412751
0.000243051
0.00012719
0.000290772
0.000419532
0.000263056
0.000137466
0.000252621
8.38317e-05
0.000165117
0.000286895
0.00027124
5.79323e-05
0.000218758
0.000497137
0.000494901
0.000162885
0.000109208
0.000388744
7.72335e-05
0.000372711
3.96171e-05
6.64642e-05
0.000185546
0.000217895
0.000393552
0.000278909
0.000251889
0.000272777
0.000113775
0.000213631
0.000315556
0.000859359
0.000412159
0.000343079
0.000362813
0.000185335
0.000206696
0.000212179
0.00047263
0.000635702
0.000218773
0.000477778
0.000337372
0.000134913
0.00045688
0.000333412
0.000838376
0.000174617
0.000554524
0.000197128
0.000261783
0.000339387
0.000167074
0.000269386
0.000436507
0.000214094
0.000239383
0.000352148
0.000308928
0.000183618
0.000236671
0.00026173
0.000173252
0.000494601
0.000267823
0.000177678
0.000335977
0.000353105
0.000370787
0.000286676
0.000286454
0.000397535
0.000255383
0.000212439
0.000343791
0.000279005
0.000335925
0.000384559
0.000290133
0.000208214
0.000463066
0.000188243
0.000384821
0.000391801
0.000341215
0.000326612
0.000562837
0.000362419
0.00046734
0.000439519
0.000326826
0.000460248
0.00224405
0.0022956
0.00256471
0.00120603
0.0011874
0.00312114
0.000447335
0.000595646
0.000231617
0.000196957
0.000135566
0.000310113
0.000287599
0.000159141
7.86129e-05
0.000139623
0.000195074
0.000186467
4.40731e-05
0.000555629
0.000408785
0.000441472
0.000420724
0.000368127
0.00040493
0.000489263
0.000394463
0.000612858
0.000511695
0.000520062
0.000661614
0.000554761
0.000543648
0.000612518
0.00050201
0.000647109
0.000600169
0.000547076
0.000530595
0.000674527
0.000605939
0.000581505
0.000645982
0.000636006
0.000631495
0.00061986
0.000593685
0.000490518
0.000583942
0.000559588
0.000564642
0.000565949
0.000443055
0.000572809
0.000461145
0.000490012
0.000437104
0.000605666
0.000665434
0.000685279
0.000610484
0.000525905
0.000463347
0.000414834
8.58097e-05
0.000349438
0.000259175
0.000371646
0.000293469
0.000324582
0.000396092
0.000375115
0.000281032
0.000342747
0.000338392
0.000360343
0.000387947
0.000381312
0.000514879
0.000470863
0.000369977
0.0003847
0.000415756
0.000465502
0.000486926
0.000678943
0.000549227
0.000468946
0.000535602
0.000468897
0.000574746
0.000488669
0.000576971
0.000589213
0.000513116
0.000488417
0.000529326
0.000442338
0.000456471
0.000542082
0.0004173
0.000474455
0.000476301
0.000576596
0.000471833
0.000596752
0.000631853
0.000552763
0.000489688
0.000628748
0.000440665
0.000587469
0.000305366
0.000323624
0.000237013
0.000171405
0.000417279
0.000195309
0.000304291
0.00036429
0.000323802
0.000526082
0.000399337
0.000448359
0.000142047
0.000581153
0.000399989
0.000581545
0.000230166
0.00169275
0.000428338
0.00103428
0.000879639
0.00901658
0.0571052
0.00785811
0.00376301
0.00405176
0.000163188
0.000163772
0.000212476
0.000240458
0.000250422
0.000372905
0.000122276
0.000251492
0.000307358
0.000328608
0.000370099
0.000287174
0.000261835
0.000274621
0.000412962
0.000247042
0.000319807
0.000462942
0.000335023
0.000520343
0.000336117
0.000308979
0.000394343
0
0
0.00422757
0.0162185
0.000314052
0.00264907
0.00135547
0.000246805
0.000205651
0.00035478
0.000215156
0.000260186
0.000199041
0.000242038
0.000165965
0.000236015
7.94907e-05
0.000257173
0.000367095
0.000242954
0.000497782
0.00043175
0.00044503
0.000485848
0.000621493
0.000565336
0.000628408
0.000556693
0.000534538
0.000601144
0.000598515
0.000590688
0.000671001
0.000616103
0.000703698
0.000714013
0.000576945
0.000726346
0.000718478
0.000737374
0.000737832
0.000736641
0.000732059
0.000594964
0.000764921
0.0005886
0.000521831
0.000494145
0.000615021
0.000536804
0.000688159
0.000571308
0.000717293
0.000653548
0.000652508
0.000696421
0.000702665
0.000800953
0.000726039
0.000283087
0.00029595
0.000448513
0.000359594
0.000295525
0.000288488
0.000391059
0.000325837
0.000286438
0.000238892
0.00035493
0.000371296
0.000470109
0.000523842
0.000418804
0.000541203
0.000556053
0.000506015
0.000624341
0.000476239
0.000654496
0.000556241
0.000448758
0.000529607
0.000446244
0.000538883
0.000504209
0.000451398
0.00048651
0.000552246
0.000467626
0.000514773
0.000395036
0.000422806
0.000351887
0.000413824
0.000391493
0.00048256
0.000496967
0.000624753
0.000568254
0.00043746
0.000609334
0.000506638
0.000526094
0.000615977
0.000506279
0.000607535
0.000656541
0.000709129
0.000587363
0.000498806
0.000569556
0.000681611
0.000716195
0.00070368
0.000629789
0.00037729
0.000191317
0.000397892
0.000936531
0.00050211
0.000455261
0.000594789
0.000638604
0.00058229
0.000239892
0.000198046
0.000232425
0.000573181
0.00028062
0.000193333
0.000227692
0.000321002
0.000251286
0.00020858
9.95705e-05
0.000335622
0.000280974
0.00279141
0.0033795
0.000756218
0.00247926
0.000666879
0.00068778
0
0
0
0
0
0
0.015355
0.00417334
0.00327983
0.00436431
0.000176881
0.000186629
0.000170086
0.000295899
0.000228449
0.000148194
0.000350537
0.000376874
0.00027707
0.000305187
0.000414183
0.000338889
0.000395796
0.000267808
0.000337929
0.000361225
0.000323421
0.000328994
0.00035956
0.000472607
0.000336375
0.000405673
0
0.0031242
0.000285053
0
0
0
0
0.000641452
0.00332214
0.00297396
0
0
0
0
0
0
0
0
0
0.0123989
0.00113037
0.00227155
0.000759788
0.000458013
9.13177e-05
0.000716816
0.000328145
0.000162626
0.000258149
0.000220588
0.000113277
0.000313183
0.000194739
0.000340357
0.000152754
0.000175774
0.000358891
0.000122725
0.000479797
0.000449697
0.000529045
0.000506196
0.000536942
0.000589496
0.00053222
0.000480315
0.000522326
0.000480536
0.000584826
0.000556643
0.000640754
0.000767686
0.00071205
0.000816772
0.000755445
0.000897858
0.00078432
0.000773879
0.000560325
0.000578985
0.000673007
0.000640965
0.000545039
0.000719336
0.000589334
0.000672866
0.000627788
0.000525816
0.000554139
0.000756242
0.000771278
0.000791483
0.000765717
0.000813485
0.00068736
0.000673011
0.0007174
0.00072904
0.00066855
0.000745669
0.000744686
0.000759739
0.000911125
0.000435297
0.000180898
0.000435033
0.000576487
0.000586451
0.000562526
0.000347449
0.00041163
0.000202421
0.000316611
0.000302017
0.000431584
0.000443756
0.000429646
0.00046094
0.000449829
0.000616949
0.000597707
0.000766242
0.000824343
0.000775643
0.000588211
0.000592276
0.000452183
0.000445312
0.000499124
0.000411499
0.000453155
0.000458342
0.000517727
0.00048531
0.000509459
0.00044178
0.000453815
0.000369993
0.000395143
0.000409255
0.000332998
0.000460946
0.000352564
0.000506241
0.000619227
0.000414609
0.00053076
0.000510613
0.000591574
0.0005952
0.000519751
0.000591102
0.000520693
0.00051331
0.000570004
0.000494248
0.000545287
0.000628466
0.000679129
0.000621373
0.000639164
0.000636624
0.000605031
0.000569248
0.000108763
0.000436958
0.000426875
0.000702709
0.000301553
0.000549654
0.000503961
0.000102701
0.000260875
0.000135729
0.00023101
0.000506584
0.000483553
0.000256296
0.00029343
0.000108624
0.000139163
0.000292808
9.78082e-05
7.93222e-05
0.000116542
0.0092156
0.00360271
0.00148956
0.00248608
0.000852717
9.78454e-05
0
0
0
0
0
0
0.00748944
0.0436024
0.00438947
0.0138913
0
0
0
0
0
0
0
0
0
0
0.00734875
0
0
0.00171977
0.00295849
0.0073175
0
0
0
0
0
0
0
0
0
0
0
0
0
0
0.000219923
0.000230205
0.000187385
0.000237553
0.000222948
0.000386055
0.000202681
0.000383665
0.000399186
0.000267506
0.000367968
0.000240335
0.000441902
0.000374291
0.000341154
0.000334216
0.000258893
0.000373133
0.000366169
0.000372118
0.000426043
0.000368393
0
0
0
0
0
0
0
0
0
0
0
0
0
0
0
0
0
0
0
0
0
0
0
0
0
0
0.00688236
0.0338241
0.0066494
0.000785601
0.000392011
0.000659337
0.00050772
0.000335558
0.000186353
0.000448489
0.000235174
0.000227149
0.000127465
0.000221197
0.000175312
9.8628e-05
0.000229242
0.000147726
0.000247129
0.000282674
0.00015762
0.000265049
0.00261187
0
0
0
0
0
0
0
0
0
0
0
0
0
0
0
0
0.00046426
0.000417044
0.000476603
0.000481107
0.000513358
0.000474724
0.000501673
0.000467972
0.000557102
0.000552429
0.000639555
0.000588352
0.00082207
0.000683941
0.00079764
0.000676191
0.000967963
0.000744655
0.000828501
0.000885756
0.000698044
0.00070872
0.000758348
0.00075464
0.000616265
0.000666535
0.000721516
0.000680417
0.000672123
0.000764736
0.000715475
0.000751902
0.000611603
0.000636729
0.000605782
0.000583717
0.00063444
0.000684621
0.000542448
0.000517811
0.000479231
0.000438097
0.000852816
0.000749465
0.000812269
0.000627627
0.000694657
0.000769287
0.000833591
0.000756145
0.000876148
0.00077374
0.000504401
0.00033782
0.000489827
0.000486317
0.000447446
0.000359656
0.000232435
0.00039234
0.000471987
0.000239499
0.000551423
0.000418028
0.000530611
0.000487608
0.000573778
0.000533953
0.000794334
0.000783567
0.000900879
0.000786751
0.0007496
0.000607945
0.000491547
0.000574371
0.000491963
0.000391065
0.000408613
0.000499144
0.000509103
0.000458622
0.000460039
0.000487597
0.000401461
0.000425035
0.000406923
0.000338146
0.000340687
0.000446371
0.000369558
0.000474348
0.00044974
0.000527497
0.000451786
0.000394819
0.000527712
0.000616204
0.000456567
0.000561276
0.000492947
0.00057047
0.000541819
0.000611937
0.000470318
0.000582537
0.000585637
0.000570329
0.000527206
0.000527139
0.000544484
0.00055976
0.000462376
0.000493822
0.000415591
0.000374987
0.000351841
0.000335341
0.000265516
0.000371173
0.0003168
0.000285855
0.000232557
0.000235197
0.000185933
0.000188495
0.000158499
0.000186426
0.000112016
0.000140925
0.000174909
0.000146187
0.000122912
0.000164106
0.000162873
0.000137957
0.000147644
0.000158819
0.00015076
0.00014043
0.000157006
0.000174863
0.000143275
0.000154891
0.000155789
0.000154937
0.000180784
0.000138725
0.000159924
0.000144471
0.000181187
0.000159309
0.000124638
0.000326732
0.000245274
7.54105e-05
0.000287953
0.000256297
0.000639777
0.00048994
0.000761337
0.00073722
0.000538462
0.000636138
9.01612e-05
0.00034788
0.000665262
0.00041788
0.000377068
8.08763e-05
0.000177758
0.000342188
0.000287
0.000129839
0.000233342
0.000283017
0.00214575
0.001996
0.000913015
0.00310104
0.000339573
0.00241058
0
0
0
0
0
0.15946
0
0.0131021
0.0122536
0.0294979
0
0
0
0
0.00856604
0
0
0
0
0
0
0
0
0
0
0
0
0
0
0
0
0
0
0
0
0
0
0
0.0181926
0
0.0273723
0.0351136
0
0
0.0862157
0.0279163
0
0
0
0
0
0
0
0
0
0
0
0
0
0
0
0
0
0
0
0
0.000312404
0.000266355
0.000235432
0.000236854
0.000330601
0.000188734
0.000426159
0.000449699
0.000314471
0.000446827
0.000351505
0.000321497
0.00035464
0.000294335
0.000288863
0.000352067
0.000348787
0.000383251
0.000429424
0.000338528
0.000205329
0.000294685
0
0
0.00388192
0.00287657
0
0
0
0
0.00691878
0
0
0
0
0
0
0
0
0
0
0
0.00691098
0
0.00613749
0.0022081
0.000566706
0.000610409
0.000525955
0.000490001
0.000393855
0.000445782
0.000242038
0.000154231
0.000201541
0.000307168
0.000150035
0.000364108
7.69143e-05
0.000152943
0.000172354
0.000364296
0.000191028
0.000305757
0.000205156
0.000251741
0
0
0
0
0
7.55706e-05
0
0
3.54975e-05
0
0
0
0
0
0
0
0
0
0
0
0
0
0
0
0.538829
4.9194
0.000414548
0.00043626
0.000457326
0.000497891
0.000510969
0.00048691
0.000520684
0.000539515
0.000535827
0.000533889
0.000612783
0.000585015
0.000698859
0.000865934
0.000875165
0.000758964
0.000694889
0.000838628
0.000766535
0.000755999
0.000830339
0.000837343
0.000753817
0.000817953
0.000776279
0.000751897
0.000812921
0.000916402
0.000797022
0.000776112
0.000787827
0.000719108
0.000417109
0.000425564
0.000569789
0.000664684
0.000628239
0.000671784
0.000452766
0.000522848
0.000262419
0.000245089
0.000304195
0.000362036
0.000219303
0.000199013
0.000203867
0.000181208
0.000169838
0.000154162
0.000177664
0.000188407
0.000197607
0.000166299
0.000196431
0.000165533
0.000148064
0.000171821
0.000137922
0.00012093
0.000163682
0.000192872
0.000739441
0.000923472
0.000745901
0.000638747
0.000834717
0.000661322
0.000827672
0.000667077
0.000751038
0.00090485
0.000593767
5.48941e-05
0.000422911
0.000428495
0.000306692
0.000270793
0.00021022
0.000397588
0.000570811
0.000332458
0.000494728
0.000521556
0.000409189
0.000695507
0.00103527
0.000932857
0.00136272
0.00090867
0.000665397
0.000611288
0.000818696
0.000590709
0.000448414
0.000553273
0.000426328
0.000566277
0.000574118
0.000416597
0.00044229
0.000512395
0.000426702
0.000437941
0.000396944
0.000366481
0.00034154
0.000392136
0.000440021
0.000353237
0.000361891
0.00045564
0.000398501
0.000470977
0.000419036
0.00036142
0.000555134
0.000458907
0.000434361
0.000511035
0.000411649
0.000535152
0.000559432
0.000617348
0.00061337
0.000466227
0.000536683
0.000526607
0.000532644
0.000483862
0.000470355
0.000479742
0.000349945
0.000353122
0.000297109
0.000216283
0.000320126
0.000232789
0.000157026
0.000121888
0.000127086
9.67252e-05
0.000129631
0.000116001
0.000142374
0.000137565
0.000144773
0.00014025
0.000133432
0.000134727
0.00013999
0.000120957
0.000111216
0.000127378
0.000107573
8.62797e-05
0.0001189
0.000133389
0.000101687
0.000111776
8.72707e-05
7.95098e-05
0.000122188
0.000106284
9.67155e-05
0.000366889
0.000146852
0.000255169
9.95682e-05
0.000621525
0.000728674
0.00016154
0.000145097
0.00050245
0.000712221
0.000476735
0.00097852
0.000527637
0.000431786
0.000112934
0.00136328
0.000487222
0.000139284
0.000926444
0.000502683
0.00034788
0.000357521
0.000340832
0.000755492
0.00106526
0
0.0132879
0.0117853
0.00252821
0.00251059
0.00116025
0
0
0
0.163086
0
0
0
0
0
0
0
0.0119599
0
0
0
0
0
0
0
0
8.57499e-05
0
0
0
0
0
0
0
0
0
0
0
0
0
0
0
0
0
0
0
0
0
0
0
0
0
0
0
0
0
0
0
0
0
0.000340592
0.000170637
0.000268148
0.000157688
0.000423773
0.000208346
0.000271834
0.000305098
0.00029748
0.000345186
0.000331991
0.000423202
0.000246411
0.000370956
0.000220575
0.000369632
0.000366113
0.000226303
0.000218038
0.000219793
0.000269316
0.000179781
0.00228262
0
0.000428745
0
0
0
0
0
0
0
0
0
0
0
0
0
0
0
0
0
0.192663
0.000174837
0.000937435
0.00179908
0.000929119
0.000708639
0.000445742
0.00064065
0.000474672
0.000338215
0.000149332
0.000378992
0.000210158
0.000182933
0.0003721
0.000265956
0.00018278
0.000372905
0.000368771
0.000113936
0.000229775
0.000281022
0.000246231
0.000187306
0
0
0
0
0
0
0
0
0
0
0
0
0
0
0
0
0
0
0
0
0
0
0.498151
0
0
0
0
0
0
0
0
0.000433448
0.000493336
0.000461001
0.000419937
0.000484492
0.000406058
0.000409534
0.000492171
0.000248685
0.000399241
0.000344614
0.000604834
0.000519086
0.000727457
0.000749431
0.000777071
0.000792884
0.000927066
0.000766831
0.000715427
0.000847642
0.000814121
0.000811627
0.00077457
0.000816924
0.000908085
0.000901574
0.00082265
0.00086709
0.000816562
0.000750796
0.000770313
0.000792706
0.000989973
0.000890567
8.28785e-05
0.000114467
0.000111743
0.00011674
0.000117339
0.000114084
0.000138162
0.000145255
0.000108933
0.000147537
0.000135327
0.000170903
9.80019e-05
0.000157997
0.000109965
0.000114128
9.61025e-05
8.19007e-05
0.000109827
0.000121276
9.92531e-05
9.08858e-05
0.000129216
9.78965e-05
0.00011067
9.3146e-05
0.000116045
8.64632e-05
9.92289e-05
0.000157333
0.000128377
0.000124377
0.000144132
0.00013442
0.000114331
0.000384839
0.000460577
0.000511777
0.000615897
0.000687784
0.000576645
0.000476665
0.000485372
0.000256873
0.000282277
0.000378828
0.000288567
0.000231711
0.000204306
0.000160516
0.000166627
0.0001962
0.000182082
0.000219121
0.000184768
0.000215221
0.000181399
0.000207084
0.000183345
0.000182057
0.00015969
0.000201995
0.000183912
0.000687434
0.000858781
0.000914844
0.0010926
0.00078351
0.0006612
0.000669554
0.000542321
0.000711711
0.000604303
0.000895439
9.5007e-05
7.73885e-05
9.65862e-05
0.000103549
8.39469e-05
9.39765e-05
0.000108984
0.00010125
0.000104252
9.56885e-05
0.000126538
0.000125429
0.000135514
0.000151022
0.000155527
0.000179178
0.000151751
0.000184151
0.00051894
0.000247943
0.000706085
0.000396585
0.000451682
0.00026591
0.00059918
0.000354597
0.000300277
0.000573941
0.00049684
0.000156388
0.00116501
0.000725464
0.00169469
0.00135063
0.000893535
0.00113129
0.000503404
0.000652526
0.000592772
0.000489793
0.000570371
0.000445055
0.000364354
0.000653597
0.000502801
0.00061555
0.000452724
0.000480811
0.0004125
0.000413009
0.00034162
0.000362874
0.000380556
0.000335711
0.000386283
0.000386394
0.00039484
0.00037748
0.000404823
0.000478748
0.000325732
0.000425423
0.000480912
0.000410795
0.000424075
0.000478979
0.000400987
0.000522287
0.000477077
0.000549211
0.000509437
0.000445229
0.000512189
0.000451446
0.000460338
0.000509015
0.000315867
0.000400474
0.000267903
0.000273208
0.000365453
0.000231613
0.000150808
0.000150335
9.68018e-05
9.90316e-05
9.64832e-05
9.80496e-05
0.000117594
0.000113451
0.00013246
0.000132688
0.000126334
0.000132176
0.000137182
0.000125521
0.000123123
0.000107963
0.000112231
8.97591e-05
9.65917e-05
8.68418e-05
6.94671e-05
0.000386546
0.000102975
0.00074772
0.000312494
0.000292085
6.12928e-05
0.000752823
0.00063643
0.00112498
0.00189063
0.000799594
0.000702309
0.00229024
0.0014839
0.000563984
0.00160579
0.00268049
0.00226697
0.00100934
5.65018e-06
0.00143345
0.0013344
0.000752746
0.000282366
0.00306544
0.0170597
0.030242
0.0428103
0.0244604
0
0.00366378
0.00669327
0.00343118
0.00542007
0
0
0
0
0
0
0
0
0.0241106
0
0
0
0
0
0
0
0
0.196152
0
0
0
0
0
0
0
0
0
0
0
0
0
0
0
0
0
0.00495659
0
0
0
0
0
0
0
0
0
0
0
0
0
0
0
0
0
0
0
0.00213993
0
0
0
0
0.00236718
0.000169762
0.000220171
0.000152111
0.000175384
0.00018569
0.000188168
0.000294584
0.000144209
0.000234176
0.000215463
0.000266512
0.000349034
0.000199345
0.000472718
0.00039936
0.000285492
0.000150125
0.000266243
0.000163574
0.000293027
0.00012101
0.000272486
0.000192562
0.00010924
0.000141627
0
0
0
0
0
0
0
0
0
0
0
0
0
0.000442183
0.000451703
0.000676248
0
0
0
0
0.0844033
0
0.00391596
0.00386143
0.00124124
0.00169618
0.000690656
0.000300247
0.000394581
0.000380579
0.000214518
0.000178997
0.000326731
0.000154247
7.90211e-05
0.000322688
0.000185525
0.000223684
0.000375188
3.18155e-05
0.000234581
0.000174131
0.000270307
0
0.000998355
0
0
0
0
0
0
0
0
0
0
0
0
0
0
0
0
0
0
0
0
0
0
0
0
0
0
0
0
0
0
0
0
0
0
0
0.000195157
0.000132553
0.000235206
0.000309248
0.000363243
0.000369883
0.000289968
0.000492333
0.000337381
0.000470272
0.000528453
0.000226042
0.000192405
0.000699781
0.000637166
0.000741303
0.000632146
0.000991493
0.00111728
0.000883321
0.00116089
0.000776137
0.000927353
0.000958198
0.000806966
0.00115505
0.00134465
0.00140151
0.00121183
0.000848851
0.000838645
0.00118621
0.00081666
0.0010583
0.0012988
0.00136075
0.00154877
0.00012378
0.000100456
0.00010123
8.20368e-05
0.000184134
0.000114134
0.00020286
0.000198298
0.000109465
0.000121173
0.000124128
0.000106944
0.000107079
0.000122445
9.76433e-05
9.96045e-05
0.000153039
0.000173232
0.000161236
0.00013912
0.000124539
0.000146507
0.000397398
0.000498883
0.000559482
0.000485042
0.000578758
0.000663677
0.000501745
0.000489577
0.000254046
0.000231459
0.000298263
0.000399967
0.000271382
0.000174515
0.000303165
0.000310278
0.000224524
0.000212628
0.000187102
0.000227829
0.00019887
0.000228931
0.000196823
0.000194442
0.000218526
0.000194448
0.000211646
0.000176818
0.000193768
0.000206197
0.000188724
0.000994735
0.000874143
0.000781005
0.000644185
0.000969839
0.000798756
0.000611281
0.00065786
0.000690608
0.000761725
0.000881063
0.000644358
8.84097e-05
9.56804e-05
8.49229e-05
9.11384e-05
8.35387e-05
9.47889e-05
9.8378e-05
0.00010077
0.000110285
0.000114338
0.000111094
0.00012531
0.000132083
0.000161592
0.000131494
0.00016506
0.000177072
0.000190633
0.00019026
9.08958e-05
0.00010008
0.000100361
0.000202509
0.00019763
0.000220242
0.000509067
0.00061757
0.000834524
0.000780301
0.000669906
0.000634304
0.0011841
0.000574194
0.000424232
0.000334962
0.00044245
0.000818785
0.00134037
0.00102727
0.0010797
0.00139624
0.00078593
0.000820827
0.000638155
0.000943792
0.00051065
0.000565292
0.000452577
0.000757752
0.000389476
0.000519578
0.000631221
0.000347172
0.0004756
0.000442343
0.000368854
0.000362133
0.00033489
0.000366797
0.0003939
0.00036521
0.000387809
0.000318406
0.00044519
0.000254343
0.000481086
0.000397385
0.000506996
0.000385207
0.000388752
0.000467716
0.000436583
0.000375204
0.000409402
0.000495959
0.00039178
0.000437763
0.000382208
0.000410407
0.00038386
0.000464701
0.000358424
0.000326329
0.000198115
0.000346677
0.00032526
0.0001333
0.000156959
8.96213e-05
9.42363e-05
8.80533e-05
7.75653e-05
8.33118e-05
9.70761e-05
0.000119003
0.000103341
0.000116814
0.000118152
0.000111475
0.000123219
0.000112764
0.000105179
0.000116663
0.000107348
8.31998e-05
9.0564e-05
7.03573e-05
0.00267923
0.00135998
0.0168753
0.0027662
0.000380627
0.000652997
0.00123003
0.00239483
0.00231876
0.00392784
0.00221522
0.00129775
0.00768812
0.00102456
0.00405336
0.00258659
0.00235936
0
0
0.00670289
0.00660577
0.00202403
0.0103224
0.230776
0.258793
0
0
0
0.0206736
0.021439
0
0
0
0.0197323
0
0
0
0
0
0
0
0
0.285363
0
0
0
0
0
0
0
0
1.39282
0
0
0
0
0.00335183
0
0
0
0
0
0
0
0
0.00234786
0
0
0
0.00266677
0
0
0
0
0.0056282
0
0.00738357
0
0
0
0
0
0
0
0
0
0
0
0
0
0
0
0
0
0.00367971
0
0
0
0
0
0
0
0
0.000139996
0.000130183
0.000197885
0.000198192
0.0002029
0.00024093
0.000190656
0.000221497
0.000206622
0.000206049
0.00028928
0.000158074
0.00022062
0.000257857
0.000417536
0.000140833
0.000309168
5.94801e-05
0.000152214
0.000470449
0.000153517
0.000186608
0.0001466
0.000164469
0.000197249
7.95704e-05
0.000173136
0
0
0
0
0
0
0
0.000482827
0.00050991
0.00056715
0
0
0
0
0.000818102
0.0007885
0
0
0
0
0.00442356
0.023734
0.000703932
0.00315253
0.00143252
0.000375452
8.00962e-05
0.000312915
0.000293687
0.000376452
0.00029173
0.00034764
0.000217098
0.000315033
0.000303652
0.000325976
0.000463564
1.01082e-05
0.000324873
0.000413312
0.000331221
0
0
0.000943829
0
0
0
0
0.000209934
0
0
0
0
0
0
0
0.00862715
0
0.00404762
0.0066225
0
0
0
0
0
0
0
0
0
0
0
0.0127934
0
0
0
0
0
0
0
0
0
0
0
0
0
0.00334392
0.000157342
0.000159251
0.000148341
0.000166736
0.000108463
0.000223221
0.000208967
0.000228593
0.000358464
0.000356091
0.00037533
0.00057781
0.000458117
8.33743e-05
9.42219e-05
0.000607961
0.000667308
0.00059172
0.000944534
0.00104706
0.00122332
0.00107435
0.000913331
0.000881122
0.000997869
0.000794253
0.0010678
0.00126686
0.00148803
0.00123741
0.00104198
0.000866524
0.00108704
0.00146426
0.0010134
0.0011852
0.00125275
0.00124101
0.00120991
9.95129e-05
0.000141466
0.000144091
0.000258638
0.000199602
0.000135818
0.000330033
0.000342764
0.000183975
0.000254413
0.00029867
0.000262543
0.000182767
0.000220385
0.000134962
0.00012115
0.000125401
0.000111393
0.000124877
0.000107668
0.00016187
0.000112339
0.00016594
0.000183599
0.000149479
0.000169103
0.000152636
0.000133848
0.000422284
0.00052891
0.000531052
0.000502371
0.000576379
0.000561379
0.000526167
0.000525571
0.000329859
0.000258545
0.000313082
0.000432728
0.000248148
0.000187061
0.000203501
0.000298338
0.00019957
0.000219567
0.000205821
0.00022816
0.00022659
0.000200946
0.000216277
0.0002017
0.000198829
0.000212526
0.000199309
0.000177242
0.000191273
0.000206346
0.000876375
0.000853316
0.000661468
0.000650402
0.000711283
0.000751773
0.000625882
0.000591129
0.000708663
0.000745344
0.000621084
0.000828114
9.83805e-05
9.13757e-05
7.22369e-05
8.40432e-05
7.34095e-05
8.56491e-05
8.49235e-05
9.21067e-05
9.61542e-05
0.000115715
0.000118709
0.000121201
0.000134058
0.00014136
0.000140185
0.000155632
0.000175737
0.000201673
0.000172046
0.000199592
0.000197612
0.000105208
0.000107803
0.000224689
0.00022991
0.000819665
0.00159758
0.00274662
0.00181626
0.000997541
0.00129364
0.000780767
0.00064471
0.000587487
0.000750419
0.00164116
0.00151932
0.00131059
0.00263116
0.0015928
0.000582856
0.00112154
0.00120564
0.00066349
0.0009263
0.000595331
0.00053858
0.000361606
0.000812392
0.000504087
0.0004541
0.000575441
0.000689743
0.000391525
0.000431786
0.000390041
0.000319982
0.000424744
0.000329292
0.000331127
0.000343341
0.000339776
0.000301998
0.000476846
0.000283741
0.000439684
0.000385424
0.000401822
0.000431143
0.000439018
0.000365814
0.000328837
0.000385928
0.000353337
0.000387718
0.000337239
0.000355635
0.000305853
0.000311428
0.000289706
0.000295967
0.000265981
0.000186361
0.000222811
0.000128002
0.000118185
9.12895e-05
7.56615e-05
7.3976e-05
6.55598e-05
8.12138e-05
7.60031e-05
9.63353e-05
0.000105981
9.02634e-05
9.88156e-05
0.000100819
9.81106e-05
9.66559e-05
0.000104334
0.000115362
7.59227e-05
0.000109477
6.18903e-05
0
0
0.181173
0
0.0271907
0.0044433
0.0252223
0.00337519
0.0047963
0.0106902
0.0118317
0.00477399
0.0112423
0.00175579
0.00750059
0.00506765
0.00364661
0.00619441
0.00237878
0.140882
0
0
0
0
0
0
0
0
0
0
0
0
0
0
0
0.250877
0
0
0
0
0
0
0.608296
0
0
0
0
0
0
0
0
0
0
0
0
0
0
0
0
0
0
0
0
0
0
0
0
0
0
0
0
0
0
0
0
0
0
0
0
0
0
0
0
0
0
0
0
0
0
0
0
0
0
0
0
0
0
0
0
0
0
0
0
0
0
0
0
0
0
0
0
0
7.94742e-05
0
0
0
0
0.000229681
0.000234293
0.000239508
0.000227372
0.000203973
0.000224761
0.000151791
0.000183094
0.000199586
0.000222146
0.000168616
0.00022287
0.000175302
0.000151692
0.000117706
0.000157904
0.000109327
0.000150589
0.000379656
0.00013657
0.000171729
0.000103101
0.000225836
0.000131307
0.00013914
0.000137413
0.000133996
0.000112297
0.000112851
0
0
0
0
0.000544714
0.000373538
0.000689813
0
0
0.000759161
0.000892166
0
0
0
0
0.00263575
0.00115839
0.00357828
0.00322624
0
0
0.00304391
0.0163159
0.0020925
0.000337291
0.000225001
0.000282106
0.000341353
0.000437939
0.000427137
0.000300647
0.000373244
0.000208021
0.000215432
0.000113321
0.00019947
0.00040343
7.98997e-05
0.000271697
0.000263118
0
0.00332642
0
0
0
0
0
8.33049e-05
0
0
0.000206074
0
0
0
0.000907617
0
0
0
0
0
0
0
0
0
0
0
0
0
0
0
0
0
0
0
0
0
0.00345776
0
0.0117931
0
0
0
0
0
0
0
0
0
0
0
0
0
0
0
0
0
0
0.00017246
0.000264523
0.000117052
0.000155837
0.00020713
0.000103425
0.000133732
0.000153244
0.000149161
0.00011149
0.000147041
0.000351603
0.00021034
0.000483829
0.000469498
0.000182864
6.96573e-05
0.000436431
0.000614032
0.000907654
0.000589458
0.00100969
0.000817855
0.00111906
0.00111356
0.00118072
0.0011043
0.00134236
0.0012052
0.00144288
0.00164868
0.00129212
0.00159677
0.000965574
0.00121326
0.00137176
0.00108265
0.0016156
0.00129718
0.00193716
0.00207212
0.000147835
8.08252e-06
0.000234462
0.000327313
0.000228169
0.000380646
0.000290009
0.000331871
0.000240359
0.000304778
0.000211951
9.66403e-05
0.000124255
0.000123163
0.000137079
0.000113895
0.000124409
0.000109436
0.000100433
0.000120527
0.000135949
0.000187269
0.000165353
0.000153364
0.000169853
0.000153677
0.000142142
0.000450878
0.000530816
0.000493226
0.000534938
0.000547645
0.000518233
0.000549219
0.000531398
0.000348415
0.000274903
0.000441934
0.000351683
0.000221486
0.000183769
0.000300786
0.000210072
0.000204701
0.00020869
0.000218778
0.000222347
0.000224674
0.00021441
0.000218441
0.000215767
0.000212961
0.000212138
0.000185552
0.000196681
0.000202641
0.000205785
0.000763906
0.000730406
0.000654621
0.000528119
0.000554755
0.000592283
0.000558345
0.000594513
0.00071592
0.000640077
0.000595634
0.000728829
0.000991475
0.000911673
0.000717134
0.000105778
7.50729e-05
7.34713e-05
7.10532e-05
7.78771e-05
9.04362e-05
8.4813e-05
9.19274e-05
0.0001006
0.000108924
0.00012453
0.000120391
0.000147082
0.000138267
0.000153301
0.000140034
0.000167711
0.000175217
0.000187092
0.000209291
0.000201788
0.000222232
0.000118533
0.000117765
0.000229563
0.000233729
0.00436587
0.00318487
0.0130849
0.0025375
0.00109034
0.000716452
0.00063358
0.000397261
0.000567861
0.00405196
0.00139675
0.0030379
0.00237272
0.00211579
0.000977251
0.00213872
0.00117592
0.000827275
0.000633394
0.000305088
0.000737429
0.000411348
0.000552072
0.000488756
0.000352119
0.000409467
0.000377866
0.000502716
0.000411942
0.000420171
0.00030184
0.00043117
0.000420475
0.000313495
0.000275344
0.000291783
0.000278388
0.000301368
0.00027627
0.00032897
0.000314917
0.000323532
0.000283861
0.000339861
0.000358979
0.00031705
0.000292221
0.000331643
0.000261419
0.000272959
0.000258868
0.000286882
0.000237995
0.000226723
0.000165094
0.000213113
0.000176279
0.000197414
0.000179395
9.40859e-05
9.96765e-05
7.43442e-05
7.38997e-05
8.21727e-05
8.42402e-05
6.56386e-05
9.6444e-05
7.42288e-05
8.42224e-05
9.27062e-05
8.77976e-05
9.23519e-05
8.67577e-05
8.88261e-05
8.69177e-05
8.96714e-05
8.2265e-05
9.00209e-05
0
0
0
0
0
0
0
0
0
0.00670788
0.0142892
0
0.231512
0.00901308
0.00473863
0.00709544
0.00431974
0.00584811
0.0064596
0.00477397
0.0100706
0
0
0
0
0
0
0
0
0
0
0
0
0
0
0.179143
0
0
0
0.222568
0
0
0
0
0
0
0
0
0
0
0
0
0
0
0
0
0
0
0.314441
0
0
0
0
0
0.00202351
0.00234053
0.00415587
0
0
0
0
0
0
0
0
0
0
0
0
0
0
0
0
0
0
0
0
0
0
0
0
0
0
0
0
0
0
0
0
0
0
0
0
0
0
0
0
0
0.00581399
0
0.00283597
0
0.0104174
0
0
0
0.000249784
0.000251864
0.000249456
0.000251276
0.000244329
0.000235276
0.000242988
0.00016539
0.000224397
0.000191358
0.000189574
0.000205955
0.000255094
0.000215342
0.000177851
0.000208871
0.000181915
0.000209243
0.00014204
0.000258358
7.34784e-05
0.000128244
8.88498e-05
0.000117879
0.000228502
0.000120337
0.000122108
0.000154425
0.000162762
7.03629e-05
8.52986e-05
0.000117795
0.000150423
0
0
0.000592536
0.000388191
0.000584889
0
0
0.0007412
0.000801373
0
0
0.000989889
0.000886026
0
0
0
0
0.000623129
0.00301199
0
0.0188308
0
0.051056
0.00705236
7.49426e-05
0.000338243
0.000289389
0.000220297
0.000400428
0.000460441
0.000469407
0.000254856
0.000380379
0.000277298
0.000470417
0.000143102
0.000291209
0
0
0
0
0
0
0.0272889
0.0300535
0
0
0
0
0
0
0
0
0
0.0977719
0
0
0
0
0
0
0
0.00318313
0
0
0
0
0
0
0
0
0
0
0
0
0
0
0
0
0
0
0
0
9.16773
0
0
0.0808018
3.65308
0.0793853
0.0108979
0
0
0
0
0
0
0
0
0
0
0.000156035
0.000141673
0.000285876
0.000361818
0.000144711
0.000132971
0.000220495
0.00034013
0.000216868
8.83725e-05
0.000158879
0.000177823
0.000131249
0.000179414
0.000378045
0.000800159
8.84007e-05
0.000143276
0.000474875
0.000843347
0.000901678
0.00139863