/*--------------------------------*- C++ -*----------------------------------*\
  =========                 |
  \\      /  F ield         | OpenFOAM: The Open Source CFD Toolbox
   \\    /   O peration     | Website:  https://openfoam.org
    \\  /    A nd           | Version:  8
     \\/     M anipulation  |
\*---------------------------------------------------------------------------*/
FoamFile
{
    version     2.0;
    format      ascii;
    class       volScalarField;
    location    "17460";
    object      Hclip;
}
// * * * * * * * * * * * * * * * * * * * * * * * * * * * * * * * * * * * * * //

dimensions      [0 1 0 0 0 0 0];

internalField   nonuniform List<scalar> 
526318
(
1.54323
1.491
1.56854
1.47878
1.56779
1.50277
1.5312
1.44082
1.50399
1.3763
1.35978
1.4843
1.42058
1.46726
1.43781
1.46598
1.41617
1.62661
1.53542
1.58245
1.57654
1.53318
1.28468
1.53722
1.41269
1.27735
1.55616
1.55734
1.54724
1.56653
1.58463
1.64415
1.63063
1.50058
1.49195
1.46752
1.459
1.54365
1.48899
1.4847
1.51875
1.47323
1.13882
1.2023
1.1069
1.14217
1.12722
1.2516
1.42972
1.31352
1.42078
1.40746
1.35967
1.3256
0.822763
1.0733
1.05927
0.867135
1.57512
1.60433
1.62642
1.57666
1.50392
1.64833
1.63824
1.59524
1.56876
1.58396
1.48493
1.48933
1.58126
1.36676
1.43036
1.32604
1.27075
1.26664
1.36219
1.35416
1.27464
1.305
1.39647
1.39665
1.34697
1.31126
1.31628
1.39023
1.40283
1.38073
1.3223
1.39884
1.30776
1.2486
1.24137
1.18472
1.17677
1.1815
1.17479
1.1702
1.17182
1.1724
0.616531
0.543583
0.633971
0.669321
0.73984
0.522791
1.07935
0.896389
1.20913
1.17385
1.21005
1.3379
1.56044
1.43876
1.54847
1.5711
1.62266
1.6038
1.65518
1.17159
1.17331
1.17292
1.17122
1.13083
1.16493
1.08322
1.1259
1.03315
1.08431
1.03115
1.03192
1.02247
0.995874
0.988898
1.01658
0.958763
1.0128
0.962228
0.981675
0.927208
0.933371
0.954446
0.983378
0.968657
0.927041
0.925306
0.941729
0.928541
0.926623
0.931774
0.944442
0.933015
0.933824
0.934538
0.934883
0.898205
0.933487
0.933488
0.901734
0.857617
0.933602
0.881959
0.939493
1.44251
1.55102
1.47349
1.45043
1.26474
1.32863
1.26984
1.26779
1.25191
1.26985
1.2833
1.26911
1.20394
1.16689
1.13654
1.07485
1.13763
1.17523
1.17513
1.18162
1.06365
1.11837
1.00233
1.0133
1.02279
1.01333
1.01554
1.01839
1.00807
1.01013
1.00581
0.994598
0.975243
0.998398
0.990981
0.962234
0.939708
0.969466
0.950963
0.94387
0.96388
0.952437
0.955558
0.919806
0.938192
0.967944
0.970088
1.42162
1.45051
1.45085
1.40665
1.43518
1.42493
1.40913
1.28497
1.34149
1.08135
1.06702
1.05663
1.18952
1.33222
1.18551
1.21728
1.2447
1.20018
1.15131
0.665007
0.459231
0.800369
1.00518
0.263915
0.100889
0.396305
0.493081
0.457774
0.472418
1.61833
1.61827
1.67179
1.64938
1.62999
1.61474
1.5249
1.60711
1.46035
1.39522
1.40271
1.39394
1.40299
1.39777
1.38336
1.38554
1.30281
1.36511
1.18479
1.23845
1.17161
1.17756
0.001
0.001
0.363642
0.148124
0.648762
0.595151
0.65004
0.796727
1.1788
0.996035
1.22595
1.23065
1.33701
1.45207
1.56375
1.56884
1.61041
1.58701
1.64287
1.67157
1.15005
1.15313
1.10783
1.08192
0.978378
1.0142
0.941759
0.950687
0.942974
0.936903
0.925986
0.933564
0.855181
0.878332
0.913892
0.952818
1.00704
0.973615
0.936359
0.933352
0.866916
0.857684
0.909511
0.963135
0.886864
0.92781
0.92587
0.892986
0.892974
0.855797
0.857041
0.812314
0.817054
0.818796
0.807544
0.931989
0.968628
0.93198
0.972508
1.33846
1.28227
1.18773
1.28015
1.19775
1.25529
1.25956
1.26043
1.26051
1.26712
1.17001
1.09053
1.01931
0.999469
1.07835
1.01761
1.00408
1.11611
1.00453
1.05448
0.993212
0.994417
1.003
0.994687
1.00882
1.00373
1.00357
1.00618
1.00508
1.00464
1.01237
1.00758
1.01865
1.01636
1.01854
0.996912
1.01107
0.9929
0.967788
0.968718
0.993564
1.02396
1.02006
0.994708
0.977527
1.00344
1.04426
1.04389
1.05322
1.01644
1.05041
1.06745
1.10427
1.05386
1.06339
1.08441
1.12237
1.22106
1.31239
1.24519
1.31543
1.33772
1.40557
1.32178
1.18864
1.32458
1.19683
1.22239
0.956838
0.894718
0.930013
0.905125
1.04003
1.16463
1.08129
1.16322
1.15395
1.18515
1.14645
0.419971
0.572237
0.728003
0.561531
0.808403
0.694266
0.001
0.00100559
0.001
0.00100962
0.001
0.001
0.218166
0.462871
0.334713
0.367846
1.65099
1.65386
1.70871
1.67044
1.67274
1.64319
1.5468
1.45832
1.40891
1.40743
1.38236
1.38715
1.367
1.36222
1.34207
1.34606
1.29857
1.33718
1.26061
1.20643
1.14911
1.11267
0.001
0.001072
0.001072
0.001
0.001
0.001
0.001
0.00107201
0.0010721
0.00107202
0.00100999
0.00100984
0.001
0.00100942
0.001
0.001
0.001
0.001
0.001
0.160249
0.609743
0.402353
0.716557
0.684309
0.880802
0.730971
1.09461
1.2538
1.26925
1.37155
1.57983
1.46968
1.59089
1.59945
1.60715
1.63377
1.66125
1.68274
1.06789
1.06944
1.02207
1.04793
0.985966
0.950665
0.942756
0.942155
0.937549
0.944189
0.896927
0.89075
0.833817
0.846574
0.904326
0.875321
0.847064
0.896054
0.889741
0.909334
0.816799
0.805691
0.829595
0.846089
0.846767
0.803487
0.804927
0.801297
0.803761
0.788219
0.785936
1.09076
1.06043
1.06106
1.06449
1.08303
1.18908
1.15044
1.13044
1.00888
1.05286
1.03829
1.04271
0.941181
0.878945
1.05546
1.17519
1.06548
1.07338
1.04325
1.12123
1.11026
1.17163
1.21255
1.13277
1.11794
1.15188
1.02944
1.00209
1.00096
1.00329
0.917466
0.97159
0.895892
0.848484
0.827117
0.944851
0.947805
0.992917
0.993796
0.995662
0.995542
0.996143
0.999675
0.998211
1.00689
1.00153
1.01759
1.01165
1.0183
1.01883
1.0434
1.02938
1.0546
1.05759
1.00733
0.990303
1.05545
1.0384
1.02721
1.04357
1.02624
1.01558
1.06558
1.04402
1.14814
1.15284
1.10759
1.14663
1.15825
1.12141
1.21344
1.18939
1.25791
1.2739
1.30301
1.21137
1.22867
1.21177
1.15786
1.15526
1.11154
1.22003
1.06923
1.02959
1.08585
1.13037
0.793306
0.845874
0.928892
1.05047
1.08346
1.12267
1.03379
0.98206
0.957766
0.884771
0.259549
0.345957
0.608148
0.422181
0.73253
0.784508
0.001
0.001
0.00100979
0.001
0.001
0.001
0.281754
0.0496007
0.198843
0.194839
0.001
0.001
0.001
0.001
0.001
0.00101
0.001
0.001
0.001
0.001
0.00113472
0.001
0.001
0.00113452
0.00113454
0.00113455
0.001
0.001
0.001
0.001
0.001
0.001
0.001
0.001
0.00100959
0.001
0.00100965
0.001
0.001
0.001
1.65192
1.65347
1.69043
1.67663
1.65996
1.58244
1.40942
1.48042
1.36265
1.36892
1.35241
1.3506
1.33857
1.34035
1.33293
1.32599
1.27539
1.25329
1.15205
1.18998
1.05002
1.08767
0.001
0.001
0.001
0.001
0.001
0.001
0.001
0.001
0.00101
0.001
0.001
0.001
0.001
0.001
0.001
0.001
0.001
0.00100737
0.001
0.001
0.001
0.001
0.001
0.001
0.001
0.001
0.0823324
0.0541294
0.119624
0.303641
0.751576
0.558394
0.773083
0.770224
1.06845
0.899211
1.27875
1.23551
1.3006
1.41013
1.51201
1.59633
1.60058
1.58371
1.63883
1.66213
1.6572
1.63321
0.00114166
0.001
0.001
0.001
0.001
0.001
0.001
0.001
0.001
0.001
0.001
0.001
0.001
0.001
0.001
0.00101
0.001
1.04772
1.04835
1.04715
1.01219
0.934698
0.968279
0.895514
0.887042
0.854077
0.847457
0.803614
0.802522
0.828096
0.823367
0.785059
0.820278
0.815596
0.865199
0.84661
0.846774
0.767331
0.737731
0.737691
0.781198
0.792173
0.792962
0.766991
0.769771
0.730767
0.71925
0.682555
0.689763
1.29053
1.25351
1.29798
1.3031
1.2559
1.21077
1.37664
1.40221
1.46533
1.47074
1.02046
1.06297
1.11341
1.19847
1.01786
0.964496
0.999708
1.00061
0.838846
0.890963
0.941256
0.82632
1.04554
1.03853
1.0367
1.05008
1.0661
1.04352
1.05663
1.0703
0.949668
0.945716
0.845576
0.933447
0.924384
0.885394
0.832774
0.855372
0.795424
0.815498
0.794
0.879635
0.942167
0.877919
0.945024
0.993282
0.992795
0.997194
0.998566
0.997413
1.0167
1.0132
1.02883
1.0233
1.04468
1.03824
1.06068
1.06066
1.0623
1.06177
1.07149
1.06492
1.10588
1.07748
1.04413
1.04207
1.11015
1.0756
1.08492
1.12337
1.16683
1.1645
1.16633
1.16543
1.19802
1.2487
1.31342
1.33062
1.34312
1.31736
1.45941
1.40107
1.52775
1.56774
1.55462
1.59703
1.64958
1.51288
1.60413
1.62464
1.7014
1.75096
1.77456
1.79689
1.82697
1.76765
1.82466
1.7809
1.86277
1.86414
1.91043
1.87859
1.94134
1.97079
1.96201
1.90901
1.97544
1.9985
1.9647
1.96137
2.02709
2.00261
2.03599
1.97455
1.97619
2.04001
2.00773
1.95924
1.9615
1.9941
2.02363
1.01895
0.975056
1.14422
1.14591
1.1213
1.12558
1.10927
0.882353
1.02023
0.720753
0.74614
0.851517
0.826203
0.709712
0.779323
0.7846
0.944819
0.854718
0.853252
0.765802
0.752015
0.770043
0.788931
0.31765
0.183642
0.578432
0.373978
0.576242
0.53659
0.00101
0.001
0.001
0.001
0.001
0.00106442
0.001
0.160259
0.0565764
0.0877834
0.001
0.001
0.001
0.001
0.00137872
0.001
0.001
0.001
0.001
0.001
0.001
0.001
0.001
0.001
0.00100829
0.001
0.001
0.001
0.0010095
0.001
0.001
0.001
0.001
0.00100665
0.001
0.001
0.00101
0.001
0.00101689
0.001
0.0010165
0.00101619
0.0010099
0.00100758
0.00101652
0.00101455
0.001
0.001
0.001
0.001
0.001
0.001
0.001
0.001
0.0010078
0.001
0.001
0.001
0.001
0.001
0.001
0.001
0.001
0.00101
0.001
0.001
1.6356
1.61523
1.60583
1.59994
1.52277
1.58665
1.42769
1.34645
1.33126
1.34295
1.33984
1.3367
1.27922
1.28041
1.13045
1.08863
1.04742
1.21946
1.21993
1.17159
1.16827
1.16961
0.001
0.001
0.00115601
0.00115599
0.001
0.001
0.001
0.001
0.001156
0.001
0.001
0.00100893
0.001
0.001
0.001
0.001
0.001
0.001
0.001
0.001
0.145412
0.001
0.176248
0.176209
0.41821
0.212389
0.618034
0.769843
0.898352
0.772129
1.06771
1.22609
1.27176
1.28841
1.37958
1.48895
1.55365
1.53781
1.56905
1.5136
1.57072
1.60479
1.56274
1.55036
0.00101
0.001
0.00100993
0.001
0.001
0.00119214
0.001
0.001
0.00119214
0.001
0.001
0.001
0.001
0.001
0.001
0.001
0.001
0.001
0.00101
0.001
0.001
0.001
0.001
0.001
0.00220046
0.00100927
1.02009
1.02169
0.941702
0.957775
0.838066
0.859079
0.797949
0.798156
0.796985
0.7985
0.770628
0.77236
0.743034
0.741488
0.718708
0.759565
0.838192
0.797834
0.837547
0.838147
0.657696
0.679432
0.720211
0.698553
0.710589
0.712921
0.660566
0.651805
0.636848
0.651188
0.660292
0.657029
1.50891
1.5056
1.33788
1.25107
1.23942
1.22724
1.50544
1.41664
1.66099
1.74075
1.63625
1.55722
1.75352
1.73282
1.79969
1.84916
1.87824
1.87822
1.90568
1.87986
1.93524
1.95909
1.95757
1.95538
1.97622
1.96151
1.96011
2.00615
1.94976
1.94576
1.07159
0.999995
1.14252
1.21401
0.998461
0.946849
0.999078
1.00069
0.827643
0.882072
0.721414
0.878449
0.771475
1.04573
0.990542
1.0379
1.03203
1.04319
0.936522
0.835938
0.762545
0.747146
0.765171
0.79972
0.726652
0.713015
0.638574
0.727678
0.80882
0.801752
0.720618
0.822223
0.889386
0.838609
0.941111
0.892498
0.934084
0.984427
1.02024
1.00158
1.03363
1.03151
1.04427
1.03472
1.06777
1.07808
1.07835
1.09133
1.0972
1.10068
1.13266
1.14264
1.13542
1.12854
1.1302
1.12453
1.14297
1.15633
1.2044
1.19725
1.16611
1.19719
1.19335
1.22411
1.25876
1.32095
1.35102
1.35234
1.36408
1.43017
1.51539
1.58566
1.60128
1.72684
1.60065
1.65094
1.80111
1.82554
1.82594
1.86197
1.91308
1.96021
1.97311
1.9742
2.00397
2.031
2.0579
2.05701
2.05933
2.05699
2.05787
2.03945
1.9747
2.03816
2.00879
1.96209
1.9612
1.99398
2.02484
2.03478
1.96257
2.02351
1.98299
0.805754
0.80368
0.868591
0.947556
0.837623
0.898991
1.04252
0.973291
1.00135
0.844714
0.738488
0.715516
0.70796
0.807936
0.80391
0.472764
0.563807
0.754277
0.651596
0.749639
0.760527
0.76608
0.758654
0.780421
0.785867
0.001
0.148038
0.233588
0.418168
0.433382
0.426979
0.001
0.001
0.001
0.00109527
0.001
0.001
0.001
0.001
0.001
0.00100196
0.001
0.00137849
0.001
0.00101
0.001
0.001
0.001
0.001
0.001
0.001
0.00105186
0.001
0.001
0.001
0.001
0.001
0.001
0.001
0.001
0.001
0.001
0.001
0.001
0.001
0.001
0.001
0.001
0.001
0.001
0.001
0.001
0.001
0.001
0.00101
0.001
0.00100962
0.001
0.001
0.001
0.001
0.001
0.001
0.001
0.001
1.56443
1.55556
1.55201
1.53893
1.46486
1.52244
1.34738
1.40384
1.29392
1.29855
1.24457
1.22923
1.16739
1.16852
1.08572
0.981828
0.956193
1.12554
1.17051
1.17234
1.16882
1.17045
0.00115608
0.001
0.00115609
0.001
0.001
0.001
0.001
0.001
0.00100548
0.001
0.001
0.001
0.001
0.001
0.001
0.00100999
0.001
0.001
0.001
0.001
0.0298138
0.174792
0.23836
0.199819
0.39877
0.580963
0.735444
0.76902
0.961953
0.798931
1.10536
1.23946
1.21417
1.31737
1.48464
1.39588
1.47318
1.46683
1.46187
1.48934
1.55359
1.5357
1.54535
1.52004
0.001
0.001
0.001
0.001
0.001
0.001
0.001
0.001
0.001
0.001
0.001
0.001
0.001
0.001
0.001
0.001
0.001
0.001
0.001
0.00100999
0.001
0.001
0.00204785
0.001
0.00101
0.001
0.001
0.001
0.001
0.001
0.001
0.895583
0.896462
0.860678
0.840858
0.797708
0.818252
0.784321
0.784683
0.938205
0.88179
0.858919
0.712694
0.722735
0.652903
0.655264
0.719829
0.718422
0.709216
0.751552
0.811365
0.76241
0.801419
0.783158
0.681426
0.659888
0.672991
0.693084
0.621132
0.619554
0.620697
0.632021
0.648242
0.633435
0.600038
0.609735
2.08182
2.09112
2.11823
2.09492
2.13795
2.12583
2.1483
2.1415
2.1967
2.18364
2.14551
2.19967
2.17096
2.21799
2.05012
2.00219
2.02328
2.07118
2.0534
2.02215
2.02614
2.07872
2.0831
2.05981
2.03912
2.09182
2.07392
2.08165
2.10893
1.96124
1.96107
1.96234
1.95962
1.97886
2.00147
1.55365
1.49717
1.39474
1.30039
1.21357
1.28803
1.48771
1.47115
1.70879
1.73546
1.6196
1.70271
1.74071
1.79021
1.83769
1.87861
1.87737
1.87709
1.87567
1.90381
1.91848
1.94296
1.93056
1.93313
1.93698
1.94785
1.92331
1.92434
1.12098
1.05051
0.99282
0.983186
1.03992
1.21291
1.19264
0.921571
0.980381
0.85262
0.782874
2.06736
2.08736
2.10393
2.11087
2.11554
2.12734
2.13136
2.15856
2.14358
2.16102
2.16016
2.20916
2.23047
2.25528
2.25315
2.2564
2.27298
2.29625
0.765056
0.709172
0.714536
0.968933
0.854607
1.02585
0.930965
0.840853
0.745272
0.750691
0.746131
0.752512
0.600747
0.676255
0.531378
0.551105
0.633648
0.550526
0.814879
0.746206
0.639849
0.836909
0.839957
0.836181
0.891515
0.853828
0.974026
0.925488
1.00807
0.975257
1.00959
1.03436
1.05801
1.08042
1.10335
1.10363
1.1134
1.10689
1.16494
1.15192
1.14549
1.142
1.1949
1.1696
1.23797
1.20027
1.18162
1.22204
1.26829
1.25928
1.28212
1.31935
1.32023
1.26456
1.37357
1.40158
1.37263
1.36211
1.4452
1.52777
1.60045
1.66809
1.6157
1.63039
1.75966
1.82058
1.86242
1.84501
1.90875
1.94025
1.98062
1.99789
1.99258
2.0101
2.06735
2.04968
2.06126
2.06916
2.06069
2.05637
2.06024
2.0566
2.05771
2.05738
2.05615
0.794701
0.77984
0.808361
0.728812
0.753113
0.77131
0.703286
0.844801
0.750212
0.691162
0.698403
0.677748
0.588845
0.68956
0.704246
0.484115
0.483489
0.429767
0.542588
0.761845
0.638044
0.656715
0.650367
0.442197
0.343274
0.139548
0.141666
0.0755821
0.00104048
0.001
0.436592
0.243399
0.417372
0.422597
0.001
0.001
0.001
0.001
0.001
0.001
0.00100984
0.001
0.00104057
0.001
0.001
0.001
0.00101
0.001
0.001
0.001
0.001
0.00238816
0.001
0.001
0.001
0.001
0.001
0.001
0.00100993
0.001
0.001
0.001
0.001
0.001
0.00101
0.001
0.001
0.001
0.001
0.00101007
0.001
0.001
0.001
0.001
0.001
0.001
0.001
0.001
0.00101
0.001
0.001
0.001
0.001
0.001
0.001
0.001
0.001
0.001
0.001
0.00213901
0.001
0.001
0.001
0.001
0.00213898
2.247
2.21497
2.19269
2.29148
2.32107
2.31751
1.53804
1.5386
1.49995
1.50545
1.43781
1.49778
1.33751
1.25964
1.18686
1.20009
1.17339
1.16765
1.17179
1.16772
1.04864
0.964528
1.05389
1.13614
1.13104
0.001
0.001
0.001
0.001
0.001
0.001
0.001
0.001
0.001
0.001
0.00100943
0.001
0.001
0.732602
0.767621
0.79423
0.00100998
0.001
0.001
0.001
0.026519
0.001
0.201659
0.228509
0.391801
0.258585
0.563468
0.939434
1.07053
1.17964
1.1947
1.52451
1.42984
1.44536
1.22954
1.3164
1.40466
1.45289
1.4639
1.45659
1.4697
1.50245
1.48764
0.001
0.00116932
0.001
0.001
0.001
0.001
0.00100904
0.001
0.001
0.001
0.001
0.001
0.001
0.001
0.001
0.001
0.001
0.00100504
0.001
0.001
0.001
0.001
0.001
0.001
0.001
0.001
0.001
0.001
0.001
0.001
0.00101
0.001
0.001
0.001
0.001
0.001
0.001
0.892625
0.930332
0.918408
0.861874
0.86109
0.834478
0.853803
0.723238
0.74931
0.660903
0.662071
0.866971
0.853746
0.61396
0.613692
0.617448
0.61843
0.669755
0.648635
0.687124
0.631893
0.757888
0.706745
0.756107
0.769147
0.601617
0.55718
0.57907
0.609384
0.588565
0.58631
0.52805
0.56486
0.546493
0.525449
0.505953
0.50508
2.08253
2.09578
2.11748
2.14303
2.1449
2.14605
2.17587
2.16872
2.01656
2.01312
1.99696
2.01884
2.05114
2.01238
2.05829
2.03232
1.9485
1.9344
1.93363
1.96725
1.99657
1.96846
1.55781
1.48129
1.37623
1.46371
1.31249
1.225
1.47791
1.47649
1.71807
1.72056
1.73641
1.63323
1.70937
1.82326
1.76929
1.71302
1.75447
1.85573
1.86788
1.86024
1.86475
1.87373
1.89578
1.92248
1.91269
1.92205
1.92158
1.92274
1.92061
1.92091
1.92247
0.96507
0.970571
1.10791
1.18978
0.967462
1.05007
1.20601
1.22138
0.960237
0.899984
0.810083
0.879654
2.09748
2.05854
2.07522
2.12188
2.11902
2.12122
2.13203
2.1538
2.17651
2.18705
2.18741
2.19158
2.21505
2.25365
2.23596
2.25355
2.27072
2.31831
2.29573
2.1273
2.13804
2.155
2.32317
2.32547
2.32534
0.711051
0.715926
0.708482
0.679747
0.77902
0.785354
0.596397
0.628675
0.663818
0.562002
0.593258
0.597378
0.52805
0.528362
0.530721
0.532412
0.557842
0.595833
0.693684
0.621905
0.619207
0.76365
0.839214
0.758714
0.913345
0.940719
0.875107
0.912236
0.97465
0.940866
1.06597
1.00837
1.0796
1.09265
1.10147
1.09334
1.14296
1.18086
1.21968
1.21832
1.22192
1.21048
1.23479
1.21789
1.26786
1.27004
1.29205
1.29498
1.27247
1.27389
1.39199
1.43974
1.3375
1.40244
1.44737
1.41064
1.50976
1.55632
1.65418
1.69277
1.67121
1.76052
1.81822
1.91438
1.90314
1.9612
1.93405
2.03041
2.03656
2.02936
2.05871
2.08805
2.0862
2.14194
2.10634
2.13404
2.09528
2.09821
2.13011
2.05933
2.09938
2.06076
0.156561
0.47127
0.175186
0.441999
0.720231
0.704705
0.704688
0.68407
0.704816
0.562274
0.446893
0.443601
0.350684
0.543815
0.416731
0.454648
0.570064
0.001
0.001
0.198166
0.338045
0.334577
0.13448
0.0124413
0.0153001
0.001
0.001
0.001
0.00104042
0.00104079
0.001
0.001
0.001
0.1323
0.001
0.001
0.0010004
0.001
0.001
0.001
0.001
0.001
0.00222691
0.001
0.001
0.001
0.001
0.001
0.00101
0.001
0.001
0.00221624
0.001
0.001
0.001
0.00100982
0.00134036
0.001
0.00100983
0.001
0.001
0.001
0.00101
0.001
0.0010099
0.00101009
0.001
0.001
0.00100986
0.00101
0.001
0.001
0.001
0.001
0.00165027
0.001
0.00165016
0.001
0.001
0.001
0.001
0.00100984
0.00101
0.00100994
0.001
0.001
0.001
0.001
0.001
0.001
0.001
0.001
0.001
0.001
0.00134031
0.001
0.00100958
0.00100997
0.001
0.001
0.001
0.001
0.00101
2.19701
2.23081
2.22107
2.2209
2.26183
2.36562
2.34022
2.33936
2.36575
2.3013
1.44307
1.42323
1.37559
1.37234
1.32921
1.35421
1.26081
1.22407
1.21057
1.16495
1.15127
1.13922
1.05581
1.06565
0.932322
0.978536
0.97408
0.001
0.001
0.001
0.00101
0.001
0.001
0.001
0.767008
0.907699
0.765755
0.001
0.001
0.001
0.001
0.631957
0.469157
0.00101
0.001
0.001
0.001
0.237597
0.0916612
0.26922
0.270888
0.302366
1.30046
1.30909
1.35499
1.04812
1.19325
1.18888
1.22611
1.34636
1.41617
1.37698
1.29405
1.37367
1.39653
1.40074
1.33108
1.35734
0.001
0.001
0.00116935
0.00101
0.001
0.001
0.00101
0.00117368
0.001
0.001
0.001
0.001
0.001
0.001
0.001
0.00103017
0.001
0.00103027
0.0010302
0.00101
0.001
0.001
0.001
0.001
0.001
0.00100577
0.001
0.001
0.001
0.001
0.00110397
0.001
0.00100563
0.001
0.001
0.001
0.001
0.001
0.001
0.001
0.001
0.001
0.001
0.001
0.00103022
0.910216
0.922528
0.934267
0.799105
0.821925
0.78393
0.781848
0.709379
0.701746
0.616261
0.62376
0.611211
0.613381
0.713727
0.711773
0.560688
0.56173
0.525925
0.50508
0.599647
0.593369
0.616388
0.6719
0.752893
0.715232
0.785714
0.734474
0.542089
0.511625
0.572536
0.596735
0.469183
0.469475
0.444337
0.462968
0.506057
0.483641
0.505805
0.513355
2.08659
2.03612
2.11656
2.08323
2.08497
2.14826
2.1201
2.1803
2.17525
2.21003
2.16039
2.1243
2.20332
2.14551
1.97971
1.98117
1.96934
1.98408
1.99557
2.00811
2.00595
2.01575
1.92379
1.92075
1.94721
1.92964
1.96006
1.96961
1.56018
1.4844
1.40229
1.47704
1.27405
1.36634
1.47924
1.48445
1.71137
1.71019
1.71222
1.64111
1.80053
1.84651
1.75825
1.71204
1.85296
1.85377
1.86688
1.85326
1.88946
1.91202
1.91937
1.92059
1.9204
1.9168
1.92101
1.92319
1.92078
1.91652
0.964544
0.957309
1.12473
1.2036
1.10541
1.02167
1.25983
1.20135
0.934229
0.959505
0.930689
0.84538
2.10139
2.13477
2.11593
2.14236
2.16029
2.14941
2.18506
2.19624
2.174
2.18744
2.17635
2.18598
2.19146
2.21526
2.23704
2.255
2.25386
2.30585
2.28296
2.3317
2.3387
2.20975
2.22176
2.341
2.34862
0.452622
0.604473
0.476883
0.578881
0.50728
0.474006
0.429473
0.407613
0.431847
0.467684
0.359633
0.412633
0.412992
0.311679
0.358688
0.512509
0.624687
0.533979
0.626722
0.629474
0.621881
0.689281
0.837238
0.74441
0.930171
0.93118
0.896081
0.845255
0.965349
1.00947
1.06629
1.05403
1.07699
1.06695
1.18543
1.1357
1.2372
1.22526
1.25404
1.25534
1.2343
1.29043
1.33059
1.30341
1.29108
1.31976
1.37031
1.35277
1.33629
1.38038
1.46282
1.46361
1.45716
1.47804
1.60725
1.52176
1.69087
1.71815
1.71652
1.78583
1.85985
1.93813
1.94465
1.95804
2.00341
2.05252
2.08869
2.08884
2.12724
2.10152
2.15422
2.16829
2.16901
2.16849
2.16885
2.16867
2.13246
2.16823
2.13554
0.001
0.001
0.00446572
0.001
0.114
0.416119
0.102594
0.582204
0.442226
0.449819
0.297402
0.312952
0.317972
0.316119
0.315413
0.313605
0.301272
0.303613
0.322516
0.0040603
0.001
0.001
0.001
0.001
0.001
0.0010024
0.00100768
0.001
0.001
0.00100217
0.001
0.001
0.001
0.001
0.00101
0.00218811
0.001
0.001
0.00100986
0.001
0.001
0.001
0.00188116
0.001
0.001
0.001
0.001
0.001
0.001
0.001
0.001
0.001
0.00100941
0.001
0.001
0.001
0.00100992
0.001
0.001
0.001
0.00101
0.001
0.001
0.001
0.001
0.001
0.001
0.0010008
0.001
0.001
0.001
0.00100949
0.001
0.001
0.001
0.001
0.001
0.001
0.001
0.001
0.001
0.001
0.00101
0.001
0.001
0.001
0.001
0.001
0.001
0.001
0.001
0.001
0.001
0.001
0.001
0.001
0.001
0.001
0.001
0.001
0.001
0.001
0.001
0.001
0.001
0.001
0.001
0.001
0.001
0.001
0.001
0.001
0.00106323
0.001
0.001
0.001
0.001
2.39811
2.37979
2.40287
2.39657
2.39036
2.39814
2.24227
2.24188
2.29551
2.26866
2.38235
2.38482
2.37979
2.25106
2.18007
1.30088
1.30569
1.29221
1.28102
1.30749
1.25341
1.27411
1.06317
1.12639
0.989873
0.984383
0.933028
0.936955
0.933479
0.001
0.001
0.001
0.001
0.742638
0.934388
0.762995
0.001
0.001
0.719727
0.612526
0.001
0.001
0.001
0.001
0.30632
0.457384
0.00101157
0.00101165
0.001
0.001
0.269751
0.129608
0.278915
1.31502
1.29759
1.31122
1.2934
1.29492
1.01515
1.13203
1.07347
1.19595
1.2667
1.28733
1.2091
1.29981
1.24166
1.24799
1.22319
0.001
0.00108267
0.001
0.001
0.001
0.001
0.001
0.0010145
0.001
0.001
0.0010124
0.001
0.001
0.001
0.00101965
0.001
0.001
0.001
0.001
0.001
0.001
0.001
0.001
0.001
0.001
0.00100955
0.001
0.001
0.001
0.001
0.001
0.001
0.001
0.001
0.001
0.001
0.00110387
0.001
0.00110368
0.001
0.001
0.001
0.001
0.001
0.00100037
0.001
0.001
0.001
0.001
0.001
0.00101
0.001
0.001
0.001
0.001
0.001
0.001
0.91233
0.83904
0.82769
0.757827
0.748267
0.66825
0.656827
0.645341
0.644735
0.63559
0.645655
0.573077
0.58689
0.509729
0.494924
0.645689
0.648952
0.439294
0.430803
0.433838
0.442953
0.714831
0.781639
0.697143
0.593237
0.576048
0.651048
0.581554
0.665546
0.510099
0.47951
0.537699
0.494217
0.440987
0.44245
0.435527
0.457635
0.456206
0.426818
0.420587
0.403297
2.05533
2.03992
2.05585
2.04331
2.07206
2.04893
2.07248
2.14808
2.1221
2.14284
2.22222
2.16889
2.11868
1.96986
1.96801
1.99609
1.9825
2.00852
2.0076
2.0315
2.01612
1.92125
1.9304
1.95312
1.93553
1.95077
1.95957
1.60017
1.5223
1.44409
1.48048
1.42887
1.33356
1.5176
1.4807
1.71664
1.71536
1.67535
1.72009
1.80815
1.85583
1.71877
1.76503
1.85783
1.85575
1.87809
1.85815
1.89835
1.9171
1.91616
1.91558
1.91604
1.91582
1.92025
1.91655
1.91592
1.91643
0.955196
1.01682
1.20373
1.17857
1.10052
1.18607
1.20306
1.2809
0.950727
0.945826
0.941019
0.858717
0.694798
0.738051
0.821485
2.16986
2.1705
2.19838
2.18933
2.21425
2.22652
2.2259
2.2253
2.26193
2.24119
2.25318
2.21997
2.25059
2.2607
2.28459
2.3039
2.31911
2.31388
2.36804
2.36764
2.39024
2.36955
2.28061
2.28727
2.40347
2.40143
0.226416
0.293471
0.171353
0.397722
0.324807
0.397723
0.405162
0.388757
0.321793
0.256295
0.186931
0.188354
0.220328
0.283183
0.44617
0.347642
0.325949
0.524772
0.68143
0.636151
0.497731
0.72918
0.774249
0.793663
0.77516
0.875764
0.948507
0.826509
1.05139
0.987048
1.05749
1.0632
1.1525
1.09106
1.21296
1.24605
1.24051
1.24609
1.3693
1.33605
1.30378
1.36131
1.38064
1.3749
1.37147
1.36439
1.37934
1.37683
1.45969
1.50195
1.53938
1.49498
1.53976
1.56511
1.70529
1.63787
1.73047
1.71865
1.79835
1.87507
1.96042
1.95657
1.99176
2.02869
2.10511
2.09421
2.11828
2.12279
2.15151
2.16192
2.17998
2.17269
2.18406
2.1788
2.16834
2.18215
2.16722
2.16905
0.001
0.001
0.00101
0.001
0.001
0.001
0.001
0.001
0.001
0.317824
0.340884
0.001
0.0445743
0.32737
0.323301
0.33428
0.326283
0.305689
0.323149
0.26363
0.157232
0.00100986
0.001
0.001
0.001
0.00100179
0.001
0.001
0.001
0.001
0.001
0.00101
0.001
0.001
0.00100863
0.00195029
0.001
0.001
0.001
0.00389745
0.001
0.001
0.001
0.00100938
0.001
0.001
0.001
0.00100983
0.001
0.001
0.00100647
0.001
0.00100976
0.001
0.001
0.001
0.001
0.001
0.00341475
0.001
0.001
0.001
0.001
0.001
0.00128759
0.00128751
0.00128753
0.001
0.001
0.001
0.001
0.001
0.001
0.001
0.001
0.001
0.001
0.001
0.001
0.001
0.001
0.001
0.001
0.001
0.001
0.001
0.001
0.001
0.001
0.001
0.001
0.001
0.001
0.001
0.001
0.001
0.001
0.001
0.001
0.001
0.001
0.001
0.001
0.001
0.001
0.001
0.00101
0.001
0.001543
0.001
0.00108262
0.001
0.00107053
0.001
0.001
0.001
2.41245
2.43589
2.44525
2.40116
2.40655
2.38728
2.40457
2.2811
2.31026
2.3257
2.3356
2.34268
2.38372
2.40525
2.25706
2.27247
2.19457
2.23167
2.22152
1.30425
1.31118
1.20152
1.16563
1.26065
1.1849
1.21101
1.07455
1.09238
0.963125
0.937161
0.936439
0.934555
0.913234
0.001
0.001
0.848211
0.966645
0.742263
0.001
0.001
0.694926
0.68974
0.001
0.001
0.42829
0.568239
0.001
0.001
0.001
0.001
0.29268
0.298049
0.001
0.00101911
0.001
0.0659392
0.218138
1.26331
1.30216
1.28561
1.26752
1.02772
1.02029
1.04422
1.11728
1.22569
1.22564
1.18526
1.23357
1.23849
0.00100999
0.001
0.001
0.001
0.001
0.001
0.00114403
0.00114124
0.001
0.001
0.00101
0.00100946
0.001
0.001
0.001
0.001
0.001
0.0219629
0.001
0.001
0.001
0.001
0.001
0.001
0.001
0.00110389
0.001
0.001
0.00101
0.001
0.001
0.001
0.001
0.001
0.001
0.001
0.001
0.001
0.001
0.001
0.001
0.001
0.001
0.001
0.001
0.001
0.00100681
0.001
0.001
0.0859829
0.0018644
0.0207324
0.0548371
0.001
0.001
0.001
0.001
0.001
0.001
0.001
0.001
0.001
0.001
0.829968
0.747585
0.744786
0.683695
0.684868
0.661242
0.676625
0.648709
0.687627
0.614561
0.611928
0.520243
0.544322
0.447135
0.449372
0.41888
0.420897
0.568356
0.541295
0.428743
0.418304
0.41817
0.40691
0.639333
0.682366
0.524424
0.496529
0.567029
0.68347
0.742887
0.698101
0.428805
0.386739
0.45194
0.474333
0.372238
0.355204
0.351256
0.316237
0.352252
0.326253
0.348255
0.366537
2.04704
2.03019
2.12141
2.0579
2.07343
2.08962
2.10724
2.08505
2.10807
2.16366
2.11667
2.19195
2.15838
2.22927
1.94982
1.9721
1.9675
1.99006
1.97069
1.99722
2.03677
1.99134
1.91704
1.92722
1.93323
1.94267
1.94138
1.94109
1.65503
1.57331
1.46249
1.48244
1.38351
1.47674
1.48607
1.54537
1.72254
1.72164
1.72221
1.6974
1.8137
1.86019
1.77985
1.73267
1.86034
1.8606
1.8673
1.88593
1.91663
1.90505
1.91628
1.91668
1.91669
1.91631
1.91661
1.91615
1.9168
1.9168
1.03708
0.943734
1.21096
1.21215
1.12446
1.21781
1.21463
1.31624
0.939865
0.93999
0.918955
0.902284
0.841301
0.940511
2.18207
2.19991
2.22008
2.25415
2.24987
2.27017
2.28352
2.29253
2.29846
2.28533
2.29498
2.3163
2.33673
2.34842
2.3483
2.35919
2.37873
2.40242
2.41095
2.41116
2.42342
2.297
2.28896
2.44196
2.46262
0.0396865
0.0834016
0.0659644
0.143986
0.272679
0.345995
0.249549
0.26676
0.180277
0.192027
0.18901
0.220745
0.318351
0.271518
0.341199
0.339637
0.337869
0.395981
0.471014
0.64357
0.566232
0.727031
0.810702
0.806293
0.719042
0.878747
0.88304
0.968047
1.03042
0.999034
1.07825
1.01938
1.21468
1.13448
1.24133
1.24787
1.25738
1.32287
1.44972
1.4563
1.39474
1.42668
1.4559
1.40194
1.51199
1.43986
1.41577
1.45198
1.58449
1.59603
1.65886
1.71387
1.59571
1.68816
1.83148
1.7818
1.85106
1.81911
2.01344
1.97763
2.04439
2.06028
2.13169
2.14217
2.20438
2.17092
2.2183
2.20153
2.22156
2.25513
2.2261
2.25799
2.26653
2.22288
2.21021
2.25591
2.25393
2.22247
0.001
0.001
0.00101
0.001
0.001
0.001
0.001
0.001
0.001
0.001
0.001
0.001
0.0366166
0.001
0.001
0.130033
0.001
0.327912
0.149932
0.229611
0.315747
0.151252
0.064921
0.001
0.00115057
0.001
0.001
0.001
0.001
0.001
0.00143939
0.00100993
0.001
0.001
0.001
0.001
0.001
0.00100156
0.001
0.001
0.001
0.001
0.001
0.001
0.001
0.001
0.00101241
0.00101244
0.00101253
0.001
0.001
0.001
0.001
0.00124553
0.001
0.001
0.00124546
0.001
0.001
0.001
0.00100996
0.00154294
0.001
0.00120561
0.001
0.001
0.001
0.001
0.00101
0.001
0.001
0.001
0.001
0.001
0.001
0.001
0.001
0.001
0.001
0.001
0.001
0.001
0.001
0.001
0.001
0.001
0.001
0.001
0.001
0.001
0.001
0.001
0.001
0.001
0.001
0.001
0.001
0.001
0.001
0.001
0.001
0.001
0.001
0.001
0.001
0.001
0.001
0.001
0.001
0.001
0.001
0.001
0.001
0.001
0.001
0.001
0.001
0.00108262
0.001
0.001
0.001
0.00120562
0.001
0.001
2.46677
2.45215
2.46816
2.43726
2.43209
2.45731
2.44355
2.4179
2.43876
2.31491
2.33251
2.30029
2.30501
2.40365
2.45071
2.45497
2.34976
2.22087
2.26626
2.24178
2.23506
2.2273
2.26706
2.15755
1.06174
1.16588
1.05634
1.09561
1.10073
1.02036
1.02451
1.02515
1.02003
1.0112
0.98713
0.910408
0.884694
0.80243
0.802891
0.911364
1.02538
0.001
0.001
0.69114
0.689282
0.001
0.00100999
0.624171
0.495071
0.00100155
0.001
0.363193
0.302759
0.001
0.001
0.001
0.301111
0.225467
0.001
0.013988
0.122805
1.16828
1.09497
1.07287
1.15448
1.02122
1.04842
1.18429
1.112
1.15867
1.2393
1.22677
0.0010972
0.001
0.001
0.00114901
0.001
0.001
0.00114328
0.001
0.001
0.001
0.00100995
0.001
0.001
0.001
0.001
0.001
0.0221534
0.0245985
0.0247254
0.00746513
0.0245335
0.0222748
0.0229149
0.0237012
0.001
0.001
0.001
0.00364608
0.001
0.00100998
0.00375718
0.001
0.001
0.001
0.001
0.001
0.001
0.001
0.001
0.001
0.001
0.001
0.001
0.00101
0.001
0.140404
0.158822
0.108501
0.170729
0.177598
0.248315
0.136056
0.001
0.297081
0.32569
0.0838831
0.0236176
0.001
0.001
0.001
0.001
0.001
0.001
0.001
0.001
0.001
0.001
0.001
0.001
0.001
0.001
0.001
0.001
0.688489
0.686071
0.718003
0.685847
0.685773
0.684457
0.6802
0.501348
0.506163
0.585363
0.604854
0.466212
0.467943
0.427007
0.42532
0.425516
0.426139
0.393635
0.392832
0.431687
0.425359
0.337966
0.323788
0.284078
0.297431
0.610912
0.538141
0.476585
0.689747
0.594427
0.721108
0.819201
0.743094
0.427258
0.386561
0.48808
0.465831
0.257952
0.264008
0.26894
0.300607
0.323508
0.348157
0.381509
0.361926
2.01165
1.99775
2.0028
2.06294
2.03667
2.05826
2.0399
2.0728
2.08782
2.12528
2.12549
2.12477
2.16079
2.12833
2.22738
1.9412
1.94472
1.95018
1.95392
1.95509
1.95392
1.96131
1.98227
1.97082
1.92132
1.9295
1.93839
1.94187
1.94205
1.62099