/*--------------------------------*- C++ -*----------------------------------*\
  =========                 |
  \\      /  F ield         | OpenFOAM: The Open Source CFD Toolbox
   \\    /   O peration     | Website:  https://openfoam.org
    \\  /    A nd           | Version:  8
     \\/     M anipulation  |
\*---------------------------------------------------------------------------*/
FoamFile
{
    version     2.0;
    format      ascii;
    class       volVectorField;
    location    "17460";
    object      HU;
}
// * * * * * * * * * * * * * * * * * * * * * * * * * * * * * * * * * * * * * //

dimensions      [0 2 -1 0 0 0 0];

internalField   nonuniform List<vector> 
526318
(
(-0.0217122 0.0382793 0)
(0.048114 -0.0266437 0)
(0.0370571 0.0574879 0)
(0.0352359 0.00128524 0)
(-0.0630053 0.0552331 0)
(-0.0158771 0.0392616 0)
(0.00537634 0.119675 0)
(-0.0162872 0.076443 0)
(0.000773313 0.0554374 0)
(-0.0136379 0.0201162 0)
(-0.0331667 -0.0262922 0)
(-0.0448353 0.0730984 0)
(-0.0384972 0.0316934 0)
(-0.0140165 0.00221049 0)
(-0.0321977 0.0399047 0)
(-0.0150441 -0.00486652 0)
(0.0195642 0.0213673 0)
(0.0123828 0.0694673 0)
(-0.00790504 0.0629853 0)
(0.0140904 -0.00472675 0)
(0.0354759 0.0195399 0)
(-0.0759205 -0.0856191 0)
(-0.00736443 0.064626 0)
(-0.0286929 0.00892474 0)
(0.0046278 -0.0105013 0)
(-0.0468378 0.0270158 0)
(-0.0139395 -0.000845796 0)
(0.0772174 0.0509899 0)
(0.00628462 0.00396677 0)
(-0.0147808 -0.00100881 0)
(0.00214258 0.0491919 0)
(0.0295722 0.0422274 0)
(-0.0208851 0.107325 0)
(-0.0669041 0.019416 0)
(0.0381479 0.040182 0)
(-0.0256166 0.0960448 0)
(-0.0222715 0.0142219 0)
(0.0181508 0.0323618 0)
(0.0330011 0.057558 0)
(-0.0403363 0.178186 0)
(-0.0386522 0.0671676 0)
(-0.00562523 0.0733344 0)
(-0.00875168 0.0324221 0)
(-0.000639486 0.0226302 0)
(-0.017106 0.0116771 0)
(0.0107738 0.0222232 0)
(-0.022999 0.0489772 0)
(0.0481572 0.0579993 0)
(-0.036632 -0.00656157 0)
(-0.0722175 -0.00621113 0)
(0.00643258 0.0614468 0)
(0.00655776 0.0256834 0)
(0.0697454 0.00435762 0)
(-0.049045 0.000850745 0)
(0.00676252 0.0452013 0)
(0.0138152 0.00635481 0)
(0.01656 0.0487818 0)
(0.00796566 -0.00952179 0)
(0.0370007 0.0484701 0)
(0.0208377 0.0625291 0)
(-0.0390784 0.0539207 0)
(-0.0150716 0.0797523 0)
(0.00161398 0.0950109 0)
(-0.000335552 0.0534984 0)
(0.00223965 0.0504681 0)
(-0.00416873 0.0683475 0)
(-0.00847761 0.0635655 0)
(-0.0159937 0.0482449 0)
(-0.0178605 0.054237 0)
(0.00301987 0.0526631 0)
(-0.0259166 0.0429033 0)
(-0.0165805 0.0747946 0)
(-0.0215256 0.0499726 0)
(-0.00320336 0.0231343 0)
(0.00607332 0.0436205 0)
(-0.0296328 0.0379246 0)
(-0.0100594 0.0542812 0)
(-0.0235285 0.0440423 0)
(-0.0222488 0.0267688 0)
(-0.0127159 0.0615762 0)
(-0.020809 0.0302566 0)
(0.00217761 0.0420227 0)
(0.0128476 0.0393699 0)
(-0.00887926 0.0442169 0)
(-0.0134041 0.0521009 0)
(-0.00814871 0.0673335 0)
(-0.0186324 0.0547705 0)
(-0.0195728 0.0431745 0)
(-0.0294272 0.059195 0)
(0.0102032 0.0298803 0)
(-0.0207461 0.0475751 0)
(0.0083645 0.0492242 0)
(-0.0101445 0.047426 0)
(-0.0260748 0.020174 0)
(-0.00779716 0.0746196 0)
(0.00446547 0.0399461 0)
(-0.0225988 0.053695 0)
(-0.00856135 0.0433252 0)
(-0.0116268 0.0369644 0)
(-0.0128188 0.0504951 0)
(-0.0221361 0.0534905 0)
(0.0167801 -0.0369185 0)
(0.0529542 -0.0486711 0)
(0.032776 -0.0200261 0)
(-0.00466668 0.0481772 0)
(-0.00357759 0.0550016 0)
(-0.00247591 0.043145 0)
(0.032734 -0.0237146 0)
(-0.012445 0.0207108 0)
(0.0191037 -0.0100366 0)
(0.0122087 -0.0109372 0)
(0.00888398 0.0473567 0)
(-0.0411258 0.0512407 0)
(0.00374582 -0.0305472 0)
(0.0192182 0.00757301 0)
(0.02332 0.0276678 0)
(0.00429834 0.053746 0)
(-0.0358779 0.0250954 0)
(-0.00505622 0.0272774 0)
(-0.015359 0.05697 0)
(-0.00696428 0.0483041 0)
(-0.00711966 0.0537055 0)
(-0.0128829 0.0514442 0)
(-0.0161884 0.0406052 0)
(-0.00315574 0.0452783 0)
(0.00152692 0.0458005 0)
(-0.00710101 0.0408569 0)
(-0.0149027 0.0485362 0)
(-0.00575932 0.0485987 0)
(-0.00354333 0.0448054 0)
(-0.00850461 0.054397 0)
(-0.0119377 0.0460364 0)
(-0.00804605 0.0422863 0)
(-0.0166719 0.0454638 0)
(-0.00457855 0.0417961 0)
(-0.0170261 0.0441992 0)
(-0.0148617 0.0471129 0)
(-0.00904164 0.0393945 0)
(-0.00639744 0.0404437 0)
(-0.0157305 0.0426578 0)
(-0.0105643 0.0400729 0)
(-0.010608 0.0399855 0)
(-0.0179792 0.046619 0)
(-0.018349 0.0431108 0)
(-0.014289 0.0393486 0)
(-0.0150786 0.038234 0)
(-0.0150059 0.0377874 0)
(-0.0149263 0.0290966 0)
(-0.0172627 0.0346058 0)
(-0.0175648 0.0332806 0)
(-0.0181225 0.0346139 0)
(-0.0203214 0.0315515 0)
(-0.0165716 0.0244069 0)
(-0.0219818 0.0314369 0)
(-0.0182528 0.0250742 0)
(-0.0191102 0.0229729 0)
(-0.0189425 0.0224118 0)
(-0.0241538 0.0326947 0)
(-0.0247073 0.0325617 0)
(-0.0277261 0.0260533 0)
(-0.0310316 0.0276038 0)
(-0.022934 0.0213108 0)
(-0.0212127 0.0240871 0)
(0.0396096 0.0546337 0)
(0.00355095 0.00965594 0)
(0.000227915 0.0662585 0)
(-0.0400241 0.0394674 0)
(-0.0160919 0.0536518 0)
(0.0116318 0.0406888 0)
(0.0134425 0.0445147 0)
(0.00633072 0.0445811 0)
(-0.00371782 0.0492619 0)
(-0.0216466 0.0441458 0)
(-2.50245e-05 0.051279 0)
(-0.0178056 0.0391524 0)
(-0.00463637 0.0444632 0)
(0.00251781 0.0395918 0)
(0.000426743 0.0436331 0)
(-0.0100936 0.0500316 0)
(-0.0140982 0.0470274 0)
(0.00179639 0.0425031 0)
(-0.0183828 0.0416951 0)
(0.000788481 0.0523642 0)
(-0.00195497 0.0403177 0)
(-0.0043132 0.0469189 0)
(-0.00566835 0.0550542 0)
(-0.00391897 0.0459652 0)
(-0.00192227 0.0394986 0)
(-0.00525507 0.043629 0)
(-0.00454164 0.0389841 0)
(-0.00792625 0.0469039 0)
(-0.00685484 0.0390301 0)
(-0.0136869 0.0453477 0)
(-0.017399 0.0441751 0)
(-0.0107731 0.0383241 0)
(-0.0140101 0.0338064 0)
(-0.0191223 0.036867 0)
(-0.0198817 0.0277427 0)
(-0.0163042 0.0287824 0)
(-0.0217196 0.0298486 0)
(-0.0206969 0.0221162 0)
(-0.0239781 0.024758 0)
(-0.0238234 0.0241021 0)
(-0.0289384 0.0311618 0)
(-0.0254652 0.0218913 0)
(-0.0279546 0.0324197 0)
(-0.0298064 0.0295339 0)
(-0.0288664 0.0255158 0)
(-0.0269252 0.0257779 0)
(-0.0301783 0.0363239 0)
(0.0673842 0.026693 0)
(-0.10524 0.0490096 0)
(0.026325 0.041133 0)
(0.029602 0.0513252 0)
(-0.0799505 0.0179558 0)
(0.025869 0.00906558 0)
(-0.0336989 0.052871 0)
(0.0107262 -0.0277671 0)
(-0.0490698 -0.0364445 0)
(0.00583389 0.0310598 0)
(-0.0245098 -0.0142519 0)
(-0.0424363 -0.00981887 0)
(-0.0279547 0.0325351 0)
(0.0641706 0.00458888 0)
(-0.016091 0.00651477 0)
(-0.0531487 -0.0511135 0)
(-0.0373091 -0.0360987 0)
(-0.0634983 0.00335778 0)
(0.0237861 0.0134215 0)
(0.00423479 0.0538486 0)
(-0.00188036 -0.00397752 0)
(0.00540584 -0.04886 0)
(0.018932 0.0719121 0)
(0.0309266 -0.0084835 0)
(0.0122885 -0.0175597 0)
(0.0542873 -0.0484426 0)
(0.00621768 0.0562588 0)
(-0.0075318 0.0475175 0)
(0.00389218 -0.00385628 0)
(0.0208619 0.0425288 0)
(-0.0373806 0.0538333 0)
(0.00546584 0.0588769 0)
(-0.00953252 0.0484887 0)
(0.00576205 0.0885592 0)
(-0.0259177 0.0175416 0)
(0.0336367 0.0490671 0)
(0.0140286 0.0590724 0)
(0.000757806 0.0628397 0)
(-0.0108041 0.0609736 0)
(-0.00885365 0.0453221 0)
(-0.00524337 0.0452497 0)
(-0.0197511 0.0468 0)
(-0.0390874 0.0570311 0)
(-0.0210611 0.0352951 0)
(-0.00467791 0.052831 0)
(-0.0189082 0.0635641 0)
(-0.00860305 0.0562985 0)
(-0.0210394 0.0570704 0)
(-0.0110222 0.0431866 0)
(-0.0220822 0.0362451 0)
(-0.01178 0.0461829 0)
(0 0 0)
(0 0 0)
(0.000953397 -0.0314102 0)
(0.0119358 0.00788303 0)
(-0.00703619 0.00625856 0)
(0.054768 -0.0298332 0)
(0.03551 -0.02064 0)
(0.00226536 0.0111566 0)
(1.40031e-05 0.0229246 0)
(0.0276726 -0.00687003 0)
(-0.0109005 0.0230495 0)
(0.0307169 -0.00909669 0)
(0.0214911 0.00818632 0)
(0.00939748 0.0459759 0)
(0.0404414 -0.0154814 0)
(-0.000854623 0.0555863 0)
(-0.0155151 0.00396011 0)
(0.022651 0.0551415 0)
(0.0635923 0.0643391 0)
(0.0309048 0.066277 0)
(-0.0166546 0.0477856 0)
(-0.00460308 0.0463842 0)
(-0.00751717 0.0443607 0)
(-0.0179309 0.0436214 0)
(-0.0159116 0.0445934 0)
(-0.0111442 0.0445709 0)
(-0.0150213 0.0415607 0)
(-0.0119848 0.0378697 0)
(-0.0116426 0.0359138 0)
(-0.0141927 0.0394758 0)
(-0.0133078 0.0377776 0)
(-0.0131024 0.0380237 0)
(-0.0288329 0.024228 0)
(-0.027724 0.0236182 0)
(-0.0394587 0.0224209 0)
(-0.0390492 0.0327203 0)
(-0.0413464 0.0218225 0)
(-0.0441906 0.0312868 0)
(-0.0440717 0.0208355 0)
(-0.0399656 0.0303501 0)
(-0.0331086 0.0260592 0)
(-0.0301161 0.028279 0)
(-0.0329313 0.0334286 0)
(-0.0349463 0.025941 0)
(-0.0344699 0.0312166 0)
(-0.016564 0.035719 0)
(-0.0125762 0.0325148 0)
(-0.0137345 0.0263978 0)
(-0.0183742 0.0317063 0)
(-0.0168831 0.0233214 0)
(-0.0216483 0.0302193 0)
(-0.0203599 0.0186038 0)
(-0.022454 0.0271771 0)
(-0.0268049 0.0185089 0)
(-0.0243 0.0211634 0)
(-0.0430294 0.0175091 0)
(-0.0457244 0.0243669 0)
(-0.0421031 0.0337535 0)
(-0.0436643 0.0318141 0)
(-0.00134119 0.0450034 0)
(0.0164165 0.0489941 0)
(-0.0283524 0.0572156 0)
(0.00279973 0.047924 0)
(-0.0129815 0.0354393 0)
(-0.0148806 0.0422365 0)
(-0.00634896 0.0512779 0)
(-0.0396773 0.0223119 0)
(-0.000124597 0.0331814 0)
(-0.0114936 0.031192 0)
(0.00372109 0.0432675 0)
(-0.00990047 0.0364939 0)
(-0.00342642 0.0399897 0)
(0.000773853 0.0416344 0)
(-0.00193966 0.0388811 0)
(-0.00585973 0.0448267 0)
(0.000623148 0.045474 0)
(-0.0106192 0.0517837 0)
(-0.00838849 0.0490598 0)
(-0.0019103 0.0419224 0)
(-0.00733367 0.0511677 0)
(-0.00155506 0.0447925 0)
(-0.0024571 0.0359105 0)
(-0.00561919 0.0407985 0)
(-0.00460723 0.0365101 0)
(-0.00801592 0.0429544 0)
(-0.0113734 0.0389652 0)
(-0.00682569 0.0359327 0)
(-0.00974745 0.0375564 0)
(-0.0147457 0.0418666 0)
(-0.0114187 0.0360855 0)
(-0.0169896 0.0379143 0)
(-0.0123905 0.0306208 0)
(-0.0174775 0.0300764 0)
(-0.0183065 0.0223834 0)
(-0.0153977 0.0287096 0)
(-0.0227636 0.0216976 0)
(-0.0221021 0.0306553 0)
(-0.028999 0.0239893 0)
(-0.0295388 0.0364138 0)
(-0.0270327 0.036053 0)
(-0.0282621 0.0238302 0)
(-0.035377 0.0365188 0)
(-0.0312065 0.025706 0)
(-0.0323431 0.0246414 0)
(-0.033864 0.0364869 0)
(-0.0373158 0.0249171 0)
(-0.041365 0.0340016 0)
(-0.0487137 0.0329327 0)
(-0.0514605 0.0280833 0)
(-0.0469284 0.0227972 0)
(-0.0418436 0.0198312 0)
(-0.0466888 0.0332769 0)
(-0.0507407 0.0350133 0)
(-0.0583918 0.0319959 0)
(-0.0565709 0.0372464 0)
(-0.0564142 0.0324042 0)
(0.0210219 0.0448771 0)
(0.0233252 0.0483711 0)
(-0.0280001 0.0528384 0)
(-0.130757 -0.0406238 0)
(0.0985104 0.0597085 0)
(0.0705801 5.07988e-05 0)
(-0.0702652 -0.0478421 0)
(0.00993011 0.0692186 0)
(0.0478774 0.0777797 0)
(-0.0339824 0.00422938 0)
(0.0339749 -0.0126521 0)
(0.00989562 0.0100317 0)
(0.00767802 0.0363541 0)
(-0.0192381 -0.000135031 0)
(-9.76851e-05 -0.00957901 0)
(0.017394 -0.00961687 0)
(-0.0268325 -0.0144255 0)
(-0.00881033 -0.0198919 0)
(0.00938138 -0.0266871 0)
(-0.0113616 0.00747682 0)
(-0.0157243 -0.0379216 0)
(-0.0112575 -0.0281951 0)
(0.0058525 -0.0264157 0)
(0.0120164 0.0741091 0)
(-0.00868774 0.030439 0)
(-0.0432147 -0.0256518 0)
(0.00548157 0.0309186 0)
(-0.0237985 -0.00921393 0)
(0 0 0)
(0 0 0)
(0 0 0)
(0 0 0)
(0 0 0)
(0 0 0)
(-0.00954595 -0.0326007 0)
(0.0215794 0.0513603 0)
(-0.000337675 0.0194184 0)
(-0.0336296 0.00266931 0)
(-0.00494216 0.0528745 0)
(0.0100498 0.060411 0)
(-0.0148163 0.0470412 0)
(0.0413523 0.035534 0)
(-0.00257873 0.0731128 0)
(0.00401159 0.0188001 0)
(0.0186114 0.0632968 0)
(-0.0457653 0.0511369 0)
(-0.0167468 0.0436106 0)
(-0.00837861 0.060295 0)
(0.0031793 0.0677836 0)
(-0.0274437 0.0507119 0)
(-0.0200351 0.0639237 0)
(-0.00157362 0.0433751 0)
(-0.0164197 0.0506856 0)
(-0.0339733 0.0488373 0)
(-0.0235157 0.0416841 0)
(-0.0143364 0.052034 0)
(-0.00884467 0.0466774 0)
(-0.022554 0.0534753 0)
(-0.007941 0.038567 0)
(-0.0189465 0.0389082 0)
(0 0 0)
(-1.43802e-08 -2.56047e-08 0)
(2.67356e-09 -1.1845e-10 0)
(0 0 0)
(0 0 0)
(0 0 0)
(0 0 0)
(6.02395e-09 -4.26416e-11 0)
(-3.12038e-08 -1.29004e-09 0)
(2.34168e-08 -1.5264e-08 0)
(0 0 0)
(0 0 0)
(0 0 0)
(0 0 0)
(0 0 0)
(0 0 0)
(0 0 0)
(0 0 0)
(0 0 0)
(-0.0102071 -0.00956173 0)
(0.00686298 -0.0270185 0)
(0.00242899 0.0195908 0)
(0.0272378 0.000267025 0)
(0.014432 -0.00688086 0)
(0.00368932 0.00506364 0)
(0.0262907 -0.00317753 0)
(0.0300654 -0.00510398 0)
(-0.0112843 0.0196813 0)
(0.0371735 0.0133623 0)
(-0.0234028 0.0276179 0)
(0.0207768 0.0185066 0)
(0.065157 0.00697799 0)
(0.0292414 0.038739 0)
(0.0412516 0.0759949 0)
(0.023011 0.0298286 0)
(0.0113077 0.0367625 0)
(-0.0016107 0.0937016 0)
(0.0179293 0.0474158 0)
(-0.00926635 0.042625 0)
(-0.0143377 0.039397 0)
(-0.0142518 0.0415954 0)
(-0.0114755 0.0429782 0)
(-0.0137326 0.0390092 0)
(-0.0124254 0.0404903 0)
(-0.0111091 0.0362593 0)
(-0.0131155 0.0312579 0)
(-0.0107821 0.034612 0)
(-0.0131677 0.031295 0)
(-0.0159792 0.0331194 0)
(-0.0102433 0.0324429 0)
(-0.0274305 0.0199101 0)
(-0.033245 0.0246076 0)
(-0.036133 0.0271403 0)
(-0.040895 0.0244674 0)
(-0.0310553 0.0271851 0)
(-0.045982 0.03129 0)
(-0.0458323 0.0129692 0)
(-0.0445794 0.0216517 0)
(-0.0239488 0.0156872 0)
(-0.0247214 0.0124707 0)
(-0.0300963 0.017017 0)
(-0.0167762 0.0296988 0)
(-0.0109053 0.0272085 0)
(-0.0178381 0.0278866 0)
(-0.0148401 0.0230828 0)
(-0.0200292 0.0239129 0)
(-0.0217207 0.0192735 0)
(-0.0167761 0.0171262 0)
(-0.0198974 0.0166336 0)
(-0.0645403 0.0362746 0)
(-0.0596302 0.0382083 0)
(-0.0621201 0.0378469 0)
(-0.0645123 0.0317177 0)
(-0.0688303 0.0368129 0)
(-0.0747269 0.0344075 0)
(-0.068928 0.0311124 0)
(-0.0707531 0.0298442 0)
(-0.0487641 0.0338922 0)
(-0.0520998 0.0314878 0)
(-0.0543194 0.0362608 0)
(-0.0581205 0.0324898 0)
(-0.0469086 0.0254096 0)
(-0.0437899 0.0313763 0)
(0.0394637 0.0173041 0)
(-0.0491194 -0.00597464 0)
(0.00604423 0.0411704 0)
(-0.0431332 0.0265189 0)
(0.00381296 0.0466951 0)
(-0.00400151 0.0577337 0)
(-0.0237042 0.0124568 0)
(0.0125954 0.0386001 0)
(-0.000559694 0.0256174 0)
(-0.00656604 0.0369841 0)
(-0.00701834 0.0306718 0)
(0.00136522 0.0469183 0)
(0.00606039 0.0376887 0)
(-0.00717795 0.0340441 0)
(0.0015734 0.0375318 0)
(-0.00643089 0.036131 0)
(-0.0018174 0.0405799 0)
(-0.00354346 0.0436294 0)
(-0.00636654 0.0459722 0)
(-0.00417871 0.043799 0)
(0.00126514 0.0402869 0)
(0.00400422 0.0419868 0)
(-0.00573892 0.0415019 0)
(0.00147636 0.0358135 0)
(-0.00104412 0.035662 0)
(-0.00945459 0.0390132 0)
(-0.00378031 0.0325264 0)
(-0.0109539 0.0339264 0)
(-0.0083303 0.0353172 0)
(-0.0145011 0.0385205 0)
(-0.0119748 0.0365675 0)
(-0.0167329 0.0373189 0)
(-0.0140071 0.0337839 0)
(-0.0161779 0.0334755 0)
(-0.0159074 0.0266357 0)
(-0.0135902 0.0300799 0)
(-0.0160465 0.0324585 0)
(-0.0174591 0.022233 0)
(-0.0213336 0.0362659 0)
(-0.0210548 0.024189 0)
(-0.032847 0.025262 0)
(-0.0319538 0.0368195 0)
(-0.0261458 0.0271229 0)
(-0.0268218 0.0380972 0)
(-0.0363585 0.0240126 0)
(-0.0393407 0.0342728 0)
(-0.0376096 0.0333464 0)
(-0.0350824 0.0245511 0)
(-0.0448054 0.0319016 0)
(-0.0412849 0.0209854 0)
(-0.0491377 0.0271777 0)
(-0.0510936 0.037929 0)
(-0.0453061 0.0219212 0)
(-0.0491452 0.0349263 0)
(-0.0612024 0.0342039 0)
(-0.0587527 0.040635 0)
(-0.0691296 0.0365759 0)
(-0.0677194 0.0345806 0)
(-0.0787093 0.037719 0)
(-0.0758359 0.0385056 0)
(-0.0746625 0.0390427 0)
(-0.0117538 -0.020909 0)
(-0.00515686 -0.0564686 0)
(-0.035517 -0.0332959 0)
(0.0750826 -0.0253773 0)
(-0.0762954 -0.0257741 0)
(0.0457065 0.0290202 0)
(-0.0734086 -0.000875412 0)
(0.0147144 0.00281751 0)
(0.000480441 0.0214686 0)
(0.00257971 -0.0116891 0)
(-0.0252453 -0.00287497 0)
(0.0113432 -0.0152818 0)
(0.023419 0.0163191 0)
(0.00360009 -0.0121521 0)
(0.028781 -0.00554304 0)
(-0.0137498 0.00530223 0)
(-0.00878057 -0.0151371 0)
(-0.0228109 -0.0123472 0)
(0.00368321 0.00898145 0)
(-0.00166979 -0.00431811 0)
(0.00273965 -0.00368904 0)
(-0.0281075 -0.0106228 0)
(-0.0184486 0.0115017 0)
(-0.0209566 0.027569 0)
(-0.0128532 -0.0262039 0)
(0.000823133 -0.0346308 0)
(0.00731571 -0.00166624 0)
(0 0 0)
(0 0 0)
(0 0 0)
(0 0 0)
(0 0 0)
(0 0 0)
(0.0303671 0.0013895 0)
(0.00131424 -0.00301484 0)
(-0.00790425 -0.00266908 0)
(-0.0238648 -0.00320752 0)
(0 0 0)
(0 0 0)
(0 0 0)
(0 0 0)
(0 0 0)
(0 0 0)
(0 0 0)
(0 0 0)
(0 0 0)
(0 0 0)
(-6.64867e-08 -4.24206e-08 0)
(0 0 0)
(0 0 0)
(1.7882e-08 4.58122e-09 0)
(-6.77523e-09 -3.10169e-08 0)
(7.587e-08 -2.01993e-08 0)
(0 0 0)
(0 0 0)
(0 0 0)
(0 0 0)
(0 0 0)
(0 0 0)
(0 0 0)
(0 0 0)
(0 0 0)
(0 0 0)
(0 0 0)
(0 0 0)
(0 0 0)
(0 0 0)
(0.0277705 0.0745601 0)
(-0.0218373 0.0569653 0)
(-0.014204 0.0513902 0)
(-0.00144293 0.0519702 0)
(-0.0253303 0.0487031 0)
(-0.0406697 0.0727351 0)
(-0.0203104 0.0322695 0)
(-0.0312009 0.0736711 0)
(-0.0461855 0.0527315 0)
(-0.00978774 0.0344493 0)
(-0.0262834 0.0583732 0)
(-0.0272963 0.0250484 0)
(-0.0284463 0.0565398 0)
(-0.0133847 0.0551445 0)
(-0.0265914 0.0511725 0)
(-0.00993562 0.0499316 0)
(-0.0184767 0.0363649 0)
(-0.0296226 0.0413311 0)
(-0.0171942 0.0379024 0)
(-0.010386 0.0416551 0)
(-0.0145056 0.0353558 0)
(-0.00874497 0.0352912 0)
(0 0 0)
(0 0 0)
(0 0 0)
(0 0 0)
(0 0 0)
(0 0 0)
(0 0 0)
(0 0 0)
(0 0 0)
(0 0 0)
(0 0 0)
(0 0 0)
(0 0 0)
(0 0 0)
(0 0 0)
(0 0 0)
(0 0 0)
(0 0 0)
(0 0 0)
(0 0 0)
(0 0 0)
(0 0 0)
(0 0 0)
(0 0 0)
(0 0 0)
(0 0 0)
(-0.000564321 -0.00165167 0)
(0.00231541 -0.00188737 0)
(0.00168166 -0.0031405 0)
(-0.00216612 -0.00282037 0)
(0.0140783 -0.00860093 0)
(0.0044676 0.0114245 0)
(0.0195081 0.0105466 0)
(0.0141425 0.00332205 0)
(0.0173712 0.00556106 0)
(0.0279299 0.00552462 0)
(0.0122559 0.0313553 0)
(0.0367846 0.00436304 0)
(0.0254747 -0.00245001 0)
(0.0207888 0.0322272 0)
(0.0118151 0.0372755 0)
(0.0100709 0.018785 0)
(0.0450482 0.0422675 0)
(0.00901443 0.0288778 0)
(-0.0379635 0.0481611 0)
(0.00110314 0.0607481 0)
(-0.0251392 0.0334888 0)
(-0.00897216 0.0719528 0)
(2.83302e-08 -2.43641e-09 0)
(0 0 0)
(0 0 0)
(0 0 0)
(0 0 0)
(0 0 0)
(0 0 0)
(0 0 0)
(0 0 0)
(0 0 0)
(0 0 0)
(0 0 0)
(0 0 0)
(0 0 0)
(0 0 0)
(0 0 0)
(0 0 0)
(-0.0122997 0.0388163 0)
(-0.0138411 0.0342903 0)
(-0.0141883 0.0393975 0)
(-0.0138815 0.0370845 0)
(-0.0103266 0.0342428 0)
(-0.0158929 0.0321202 0)
(-0.00903965 0.0303046 0)
(-0.0140819 0.0249237 0)
(-0.00919333 0.0295166 0)
(-0.0160404 0.0260753 0)
(-0.0161713 0.0263587 0)
(-0.00978158 0.0261955 0)
(-0.0358194 0.022641 0)
(-0.0300453 0.0179643 0)
(-0.0302581 0.0208416 0)
(-0.0228162 0.0255875 0)
(-0.0431847 0.0211457 0)
(-0.0392393 0.0160105 0)
(-0.0406735 0.0200459 0)
(-0.0410976 0.0244807 0)
(-0.0276263 0.0118143 0)
(-0.0229121 0.0165813 0)
(-0.0256686 0.0157055 0)
(-0.0289738 0.0176398 0)
(-0.014976 0.023452 0)
(-0.0162709 0.0251742 0)
(-0.0182682 0.0238153 0)
(-0.0198106 0.0208639 0)
(-0.0191404 0.0175591 0)
(-0.0190623 0.0209977 0)
(-0.0177242 0.0160604 0)
(-0.0208086 0.0148284 0)
(-0.0792702 0.0392296 0)
(-0.0768113 0.0374453 0)
(-0.0812463 0.0354993 0)
(-0.0805413 0.0309314 0)
(-0.07739 0.0392213 0)
(-0.0766803 0.0361118 0)
(-0.0855467 0.0276107 0)
(-0.0833744 0.0354678 0)
(-0.0847501 0.038995 0)
(-0.0833341 0.0199307 0)
(-0.0609079 0.0375571 0)
(-0.0643938 0.0272015 0)
(-0.0745294 0.0365679 0)
(-0.0669678 0.0378351 0)
(-0.0500343 0.0309548 0)
(-0.0467152 0.0324424 0)
(-0.0617195 0.0270695 0)
(-0.0477112 0.0379407 0)
(-0.0372972 0.0280042 0)
(-0.0412188 0.0241363 0)
(0.0112661 0.0308891 0)
(0.01224 -0.0093813 0)
(-0.0421187 -0.00487878 0)
(-0.0051349 0.0421746 0)
(0.0153525 0.0335603 0)
(-0.0118807 0.033365 0)
(-0.00329036 0.0209438 0)
(-0.0173534 0.0293534 0)
(-0.00633231 0.0403914 0)
(-0.000682301 0.0213871 0)
(0.00691815 0.0385987 0)
(-0.00630786 0.0298411 0)
(0.006785 0.0286079 0)
(-0.00706826 0.0336875 0)
(-0.00388151 0.0377638 0)
(-0.00140882 0.0315483 0)
(-0.00123351 0.0411024 0)
(0.00139838 0.0425968 0)
(0.00356682 0.0417919 0)
(-0.00118713 0.039267 0)
(0.000138366 0.0349992 0)
(0.00483858 0.0361059 0)
(0.00540133 0.0342582 0)
(-0.00362534 0.0341372 0)
(-0.00670765 0.0334386 0)
(0.001842 0.0311582 0)
(-0.00293637 0.0318106 0)
(-0.0116872 0.0375326 0)
(-0.0151244 0.0373553 0)
(-0.00916743 0.03457 0)
(-0.0133565 0.0350267 0)
(-0.0167482 0.0366526 0)
(-0.0174833 0.0299131 0)
(-0.014676 0.0323337 0)
(-0.0152473 0.0328624 0)
(-0.0173476 0.0241589 0)
(-0.0181463 0.0261196 0)
(-0.0182067 0.03701 0)
(-0.0203541 0.0280209 0)
(-0.0222834 0.0381471 0)
(-0.0322769 0.0268336 0)
(-0.0346296 0.0342769 0)
(-0.0300588 0.0344264 0)
(-0.0250194 0.0279228 0)
(-0.0400258 0.0233547 0)
(-0.0436162 0.0319956 0)
(-0.0373434 0.0266886 0)
(-0.0415662 0.032944 0)
(-0.0428957 0.0210925 0)
(-0.0502993 0.0329929 0)
(-0.0539372 0.0295173 0)
(-0.0572313 0.0403309 0)
(-0.0476249 0.0254805 0)
(-0.0561028 0.0363156 0)
(-0.0614543 0.0344512 0)
(-0.0663076 0.0395298 0)
(-0.067559 0.0409907 0)
(-0.0733193 0.0386939 0)
(-0.0763504 0.0401729 0)
(-0.0785645 0.0350915 0)
(-0.0868765 0.0224975 0)
(-0.0786528 0.0350602 0)
(-0.0821812 0.0332278 0)
(-0.0774873 0.0341469 0)
(-0.0772994 0.0160456 0)
(-0.0748076 0.0262319 0)
(-0.0675752 0.00949838 0)
(-0.0760852 0.0142015 0)
(-0.0709489 0.0250445 0)
(-0.0708927 0.0108906 0)
(-0.0603574 0.0177892 0)
(-0.064587 0.0227598 0)
(-0.0566873 0.00674978 0)
(-0.054875 0.0198633 0)
(-0.0481446 0.0159224 0)
(-0.0559082 0.00504397 0)
(-0.0363285 0.00016858 0)
(-0.0428191 -0.00417408 0)
(-0.0592755 0.00595037 0)
(-0.0477845 0.0126348 0)
(-0.0422503 -0.0130149 0)
(-0.0555877 -0.0111685 0)
(-0.0611252 -0.00285246 0)
(-0.0501304 -0.0184165 0)
(-0.0561418 0.00219808 0)
(-0.0547899 -0.0142036 0)
(-0.05831 -0.00796996 0)
(-0.0518642 -0.0209809 0)
(-0.0596668 -0.00877654 0)
(-0.064938 -0.015896 0)
(-0.0577798 -0.0129339 0)
(-0.0614611 -0.0108135 0)
(-0.0595061 -0.0234068 0)
(-0.05939 -0.0145756 0)
(-0.0689524 -0.0138812 0)
(-0.055522 -0.0181786 0)
(-0.0616791 -0.0183678 0)
(-0.0532715 -0.0133859 0)
(-0.068914 -0.0103376 0)
(-0.0607322 -0.0167832 0)
(-0.0484065 -0.0113611 0)
(0.0101568 -0.0254586 0)
(0.00148234 -0.0226709 0)
(0.00206764 -0.00507265 0)
(0.0359624 0.0370583 0)
(-0.00113921 -0.0216384 0)
(-0.0443535 -0.0462805 0)
(0.0649473 0.0212097 0)
(0.0478414 0.00855913 0)
(-0.0342511 -0.0499877 0)
(0.0166508 0.0157518 0)
(-0.0254019 -0.0150386 0)
(0.00576564 0.00365295 0)
(-0.00758299 -0.0176104 0)
(0.00284183 -0.0230534 0)
(0.0211591 -0.00548453 0)
(-0.0129301 0.0138368 0)
(0.00457152 -0.00787009 0)
(-0.00780434 -0.00913017 0)
(0.00813446 0.0196749 0)
(-0.00833867 -0.00399215 0)
(0.00512312 0.00299236 0)
(-0.0121688 -3.33882e-05 0)
(0.00887726 0.0113416 0)
(-0.0122343 -0.00322739 0)
(-0.00186565 -0.00206086 0)
(0.00352535 -0.0184908 0)
(-0.0151354 -0.0217905 0)
(-0.00441202 -0.00369015 0)
(-0.0218198 -0.0385055 0)
(0 0 0)
(0 0 0)
(0 0 0)
(0 0 0)
(0 0 0)
(6.18987e-07 -1.33144e-06 0)
(0 0 0)
(0.00165693 -0.0153944 0)
(0.000425824 -0.00116302 0)
(0.00771095 -0.00290652 0)
(0 0 0)
(0 0 0)
(0 0 0)
(0 0 0)
(-1.42525e-07 2.57553e-08 0)
(0 0 0)
(0 0 0)
(0 0 0)
(0 0 0)
(0 0 0)
(0 0 0)
(0 0 0)
(0 0 0)
(0 0 0)
(0 0 0)
(0 0 0)
(0 0 0)
(0 0 0)
(0 0 0)
(0 0 0)
(0 0 0)
(0 0 0)
(0 0 0)
(0 0 0)
(0 0 0)
(0 0 0)
(0 0 0)
(0 0 0)
(-2.54385e-09 1.51039e-07 0)
(0 0 0)
(-4.70303e-08 2.22084e-07 0)
(-9.23985e-08 2.76304e-07 0)
(0 0 0)
(0 0 0)
(7.13281e-07 4.81595e-08 0)
(-1.4405e-07 1.79919e-07 0)
(0 0 0)
(0 0 0)
(0 0 0)
(0 0 0)
(0 0 0)
(0 0 0)
(0 0 0)
(0 0 0)
(0 0 0)
(0 0 0)
(0 0 0)
(0 0 0)
(0 0 0)
(0 0 0)
(0 0 0)
(0 0 0)
(0 0 0)
(0 0 0)
(0 0 0)
(0 0 0)
(0.00787819 0.0639303 0)
(-0.0085309 0.0672696 0)
(-0.0238585 0.060287 0)
(0.0346996 0.0519432 0)
(0.0211605 0.0678889 0)
(-0.0233511 0.0513465 0)
(0.00546242 0.0752194 0)
(-0.00543688 0.057419 0)
(-0.00939326 0.04949 0)
(-0.0184484 0.0745078 0)
(-0.0341465 0.0438154 0)
(-0.0128158 0.0490928 0)
(-0.0284219 0.0427198 0)
(-0.0201178 0.0375059 0)
(-0.0156989 0.0264465 0)
(-0.0133221 0.030478 0)
(-0.0136755 0.0279473 0)
(-0.0248349 0.0403823 0)
(-0.0178603 0.0502342 0)
(-0.020408 0.0350279 0)
(-0.00864652 0.0236933 0)
(-0.0144052 0.0308225 0)
(0 0 0)
(0 0 0)
(1.37899e-09 -4.34978e-08 0)
(-3.05105e-08 -1.04282e-08 0)
(0 0 0)
(0 0 0)
(0 0 0)
(0 0 0)
(7.72835e-08 -6.46459e-09 0)
(0 0 0)
(0 0 0)
(0 0 0)
(0 0 0)
(0 0 0)
(0 0 0)
(0 0 0)
(0 0 0)
(0 0 0)
(0 0 0)
(0 0 0)
(-0.00225009 -0.00568879 0)
(0 0 0)
(-0.00673101 0.00487425 0)
(0.000175344 -0.00363066 0)
(0.00629187 0.00391389 0)
(0.000979648 -0.000966068 0)
(0.0101603 0.00912663 0)
(0.0184517 0.0114209 0)
(0.0168399 0.0172517 0)
(0.0180511 0.00752352 0)
(0.0201071 0.00576779 0)
(0.0065773 0.0188227 0)
(0.018145 0.0139358 0)
(0.0385766 0.00753904 0)
(0.0174902 0.0219997 0)
(0.032889 0.0631532 0)
(-0.00167485 0.010665 0)
(0.0162939 0.0299574 0)
(0.0209138 0.0366741 0)
(0.0315069 0.0641058 0)
(0.0136421 0.0449399 0)
(0.0145419 0.0549523 0)
(0.0312761 0.029973 0)
(0.0276366 0.0425423 0)
(0 0 0)
(0 0 0)
(0 0 0)
(0 0 0)
(0 0 0)
(-9.03234e-10 8.79281e-11 0)
(0 0 0)
(0 0 0)
(4.04817e-10 1.4396e-10 0)
(0 0 0)
(0 0 0)
(0 0 0)
(0 0 0)
(0 0 0)
(0 0 0)
(0 0 0)
(0 0 0)
(0 0 0)
(0 0 0)
(0 0 0)
(0 0 0)
(0 0 0)
(0 0 0)
(0 0 0)
(-1.06781e-05 2.4916e-05 0)
(0 0 0)
(-0.0162669 0.0301985 0)
(-0.0161871 0.0320846 0)
(-0.0131868 0.0295066 0)
(-0.0190007 0.0313023 0)
(-0.00957738 0.0256703 0)
(-0.0157835 0.0229918 0)
(-0.0138885 0.0202914 0)
(-0.0103933 0.0235326 0)
(-0.0126596 0.0218194 0)
(-0.0138885 0.0215392 0)
(-0.0164572 0.0202402 0)
(-0.0139242 0.0213738 0)
(-0.0229817 0.0158851 0)
(-0.0278144 0.020901 0)
(-0.0279992 0.016175 0)
(-0.0299469 0.0104255 0)
(-0.0346397 0.0123974 0)
(-0.0348599 0.0178976 0)
(-0.0345405 0.0207326 0)
(-0.0361345 0.0175612 0)
(-0.0192388 0.0163159 0)
(-0.024185 0.0128558 0)
(-0.0245921 0.0129244 0)
(-0.0218918 0.0182594 0)
(-0.0193585 0.019551 0)
(-0.0159284 0.0216673 0)
(-0.0178985 0.0170534 0)
(-0.0164741 0.0213345 0)
(-0.0137911 0.0172296 0)
(-0.0173455 0.0155246 0)
(-0.02004 0.014168 0)
(-0.0132936 0.0173042 0)
(-0.0817923 0.0306385 0)
(-0.0847769 0.019376 0)
(-0.0819949 0.0367972 0)
(-0.0815002 0.034575 0)
(-0.0732543 0.0392147 0)
(-0.0764615 0.0383519 0)
(-0.085688 0.0397583 0)
(-0.0893128 0.0242845 0)
(-0.0674063 0.00812878 0)
(-0.0655819 0.0284414 0)
(-0.0729506 0.0257067 0)
(-0.0793932 0.0124382 0)
(-0.0646487 0.0108548 0)
(-0.0563039 0.00951057 0)
(-0.0635397 -0.00816815 0)
(-0.0612173 0.00231502 0)
(-0.0597273 -0.000223558 0)
(-0.0532665 -0.00493252 0)
(-0.0642053 -0.00733189 0)
(-0.0654984 -0.00516232 0)
(-0.0737751 -0.00473085 0)
(-0.0637256 -0.00700389 0)
(-0.0758309 -0.003919 0)
(-0.0623326 -0.00842851 0)
(-0.0557792 -0.014281 0)
(-0.0653115 -0.0108046 0)
(-0.0501279 -0.0145402 0)
(-0.0464163 -0.0179661 0)
(-0.0601211 -0.010139 0)
(-0.0732769 -0.00500644 0)
(-0.0631864 0.0292074 0)
(-0.0652155 0.0347435 0)
(-0.071852 0.0371658 0)
(-0.0676741 0.0423449 0)
(-0.0574468 0.0342904 0)
(-0.0356839 0.0306881 0)
(-0.0620129 0.0221889 0)
(-0.0411419 0.034373 0)
(-0.032881 0.0207551 0)
(-0.0445182 0.0295572 0)
(-0.0210557 -0.0103905 0)
(0.000691404 0.00411538 0)
(0.00703411 0.0187861 0)
(-0.029675 -0.000778418 0)
(0.00486378 0.0235348 0)
(0.0116267 0.0201799 0)
(0.0142523 0.0112213 0)
(-0.0148113 0.0314738 0)
(-0.00133573 0.0390915 0)
(0.00411132 0.0177412 0)
(-0.002453 0.0222903 0)
(0.00225266 0.0222401 0)
(-0.00279793 0.0172852 0)
(-0.00315102 0.0320476 0)
(0.00177716 0.0385359 0)
(0.00105262 0.033346 0)
(0.00759471 0.03752 0)
(0.00265046 0.0343414 0)
(0.00300107 0.0328507 0)
(0.000851008 0.0291066 0)
(0.00767489 0.0301124 0)
(0.00320768 0.0298515 0)
(0.00502247 0.0272141 0)
(-0.00253078 0.0288509 0)
(0.00289212 0.0293261 0)
(-0.0048597 0.0335306 0)
(-0.00626624 0.0383785 0)
(-0.00376732 0.0316703 0)
(-0.00919967 0.03483 0)
(-0.014005 0.038542 0)
(-0.0163128 0.0332183 0)
(-0.0125288 0.0349502 0)
(-0.0135396 0.0323558 0)
(-0.0168869 0.0272291 0)
(-0.0197409 0.0255414 0)
(-0.0169907 0.0335732 0)
(-0.0217511 0.0363676 0)
(-0.0221533 0.0275883 0)
(-0.0221591 0.0293393 0)
(-0.0275852 0.0364475 0)
(-0.0305723 0.0282335 0)
(-0.0385348 0.0333632 0)
(-0.032796 0.0308992 0)
(-0.025186 0.0288377 0)
(-0.0494906 0.0324412 0)
(-0.0414246 0.0246191 0)
(-0.0374012 0.0282735 0)
(-0.0463828 0.0330624 0)
(-0.0453749 0.0247371 0)
(-0.0567118 0.0329819 0)
(-0.0565952 0.0296623 0)
(-0.0668231 0.035355 0)
(-0.0666298 0.0337352 0)
(-0.0541927 0.026927 0)
(-0.0633809 0.0364999 0)
(-0.0739379 0.0342002 0)
(-0.0790948 0.0358043 0)
(-0.066917 0.0395727 0)
(-0.0680796 0.0358673 0)
(-0.0858944 0.0238033 0)
(-0.0651706 0.0327727 0)
(-0.0817954 0.0164549 0)
(-0.0665277 0.0225791 0)
(-0.0625812 0.00977766 0)
(-0.0763147 0.0142888 0)
(-0.058142 0.0133336 0)
(-0.0471096 0.011456 0)
(-0.0413522 0.00234291 0)
(-0.0381806 0.00943876 0)
(-0.0325468 -0.0080177 0)
(-0.0453773 0.00669726 0)
(-0.0404042 -0.0186249 0)
(-0.0549849 -0.00273936 0)
(-0.0474366 -0.0239694 0)
(-0.0569057 -0.0102965 0)
(-0.0512451 -0.0264416 0)
(-0.0547985 -0.0158524 0)
(-0.0527388 -0.0235151 0)
(-0.0525394 -0.0250973 0)
(-0.0493047 -0.0117745 0)
(-0.044643 -0.0237291 0)
(-0.0503861 -0.0166145 0)
(-0.0379673 -0.01669 0)
(-0.0315808 -0.0122227 0)
(-0.0445993 -0.01875 0)
(-0.0484884 -0.0170331 0)
(-0.0345055 -0.0185684 0)
(-0.0390327 -0.0226091 0)
(-0.0303238 -0.0216719 0)
(-0.024905 -0.023173 0)
(-0.0428595 -0.0206713 0)
(-0.0350959 -0.0277166 0)
(-0.0326333 -0.0199211 0)
(0.00872509 -0.0131083 0)
(0.00266744 -0.00707622 0)
(0.005885 -0.0152787 0)
(-0.00388626 -0.0097481 0)
(0.00989499 -0.0292697 0)
(0.0179929 -0.0405115 0)
(-0.0230333 -0.00534069 0)
(-0.0109303 0.00972688 0)
(0.00403648 -0.0421724 0)
(-0.0275625 -0.0282896 0)
(0.0179492 0.00961148 0)
(-0.03417 -0.015212 0)
(0.015648 0.0121666 0)
(0.0220486 0.000542667 0)
(0.00213929 -0.0025496 0)
(-0.0169191 0.000378616 0)
(-0.0112321 0.00262194 0)
(-0.0063303 -0.00727898 0)
(0.00525925 0.0278094 0)
(0.0224108 0.0063054 0)
(-0.0109592 -0.00413997 0)
(0.00288497 0.0167114 0)
(-0.00570753 -0.0145028 0)
(-0.00993679 -0.0339592 0)
(0.0436388 0.0219659 0)
(0 0 0)
(0.00982898 -0.00830163 0)
(0.0262248 -0.0174509 0)
(-0.00815848 0.0243809 0)
(-0.0296832 0.0116733 0)
(-0.00996911 -0.00877181 0)
(0 0 0)
(0 0 0)
(0 0 0)
(1.03564e-06 -1.23013e-06 0)
(0 0 0)
(0 0 0)
(0 0 0)
(0 0 0)
(0 0 0)
(0 0 0)
(0 0 0)
(-5.09869e-08 -1.95599e-07 0)
(0 0 0)
(0 0 0)
(0 0 0)
(0 0 0)
(0 0 0)
(0 0 0)
(0 0 0)
(0 0 0)
(-5.39636e-10 -5.50809e-10 0)
(0 0 0)
(0 0 0)
(0 0 0)
(0 0 0)
(0 0 0)
(0 0 0)
(0 0 0)
(0 0 0)
(0 0 0)
(0 0 0)
(0 0 0)
(0 0 0)
(0 0 0)
(0 0 0)
(0 0 0)
(0 0 0)
(0 0 0)
(0 0 0)
(0 0 0)
(0 0 0)
(0 0 0)
(0 0 0)
(0 0 0)
(0 0 0)
(0 0 0)
(0 0 0)
(0 0 0)
(0 0 0)
(0 0 0)
(0 0 0)
(0 0 0)
(0 0 0)
(0 0 0)
(0.00641454 0.0703672 0)
(0.0230983 0.017187 0)
(0.0234572 0.0639112 0)
(-0.0131601 0.0475792 0)