/*--------------------------------*- C++ -*----------------------------------*\
  =========                 |
  \\      /  F ield         | OpenFOAM: The Open Source CFD Toolbox
   \\    /   O peration     | Website:  https://openfoam.org
    \\  /    A nd           | Version:  8
     \\/     M anipulation  |
\*---------------------------------------------------------------------------*/
FoamFile
{
    version     2.0;
    format      ascii;
    class       volScalarField;
    location    "3540";
    object      alpha;
}
// * * * * * * * * * * * * * * * * * * * * * * * * * * * * * * * * * * * * * //

dimensions      [0 0 -1 0 0 0 0];

internalField   nonuniform List<scalar> 
526318
(
0.000358747
0.000256464
0.00041712
0.000102826
0.000107878
0.00094752
0.000414153
0.000723933
0.00050531
0.000681289
0.000630788
0.000417824
0.000736009
0.000410103
0.000450721
0.000825069
0.000979355
0.000302329
0.000178399
0.00019053
0.00102566
0.000328204
0.00101785
0.000520104
0.000856827
0.000929177
0.000336175
0.00047446
0.000332912
0.000237658
0.000217503
0.000307144
0.000139002
0.000624179
0.000753852
0.00117055
0.000585656
0.000555153
0.00100192
0.00044563
0.000859717
0.000362116
0.00138858
0.00233672
0.0022111
0.00276465
0.00148855
0.000318443
0.00101439
0.000520093
0.000587901
0.000213529
0.00055457
0.000653802
0.0146681
0.00214759
0.000926783
0.0161865
0.000540334
0.000626617
0.000353372
0.000444074
0.000225092
0.000395659
0.000654201
4.73582e-05
0.000444267
0.000199605
0.000277704
0.000599359
0.000317825
0.00100975
0.000312016
0.000359873
0.000585728
0.000593608
0.00019326
0.000465181
0.000831019
0.000868042
0.000177965
0.000244428
0.000329325
0.000532768
0.00021759
0.00103796
0.00045907
0.000405284
0.000283187
0.000570287
0.000162974
0.000537074
0.000953243
0.00100988
0.000747624
0.000663173
0.000308865
0.00045665
0.000368878
0.000406677
0
0
0
0
0.224717
0
0.00600497
0.0185811
0.00181596
0.00326682
6.21171e-05
0.00122644
0.00042626
0.000937554
0.000222396
0.000850516
0.000163672
0.000518492
0.000454944
0.000606501
0.000504291
0.000406757
0.000688275
0.000636267
0.000536883
0.000668454
0.000821327
0.00143009
0.000725759
0.000674353
0.00176021
0.00181346
0.000529527
0.00135066
0.00105717
0.00150999
0.00127586
0.00140816
0.00217786
0.0011258
0.00324283
0.00259681
0.00101957
0.00166207
0.00368855
0.00227918
0.00157138
0.00285809
0.00169992
0.00172923
0.00281318
0.00220606
0.00098241
0.00125821
0.00168374
0.00151611
0.00201567
0.00321606
0.00246442
0.00290117
0.00349085
0.00610675
0.00199698
0.000287325
0.000263822
0.000806432
0.000479169
0.000722009
0.000306199
0.000726302
0.000568463
0.000806853
0.000462932
0.000876528
0.000380046
0.00051646
0.000317608
0.000753772
0.00085359
0.00067695
0.000332963
0.000871899
0.000329731
0.000867995
0.00114568
0.00229297
0.000999808
0.00113292
0.00231232
0.0013286
0.00183883
0.00147197
0.00132335
0.00126336
0.00224791
0.00171716
0.00208097
0.00158283
0.000697464
0.0010044
0.00189704
0.00175624
0.0015631
0.00270413
0.00247316
0.00375108
0.00132582
0.00350598
0.00212035
0.00112124
0.000868201
0.00073692
0.000822838
0.00106167
0.00152497
0.000336348
0.000395943
0.000822905
0.000686278
0.000848854
0.00153695
0.00182295
0.00109297
0.000734337
0.000505343
0.000455199
0.000660326
6.26445e-05
0.000498176
0
0
0.0119669
0.0013664
0
0
0
0
0
0
0.000626717
0.000187721
0.000501113
0.000124076
0.000117162
0.000174411
0.00030251
0.000137243
0.000180549
0.000449155
0.000499007
0.000262938
0.000495453
0.000136847
0.000598278
0.000359585
0.000139069
0.000456403
0.000444294
0.000558281
0.000325785
0.000268691
0
0
0
0
0
0
0
0.0254802
0.000572218
0.00929361
0.00140228
0.00161319
0.000320599
0.000622389
0.000109502
0.000901993
0.00044443
0.000546512
0.000389778
0.000161199
0.000734852
0.00060784
0.000842345
0.000962675
0.00194895
0.000800734
0.00226051
0.000296212
0.000948882
0.00178521
0.00222756
0.00322917
0.00841256
0.00357496
0.00106513
0.00170423
0.00152225
0.000523863
0.00181178
0.000873944
0.00280867
0.00382704
0.00277178
0.000255651
0.00325014
0.00244715
0.0028253
0.00186385
0.00246136
0.000846032
0.004121
0.0092363
0.00167348
0.00362528
0.00177145
0.000637363
0.000465879
0.00100618
0.000521031
0.000948405
0.00151356
0.0009362
0.000507782
0.000536924
0.000353678
0.000196398
0.000648942
0.000525157
0.000513408
0.000590856
0.000395504
0.0015148
0.000581493
0.00189779
0.000960565
0.000430395
0.00133291
0.00233075
0.00061653
0.00258405
0.0018602
0.00100105
0.00253569
0.000691042
0.00173202
0.00105425
0.00136263
0.00181422
0.00114007
0.00232882
0.0016385
0.00180303
0.00133576
0.00199563
0.00195868
0.00242625
0.00269011
0.00246843
0.00127152
0.00187368
0.00130536
0.00180692
0.00205362
0.00213323
0.00178435
0.00061614
0.000285382
0.000114485
0.000767797
3.40054e-05
0.00106208
0.000438805
0.000879044
0.000526286
0.000624953
0.000414813
0.00101022
0.00061486
0.000106991
0.00142641
0.00224448
0.00101417
0.00147631
0.000603567
0.000860498
0.000626351
0.000524701
0.00281173
0.000488905
0.00510709
0.000600706
0.00121569
0.0006763
0.000344934
0.00046175
0.000679503
0.000454269
0.00104742
0
0
0.0512877
0
0.0155314
0.150901
0
0.0110804
0
0
0
0
0
0
0
0
9.36979e-05
0.000255514
0.000350395
0.000236049
0.000330092
0.000363994
0.000588131
0.000490014
0.000399327
0.000430452
0.000740235
0.000317293
0.000230155
0.000179455
0.000293628
0.000155848
8.08618e-05
0.000178165
2.75841e-05
0.0005917
0.000524658
0.000512192
0
0.00524756
0.00894269
0
0
0
0
0
0.000600326
0.00685811
0
0
0
0
0.00721945
0
0
0
0
0
6.60825
0
0.0609715
0.789112
0.00797455
0.0407477
0.00213729
0.000646079
0.00134993
0.000285631
0.000748309
0.000595229
0.00030809
0.000274911
0.000242484
0.000486638
5.79878e-05
0.000139038
0.000873859
0.000631751
0.000909867
0.00118091
0.000667596
0.00173774
0.00198947
0.000967595
0.000325821
0.0013551
0.00111729
0.00252703
0.00514244
0.00189091
0.00264006
0.00194618
0.00685167
0.00237326
0.00401973
0.00232778
0.00807419
0.0129147
0.00635052
0.000510212
0.00419871
0.0127273
0.00614496
0.00528261
0.00661589
0.0114022
0.00456029
0.00113461
0.00119423
0.00187179
0.000533436
0.000832918
0.000979574
0.000294376
0.000508642
0.00095997
0.000728745
0.00133724
0.000692265
0.00161292
0.00106234
0.000925063
0.000415328
0.000103463
0.00177346
0.00043439
0.000451219
0.00066748
0.000245341
0.000278551
0.000588365
0.000660281
0.000569331
0.000948126
0.00124452
0.00177538
0.00255139
0.00442708
0.00239454
0.00382224
0.00970176
0.00512488
0.00254479
0.00329895
0.00105241
0.0011291
0.00115476
0.00170708
0.00147012
0.00220568
0.0015344
0.00251264
0.00171342
0.00199569
0.00183954
0.00155948
0.00205161
0.00214371
0.0018329
0.00123872
0.00167829
0.000675342
0.000851311
0.00103005
0.000969748
0.00166081
0.000370564
0.000733802
0.00171339
0.00032793
0.00122345
0.000543217
0.000374593
0.000772104
0.00057317
0.0012135
0.00116666
0.000825704
0.00049113
0.000324469
0.000694442
0.000393028
0.000449367
0.000456489
0.000341547
0.00137694
0.00119462
0.000901692
0.000863797
0.00109437
0.000741705
0.00079557
0.000500911
0.00590653
0.00316293
0.00201763
0.00135141
0.000977314
0.000803499
0.00124056
0.00240894
0.000308237
0.00257289
0
0
0
0
0.0104152
0.00810383
0
0
0
0
0
0
0
0
0
0
0
0
0
0
0
0
0
0
0
0
0.000675765
0
0
0.00130999
0.000365233
0.000715145
0
0
0
0
0
0
0
0
0
0
0
0
0
0
0.000376605
0.000103107
9.74048e-05
0.000433455
0.000491926
0.000240806
0.000743983
0.000479711
0.000470891
0.00116552
0.000692292
0.000341887
4.14506e-05
0.000624182
0.000553788
0.000539654
0.000312866
4.684e-05
0.000676906
0.000255193
0.000692702
0.00046495
0
0
0
0
0
0
0
0
0
0
0
0
0
0
0
0
0
0
0
0
0
0
0
0
0
0
0.0308197
0
0
0
0.0214132
0
0.00765167
0.00710961
0.000830094
0.00300107
0.000670771
0.000667286
0.000445921
0.000616492
0.000261035
0.000230414
8.69322e-05
0.000305019
0.000496557
0.000381461
0.000335572
0.000341545
0
0
0
0
0
0
0
0
0
0
0
0
0
0
0
0
0
0.00119969
0.000632307
0.00117965
0.000904436
0.00315908
0.000556878
0.00266471
0.00172059
0.00319157
0.00406871
0.000231943
0.00221811
0.00410577
0.0106826
0.0131594
0.00449906
0.00202931
0.00124143
0.00328128
0.00499741
0.00942745
0.0181504
0.0326927
0.0054192
0.00642205
0.00229155
0.00440406
0.00260326
0.0221098
0.012544
0
0.229546
0.000693497
0.000860407
0.000723077
0.000709574
0.00015838
0.00047491
0.000863456
0.000709026
0.000740265
0.000559943
0.000823155
0.00162975
0.000619283
0.000887154
0.000456369
0.00211489
0.00104564
0.000291179
0.00385468
0.00262629
0.000854344
0.00276641
0.00121844
0.000523046
0.00058321
0.000738356
0.00063554
0.000750233
0.00102363
0.000293863
0.00138269
0.000628119
0.00358093
0.00328427
0.00405415
0.00605388
0.0131933
0.0112535
0.0509561
0.0168449
0.00639465
0.00372558
0.00490853
0.00449734
0.0035143
0.00307553
0.00249641
0.00248357
0.00227577
0.00283425
0.00242612
0.00210087
0.00150667
0.00198024
0.00181861
0.00148376
0.00155495
0.000994973
0.00160845
0.00144099
0.00119129
0.000806196
0.00108941
0.00144189
0.00123711
0.000464802
0.000684074
0.000720353
0.000758051
0.000986059
0.000925748
0.000902017
0.00113659
0.000721209
0.000182662
0.000251733
0.000344524
0.000236325
0.000303252
0.000318617
0.000462563
0.000394273
0.000698351
0.000420626
0.000622876
0.000677282
0.000704537
0.000710191
0.000595953
0.000665764
0.000451494
0.000488474
0.000410525
0.000454195
0.000403625
0.000481251
0.000335038
0.000355118
0.00037699
0.00035894
0.000336026
0.000328345
0.000261432
0.000245776
0.000263475
0.000205538
0.000166596
8.58808e-05
0.000105583
0.000121018
7.5154e-05
1.44975e-05
7.13475e-05
9.13286e-05
5.34225e-05
6.3365e-05
0.000116723
0.000113931
6.69656e-05
0.00013734
0.000117194
0.00141168
0.00072269
0.000253688
0.00108648
0.00100761
0.000348831
0.000645561
0.000964546
0.0010123
0.011266
0.0126551
0.00128779
0.00214264
0.0234973
0.00393899
0.0122747
0.00559518
0.00512669
0.0123601
0.0155197
0.00968533
0.00876158
0.00371161
0
0.0156422
0
0
0
0
0
0
0
0
0
0.0131774
0
0
0
0
0
0
0
0
0.00937373
0
0
0
0
0
0
0
0
0
0
0
0
0
0
0
0
0
0
0.0215425
0
0
0.0213177
0
0.00649911
0
0.00831238
0.00867434
0.0034745
0
0.021747
0.0156634
0
0
0.0134765
0
0
0
0
0
0
0
0
0
0
0
0
0
0
0.0122627
0
0
0.000219841
0.000139287
0.000459812
0.000448746
0.000673695
0.000664008
0.000926259
0.000726932
0.00128929
0.000174114
0.000193226
0.000289456
0.000279376
0.000363183
0.000594862
0.000462567
0.000696466
0.000471492
0.000370132
0.0006417
0.000101026
7.3049e-05
0
0
0.00757431
0.0191279
0
0
0
0
0
0
0
0
0
0
0
0
0
0
0
0
0
0
0.0185381
0.0131905
0
0
0
0.00424706
0.00144933
0.00120327
0.000977805
0.000122319
0.000731493
0.000190718
0.000783158
0.000155003
0.000133088
0.000311314
0.000712588
0.000469361
0.000263113
0.000141933
0.00022584
0.000391461
0.00246063
0
0
0
0
0.000245471
0
0
0.000342595
0
0
0
0
0
0
0
0
0
0
0
0
0
0
0
0.0150017
0
0.000559121
0.0015091
0.00130304
0.00104109
0.00507379
0.00225501
0.00116383
0.00729167
0.00383513
0.00688786
0.0114803
0.00669985
0.00848146
0.00804911
0.0444389
0.012476
0.00899154
0.0089128
0.00115515
0.00495196
0
2.16284
0.0206328
0.132945
0.0534677
0.0679911
0
0
0
0
0.0398295
0
0.000745061
0.000586999
0.000508651
0.000915438
0.000152598
0.000740117
0.00045454
0.000677453
0.000717967
0.000490026
0.00061792
0.000628683
0.000392455
0.00047979
0.000343737
0.000295537
0.000203931
0.000193719
6.07996e-05
0.000116044
5.1433e-05
7.90672e-05
2.32759e-05
7.78446e-05
0.000127398
8.24147e-05
0.000146193
8.93642e-05
0.000142369
2.52587e-05
0.00113536
0.00135156
0.00118005
0.00112924
0.00161347
0.00173419
0.000223225
0.00172603
0.00396906
0.00461487
0.0227998
0.00218539
0.00541556
0.000701614
0.000592083
0.000927521
0.00091034
0.00078144
0.00300242
0.00377453
0.0117036
0.00920621
0.0113569
0.00881863
0.0321199
0.0531096
0
0.469683
0.0129624
0.0287623
0.189979
0.0202008
0.00769209
0.0122239
0.00279768
0.00367488
0.00219099
0.00267966
0.00137331
0.00172027
0.00110133
0.00155274
0.00154607
0.000470649
0.00157959
0.00118211
0.00121209
0.00168973
0.00112803
0.00169232
0.000655059
0.000704362
0.00127788
0.00127682
0.00119176
0.0006674
0.000642666
0.00128481
0.000757978
0.000457912
0.00012074
0.000589803
0.000462779
0.000309485
0.00032791
0.000368962
0.000379532
0.000505607
0.000382012
0.000418417
0.000343964
0.000626379
0.000467139
0.000436349
0.000659671
0.000396341
0.000372304
0.000356463
0.000339277
0.000371964
0.000204023
0.000280788
0.00010255
0.000125754
7.75967e-05
3.37541e-05
0.000147689
0.0001436
0.000194305
0.000104441
0.000147075
0.000190959
0.000155252
0.000110577
0.000135449
0.000125047
0.000168251
0.00014201
0.000172194
0.000188698
0.000132459
0.000164885
0.000137373
0.00304406
0.00552539
0.00129224
0.00102022
0.00207572
0.0035249
0.00149673
0.000496862
0.00356344
0.00236322
0.00525416
0.039151
0.0448801
0.00224317
0.00189443
0
0
0.0645776
0
0.0577479
0.0576341
0.0107911
0.0234486
0.00601786
0.00683894
0
0
0
0
0.0105664
0.00809897
0
0
0
0.0184562
0
0
0
0
0
0
0
0.0283303
0
0
0
0
0
0
0
0
0.000577242
0
0
0
0.00617976
0
0
0
0
0
0
0
0
0
0
0
0
0
0
0
0
0.0132657
0
0.0075552
0
0
0
0
0
0
0
0
0
0
0.00026758
0.000534951
0.00069592
0.000338012
0.000586944
0.000791752
0.0005643
0.000429318
0.000562581
0.000914879
0.000888882
0.00017569
0.000149158
0.00038294
0.000848188
0.00118466
0.000914925
0.000177298
0.000571233
0.000484842
0.000342467
9.2189e-05
0.00284995
0
0.00183161
0
0
0
0
0
0.0387009
0
0
0
0
0
0
0
0
0
0
0
0
0
0
0
0
0
0.0132127
0.0138703
0.000381543
0.00746896
0.000585558
0.000872765
0.000192094
0.000134347
0.000372774
0.000538514
0.000436893
0.000259971
0.000311064
0.00021992
0.000480309
0.000572103
0.00029471
0.000237906
0
0
0
0
0
0
0
0
0
0
0
0
0.00719819
0
0
0
0
0
0
0.00169443
0
0.00235872
0
0
0
0
0
0
0
0
0
0.000636551
0.00143495
0.0026317
0.00294023
0.00229221
0.00299893
0.00210088
0.00422156
0.00249866
0.00237263
0.00117058
0.0174853
0.0413437
0
0
0.0368641
0.0100821
0.11575
0.00785511
0.00913817
0.00934508
0.0106948
0.00218209
0
0
0
0.14209
0
0
0
0
0
0
0
0
0.0001669
0.000183846
0.000137066
0.000213444
0.000230083
0.00011704
0.000173559
0.000241779
0.000171462
0.000198139
0.000229411
0.00013293
0.00030211
0.000142183
0.000194615
0.000209872
0.000201485
0.000189509
0.000213705
0.000228975
0.000199497
0.000197336
0.000172967
0.000221168
0.000225466
0.000207772
0.000164091
0.000178606
0.000175223
9.18304e-05
9.34979e-05
0.000138257
0.000135514
0.000139787
0.000161056
0.000694615
0.000544162
0.000194414
0.000579329
0.000815082
0.000445011
0.000503614
0.000483964
0.000592764
0.000451297
0.000541499
0.000648151
0.000443074
0.000280143
0.000227949
0.000164954
0.000119264
8.03842e-05
8.66126e-05
9.35906e-05
6.88526e-05
5.0616e-05
3.32883e-05
8.65273e-05
7.35425e-05
0.000100301
6.53564e-05
0.00011712
0.000505398
0.000519368
0.00156423
0.00157426
0.000734053
0.00104323
0.000821671
0.000687135
0.00324425
0.0104427
0.0129068
0.000156541
0.000182251
0.00016019
0.000160455
0.000208844
0.000193738
0.000188857
0.000177113
0.000200024
0.000170845
0.000226491
0.000143554
0.000216065
0.000129109
0.00017278
0.000131836
0.000134687
0.000150109
0.00257104
0.0182459
0.0213714
0.00171807
0.000263723
0.000623996
0.00120983
0.000588554
0.0143669
0.00908594
0.00521789
0.0155999
0
0
0
0
0
0
0.0178668
0.0555071
0
0.00628466
0.0119611
0.00529918
0.00236684
0.00183644
0.000808008
0.00145361
0.000829014
0.00111744
0.000163756
0.000791544
0.00116446
0.000986766
0.000332037
0.00125155
0.00149603
0.00135769
0.000666707
0.000940211
0.000921244
0.00161161
0.000424974
0.000646842
0.000430935
0.000513997
0.00138277
0.000660093
0.000604431
0.000624537
0.000338454
0.000513331
0.000283896
0.000432946
0.000363628
0.000376201
0.000499142
0.000274529
0.000455755
0.000714446
0.000443057
0.000431158
0.000515152
0.000419542
0.000384274
0.000405048
0.000310525
0.000431696
0.00020525
0.000307769
0.000135524
8.93689e-05
9.19923e-05
1.47702e-05
0.000106964
0.000141643
0.000187523
0.000197837
0.000144753
0.000230569
0.000219956
0.000165712
0.000176901
0.000168699
0.000186412
0.00304588
0.00455466
0.0114443
0.0322689
0.00649797
0.0279572
0.0526788
0.0119535
0.0450168
0
0.121829
0
0
0
0.0168318
0
0
0
0
0.0464373
3.0001
0
0
0
0
0
0
0
0.00817487
0.0086972
0.011333
0
6.43261e-05
0
0
0
0
0
0
0
0
0
0.0295343
0
0
0
0
0
0
0
0
0.202143
0
0
0
0
0
0
0
0
0
0
0
0
0.00337408
0
0
0.0284525
0
0
0
0
0
0
0
0
0
0
0
0
0
0
0
0
0
0
0
0
0
0.0514351
0
0
0
0
0.41866
0.000176547
0.000246781
0.000138531
0.000160368
0.000131069
0.000155849
0.000924282
0.000275739
0.000321093
0.00050213
0.000948931
0.000504022
0.000157851
0.00120849
0.000342116
0.00034559
0.000402285
0.000333434
0.000255188
0.000347322
0.00102604
0.00118588
0.000383385
0.000283545
0.000407269
0
0
0
0
0
0
0
0
0
0
0
0
0
0.0110277
0.00670285
0.00342214
0
0
0
0
0
0
0
0
0
0
0
0.00178976
0.000559145
0.00046597
0.00024842
0.000295201
0.000533886
0.00046013
0.000277782
0.000481671
0.000369118
0.000303768
0.000643436
0.000758941
0.000479374
0.000253734
0.000503489
0
0.00325805
0
0
0
0
0
0
0
0
0
0
0
0
0
0
0
0.00606355
0
0.0218285
0
0
0
0
0
0
0
0
0
0
0.00573467
0
0
0
0
0
0
0.00367115
0.000657228
0.00214559
0.00209404
0.00197706
0.00141015
0.00136489
0.0271496
0.00938364
0
0
0.00168339
0.0010566
0
0
0
0.0111885
0
0
0.0842266
0
0.00555898
0.0380726
0.0030347
0.0164079
0
0
0
0
0
0
0
0
0
0
0
0
0.000216258
0.000132042
0.000222228
0.000160842
0.00018241
0.000218768
0.000290859
0.000198128
0.000156918
0.000168647
0.000252113
0.000200801
0.000214263
0.000216604
0.000219449
0.000253462
5.97685e-05
7.90166e-05
8.0906e-05
0.000107752
0.000154014
0.000172372
0.000710748
0.000568445
0.000570449
0.000430082
0.000900397
0.00112965
0.000591929
0.000649283
0.00044706
0.000549872
0.000503006
0.000562706
0.000608882
0.000189
0.000385696
0.000528229
0.000495869
0.000223826
0.00014888
0.000175582
8.49243e-05
0.000101035
0.000100655
8.95255e-05
4.58402e-05
0.000121001
8.86584e-05
2.24309e-05
0.000182098
0.000213374
8.91572e-05
0.0012093
0.00186058
0.001102
0.000381809
0.0025804
0.000325667
0.00055184
0.000805878
0.000584827
0.00190189
0.00137361
0.00271794
0.00014501
0.000201398
0.000186595
0.00017329
0.000178191
0.000219086
0.000164028
0.000194452
0.000173255
0.000209891
0.000187538
0.000172049
0.000198279
0.000198656
0.000135963
9.45117e-05
0.000174081
0.000174697
9.42375e-05
0.000189062
0.000216822
0.00017234
0.000121841
0.000120629
0.000164992
0.0437888
0.0274387
0.0068405
0
0.00771255
0.00724614
0
0
0
0
0
0
0
0.00938679
0
0.00429033
0
0
1.8217
0
0.000793056
0.0392597
0.00640407
0.0296085
0.000929658
0.000769391
0.00333848
0.00207537
0.0006518
0.00139198
0.000959543
0.000857102
0.000588092
0.000369248
0.00134428
0.000620165
0.000332051
0.00120993
0.00117426
0.000589769
0.000609542
0.00089588
0.000270378
0.000459488
0.0010422
0.00039745
0.000167742
0.000818665
0.000679
0.000255357
0.000350287
0.000448575
0.000375205
0.000501962
0.000155741
0.00055433
0.000389674
0.000535231
0.000315024
0.000491
0.000411857
0.00039993
0.000421061
0.000331332
0.00041163
0.000287745
0.000243932
0.00010541
0.000128751
3.63942e-05
1.57319e-05
0.000152048
7.2828e-05
0.00019285
0.000160218
0.000216355
0.000174233
0.000214797
0.00017554
0.000214195
0.00014519
0.000179039
0
0
0
0
0.0268024
0.096785
0.0778866
0
0.0510315
0
0
0
0
0
0
0
0
0
0
0
0
0
0
0
0
0
0
0
0.0132062
0.00474926
0
0
0
0
0
0
0
0
0
0
0
0
0.180045
0
0
0
0
0
0
0
0
2.39753
0
0
0
0.0110436
0.00541266
0
0
0
0
0
0
0
0.00402649
0.00414198
0
0
0.033815
0.00809408
0
0
0
0
0.0115858
0
0.0186612
0
0
0
0
0
0.0101922
0.00682144
0
0
0
0
0
0
0
0
0
0
0.00653575
0
0
0
0
0
0
0
0
0.000234453
0.000364555
9.55935e-05
0.000178985
0.000120165
0.000149794
0.000146811
0.000178485
0.000127164
0.000148319
0.000486556
0.000651858
0.000725155
0.000627029
0.000189226
0.000523698
0.000569739
0.000681742
0.000255127
0.000138339
0.000207052
0.000411626
0.000512396
0.000273443
0.00127957
0.000755045
0.00148093
0
0
0
0
0
0
0
0.00534196
0.00213025
0.013895
0
0
0
0
0
0
0
0
0
0.000623338
0
0
0
0
0
0.000368888
0.000757497
0.00039529
0.000941919
0.000306215
0.000418017
0.000654593
0.00101555
0.000650612
0.000290466
0.000401325
0.000113517
0.000718771
0.000995728
0.000432002
0.000175051
0
0
0.00297041
0.0129231
0
0
0.0130369
0.00203616
0
0
0
0.0133572
0
0
0
0.00288463
0.00470543
0.00239331
0
0
0
0.00839603
0
0
0
0.00996539
0
0
0
0
0
0
0
0
0
0
0
0
0
0
0
0
0
0
0
0.0021503
0.00208343
0.00136203
0.00378812
0.00447648
0.0070219
0.00328046
0.0375925
0.0812823
0
0
0.00481947
0.00240454
0.0140126
0.0424118
0
0
0
0
0
0
0
0
0.0141141
0.0382926
0.00425535
0.0252962
0
0
0
0.00927811
0
0
0
0
0
0
0
0.00678981
0.000125671
0.000110286
0.000119079
0.00031948
0.000345278
0.000359774
0.000208471
0.000526149
0.000342761
0.000193244
0.000280247
0.000324691
0.000121193
0.000112712
0.00020936
0.000203522
0.000200711
0.000193666
0.000241544
0.000242315
0.000210892
0.000189226
0.000120719
0.000129671
0.00020295
0.000175372
0.000128658
0.000170002
0.000649123
0.000723462
0.000849861
0.000565181
0.000656186
0.000620336
0.00065253
0.000623599
0.00056111
0.000614574
0.000485544
0.000700074
0.00038327
0.000253921
0.000448891
0.000517962
9.82924e-05
0.000232933
0.00010024
0.000163991
6.33004e-05
4.57347e-05
7.73208e-05
2.14291e-05
0.00029113
0.000388253
0.000320446
0.000189977
0.000406527
0.000542118
0.00268695
0.00150203
0.000829224
0.000728071
0.00125086
0.00177584
0.000383389
0.000508523
0.00221617
0.00161515
0.00208337
0.00900426
0.000188145
0.000152539
0.000200218
0.000154876
0.000156217
0.000179452
0.000212887
0.000178029
0.000173528
0.000156852
0.000206654
0.000194467
0.000196917
0.000164556
0.00015432
0.000138106
0.000145719
0.00014426
9.82665e-05
0.000134278
0.000132039
0.000162799
0.000193039
0.000132852
0.000199309
0
0
0
0
0
0
0
0
0.0105558
0
0
0
0
0
0
0
0.00470532
0
0
0
0
0.0617646
0.00392681
0.0226424
0.00272122
0.0017229
0.00103257
0.00429208
0.0012665
0.00219365
0.000750709
0.000695462
0.00116864
0.00107911
0.000594671
0.000349288
0.000841183
0.000289648
0.000927631
0.000540173
0.00022127
0.00106927
0.000233144
6.25291e-05
0.000210375
0.000715171
0.000546653
5.26644e-05
0.000452765
6.54833e-05
0.000221706
0.000704614
0.000408182
0.000489399
0.000613975
0.000487015
0.000469451
0.000273535
0.00052341
0.000385284
0.000416815
0.000346911
0.000278455
0.000245826
0.000172193
0.000108418
2.73439e-05
5.15029e-05
0.000101233
8.24516e-05
0.000197449
0.000130813
0.000209952
0.000133867
0.00018347
0.00013508
0.000181495
0.000167756
0.000155375
0
0
0.0967635
0.00050058
0
0
0
0
0
0
0
0.00424141
0
0.00239486
0.00795783
0.00817859
0.00621152
0
0.014353
0.585587
0
0
0
0.00266405
0
0.00155127
0.00478336
0
0
0
0
0
0
0
0.0253092
0.00773425
0
0
0
0
0
0
0.267564
0
0
0
0
0
0
0
0
0
0
0
0
0
0
0
0
0
0
0
0
0
0
0
0
0
0
0
0
0
0
0
0
0
0
0
0
0
0
0
0.0198494
0
0
0
0
0
0
0
0
0
0
0
0
0
0
0
0
0
0
0
0
0
0
0
0
0
0
0
0
0
0.00370314
0
0
0
0
0.000162463
0.000169745
0.000154309
0.00017044
0.000181675
0.000188753
8.57597e-05
0.00017365
0.000121859
9.02749e-05
0.000119984
0.000177559
0.000143979
0.000159503
0.00025115
0.00113859
0.00067132
0.000471307
0.000426783
0.000460096
0.000326402
0.000262984
0.000291738
0.000775648
0.000970752
0.000886469
0.000406336
0.000318764
0.00170155
0
0
0
0.00758258
0.00366642
0.0018269
0.00755464
0
0
0.0534181
0
0
0
0
0.0045218
0
0
0
0.00196528
0
0.000760575
0
0
0
0.000696486
0.000463524
0.00036565
0.000163764
0.000456745
0.00122482
0.000409545
0.00117864
0.000571802
0.000496892
0.000245538
0.000541359
3.60123e-05
0.00021751
0.000411671
0.000198952
0
0.00386595
0
0
0
0
0
0.000302602
0
0
0.00180042
0
0
0
0
0
0
0
0
0.000242797
0
0
0
0
0
0
0
0
0
0
0
0
0
0
0
0
0
0
0.00135558
0.0239572
0
0
0
0
0
0.062606
0
0
0
0
0
0
0
0
0
0
0
0.000373749
0.0081655
0.00563333
0.0312155
0.0247418
0
0
0
0
0
0.0317004
0
0
0
0
0
0
0
0
0
0
0.0845865
0.00295694
0.105284
0
0
0
0
0
0
0
0
0
0.00128195
0.00241721
0
0
0
0
0
0
5.96003e-05
0.000390537
8.29367e-05
0.000601514
0.000402335
0.000458359
0.000417556
0.000753586
0.000265805
0.000394704
0.000374148
0.000280965
0.00028161
0.000176612
0.000213367
0.000187786
0.000183773
0.000265957
0.000251982
0.000340467
0.000258067
0.000195861
0.000183199
0.000200958
0.00014145
0.000132792
0.000243516
0.000584558
0.00079154
0.000472448
0.000531169
0.000493635
0.000142449
0.000632706
0.000532233
0.000557585
0.00043532
0.000695435
0.000468783
0.000273718
0.000236182
0.000425938
0.000275317
0.000139656
0.000119708
7.01665e-05
8.02713e-05
0.00014654
0.000104771
0.000126277
0.000353259
0.000273332
0.000104554
0.000158466
0.000280162
0.000266992
0.000254571
5.55264e-05
0.000993826
0.000791537
0.000783981
0.00147146
0.000320401
0.000510642
0.000628815
0.00154971
0.00189157
0.00413704
0.00646119
0.109173
0.0124134
0.00841652
0.000148647
0.000175434
0.000228128
0.000135962
0.00017054
0.000182898
0.00021563
0.000168234
0.000148856
0.000183883
0.000174405
0.000124172
0.000144239
0.000159191
0.000167005
0.000117181
0.000108919
0.000118225
0.000117782
0.000156165
0.000142394
0.000174294
0.000159118
0.000140051
0.000169197
0.000149216
0
0
0
0
0
0.00689965
0.0139856
0
0
0
0
0.0055878
0.00631425
0
0
0
0
0
1.96097
0
0
0.0380447
0.00338399
0.00716028
0.006667
0.00392772
0.00122725
0.00332222
0.00107106
0.000798205
0.000962972
0.000578986
0.000881684
0.000281534
0.000767118
0.000723874
0.000626518
0.000520826
0.000347055
0.000572504
0.000580198
0.000347546
0.000397297
0.000151026
0.000119756
0.00059109
0.000420746
6.70894e-05
0.000468598
0.000373379
0.000428138
0.000508672
0.000234236
0.000403367
0.000323945
0.000465916
0.000516728
0.000455209
0.000491232
0.000363667
0.000319544
0.000185983
0.000175787
9.20876e-05
9.4188e-05
9.87983e-05
0.000164181
5.05683e-05
0.000139471
0.000143768
0.000216577
0.000111873
0.000182984
7.63192e-05
0.000116501
0.000141873
0.000176134
0.000162698
0
0
0.016421
0
0
0
0
0.0359556
0
0.00472511
0
0
0
0.00336545
0.0106967
0.0127882
0.0159924
0.00336141
0.0445259
0
0
0
0
0
0
0
0
0
0
0
0
0
0
0
0
0.0202714
0
0
0
0.110991
0
0
0
0
0
0
0
0
0
0
0
0
0
0
0
0
0
0
0.0420668
0
0
0
0
0
0.00361422
0.000894153
0.00465564
0
0
0
0
0
0
0
0
0
0
0
0
0
0
0
0
0
0
0
0
0
0
0
0
0
0
0
0
0
0
0
0
0
0
0
0
0
0
0
0.00574808
0
0.0230815
0
0.0011453
0
0
0.00164607
0.0180706
0
0.000176663
0.000128493
0.000134824
0.000196519
0.000190588
0.000183143
0.000172617
0.000183178
0.000101974
9.7335e-05
0.000119968
0.000155403
0.000175154
0.000173023
1.11632e-05
0.000201268
0.000122378
0.000216021
0.000165912
0.000429268
0.000145383
0.000451557
0.000499762
0.000323224
0.000140704
0.000369518
0.000306003
0.000268857
0.00054157
0.000803182
0.000571385
0.00157914
0.00156124
0
0
0.00478842
0.000693716
0.0142646
0
0
0.111209
0.170124
0
0
0
0
0
0
0
0
0.0187819
0
0
0.0168339
0
0
0
0.000223258
0.000454699
5.90221e-05
0.000692285
0.000298906
0.00112137
0.0012337
0.00029678
0.000482791
0.000711049
0.000234548
0.000372544
0.0005283
0
0
0
0
0
0
0.00740332
0.00170135
0
0
0.00623644
0
0
0
0
0
0
0.281179
0
0
0
0
0
0
0
0
0
0
0.0350902
0
0
0
0
0
0
0
0
0
0
0
0
0
0
0
0
0
0
0
0
0
0
0.0126182
0
0
0
0
0
0
0
0
0
0
0
0.00863799
0.0491621
0.0487257
1.05093
1.20021
0
0
0
0.447599
0
0
0
0
0
0
0
0
0
0
0
0
0
0
0
0
0
0
0
0
0.0166619
0.0468648
0
0
0
0.00467811
0
0
0
0
0
0
0
0
0.000317991
0.000559848
0.000889513
0.000642805
0.000441637
0.000246088
0.000298037
0.000168456
0.000263363
6.81884e-05
8.60452e-05
0.000129777
6.58856e-05
0.000152125
0.000166887
0.000231585
0.000170285
0.000235157
0.000241212
0.000229138
0.000206181
0.000521515
0.000190869
0.000156494
7.92941e-05
7.0248e-05
0.000119831
0.000188035
0.000604838
0.000647954
0.000283585
0.000678317
0.000363302
0.000680423
0.000524391
0.000719045
0.000365435
0.000573451
0.000517714
0.000665898
0.000163327
0.00013977
0.000201048
0.000428436
6.26094e-05
0.000141762
0.000101125
0.000202778
0.00013081
0.000252245
0.000443053
0.000451381
0.000348079
0.000383724
0.00016607
0.000128848
0.000308746
0.000188367
0.00129231
0.00110719
0.000512178
0.00049584
0.000875188
0.000202721
0.00081367
0.000657034
0.00238304
0.00221771
0.000958504
0.00354234
0.00893754
0.00107671
0.000156396
0.000196539
0.0001743
0.000192041
0.000181013
0.000164287
0.000163493
0.000147642
0.000149422
0.000128276
0.000144257
0.000120896
9.06955e-05
0.000113673
0.000107366
0.00010056
0.00012598
0.000140423
0.000137847
0.000131073
0.000155948
0.000139813
0.000128017
0.000125616
0.000135648
0
0
0
0
0
0
0
0
0
0.00639143
0
0
0
0
0
0
0.0148006
0
0
0
0
0.019731
0.0102693
0.00696736
0.0207399
0.003865
0.00253187
0.0014179
0.000445727
0.00110836
0.000684474
0.000991635
0.000373427
0.0011842
0.000318067
0.000307387
0.000256345
6.78397e-05
0.00040064
0.00043217
0.000298057
0.000228234
0.000418626
0.00015005
0.000389778
0.000418152
0.000284574
0.000462912
0.00028447
0.00024027
0.000341952
0.000299539
0.000271848
0.00025558
0.000326949
0.000328153
0.000360111
0.000335713
0.000157024
0.000244183
5.60721e-05
0.000162107
0.000110081
0.000120689
7.56937e-05
0.000193396
0.000131865
0.000168278
9.13962e-05
0.000176945
8.3433e-05
0.000179843
0.000129911
0.00010685
0.000147513
0.000101655
0.000122549
0.000170328
0
0
0
0
0
0
0
0
0
0
0
0
0
0
0
0
0
0.0385268
0
0
0.186725
0
0
0
0.00238467
0
0
0
0
0
0.000507024
0
0
0
0
0
0
0
0
0
0
0
0
0
0
0
0.0132122
0.0139287
0.0142514
0
0
0
0
0.00480298
0
0
0.0060861
0
0
0
0
0.0163965
0
0.00118699
0
0
0
0
0
0
0
0
0
0
0.0188147
0
0
0
0
0
0
0
0
0
0
0
0
0
0
0
0
0
0
0
0
0
0
0
0
0
0
0
0
0
0
0
0
0
0
0
0
0
0
0
0
0
0
0.00355111
0
0
0
0.0162915
0
0
0.000107595
0.000135296
0.000112598
0.00014906
0.000162961
0.000140696
0.000140184
0.000166271
0.000135327
6.7492e-05
7.20601e-05
0.000168568
0.000183316
0.000179823
0.000136626
0.000173635
0.000189378
0.000178477
7.97996e-05
3.90343e-05
0.000245306
0.000117811
0.000160186
0.000102557
0.000735593
0.000294435
0.000411892
0.000470816
0.000525073
0.00085748
0.000904444
0.000579964
0.000493107
0.000176581
0.00016441
0.000920576
0.00128693
0.00851061
0.00675167
0.00379909
0.00171806
0
0
0.144043
0.110968
0
0.0178145
0
0
0
0.00275786
0
0
0
0
0
0.00173971
0
0.00733167
0
0.00871535
0.000608847
0.000494138
0.000310762
0.000561171
0.000983639
0.000383521
0.000294004
0.000358114
0.00044012
0.000360909
0.000426815
0.000661033
0
0
0.000645699
0
0
0.00141381
0.00162824
0
0
0
0
0
0
0
0
0.874852
0.220265
0
0
0.0368038
0
0.0115634
0
0
0
0
0.067613
0
0.00577089
0.10982
0
0
0
0
0
0
0
0
0
0
0
0
0
0
0
0
0
0
0.0193164
0
0
0