/*--------------------------------*- C++ -*----------------------------------*\
  =========                 |
  \\      /  F ield         | OpenFOAM: The Open Source CFD Toolbox
   \\    /   O peration     | Website:  https://openfoam.org
    \\  /    A nd           | Version:  8
     \\/     M anipulation  |
\*---------------------------------------------------------------------------*/
FoamFile
{
    version     2.0;
    format      ascii;
    class       surfaceScalarField;
    location    "3540";
    object      phi;
}
// * * * * * * * * * * * * * * * * * * * * * * * * * * * * * * * * * * * * * //

dimensions      [0 3 -1 0 0 0 0];

internalField   nonuniform List<scalar> 
788991
(
-0.00940665
0.00161813
-0.012118
0.0302386
-0.0511144
0.0414429
0.0327568
-0.0509684
-0.0106018
-0.0114953
-0.0682412
-0.0120444
0.0161775
-0.0374898
-0.0079854
-0.05443
0.0253646
0.0306587
0.0158772
0.0558003
0.0179031
0.0164793
-0.0187358
0.0429633
-0.0371285
0.0492931
-0.0390624
0.0315249
0.0787882
-0.0297433
-0.00630877
0.0123468
0.00424012
0.0443018
-0.014658
-0.0107666
-0.0293348
0.0214648
-0.00900443
-0.0361268
-0.00775422
-0.0156227
-0.0232777
-0.0206682
0.0366699
0.0348002
-0.0346453
-0.0228196
0.0256759
-0.133033
0.108429
0.0609469
0.017006
0.0952947
-0.00346822
-0.0585867
0.0260472
-0.13302
-0.0577215
-0.00247
-0.00851786
-0.0563126
-0.0192363
0.00326188
-0.0179293
0.0204986
0.032445
-0.0617994
-0.00330635
-0.0316599
-0.0369133
0.0179226
0.0382614
-0.130037
-0.0185526
-0.0376459
-0.0174398
-0.0130266
-0.0152864
0.0685401
0.00537512
-0.0107266
0.0279582
-0.0206712
-0.0448629
-0.0266049
0.0478397
-0.00405447
-0.0340188
0.0217467
-0.0918436
0.000565967
-0.00258248
-0.0055392
-0.0134849
-0.00663196
-0.0134328
-0.010997
0.00138083
-0.00158048
-0.047508
0.00105988
0.00859247
0.00227059
0.0022274
-0.000247351
0.0159506
-0.0163989
0.021248
0.0120729
0.0179251
0.00739605
-0.0144911
0.0324055
-0.000184445
-0.0102236
0.00530762
0.0193992
0.0419001
0.0039672
-0.0189207
-0.00315938
-0.0137661
-0.00496094
0.0117042
0.061373
-0.0166166
0.0111466
0.0218835
0.00236333
0.124699
0
0
0
0
0.112511
-0.107777
-0.0681292
0.0436761
-0.0153165
0.06694
-0.0677169
-0.012324
0.0628444
0.0594916
0.0279888
0.0341685
0.0983386
-0.0216621
0.00297475
0.040624
0.0451748
0.00276807
0.0747765
-0.0190306
-0.0457781
0.0333202
0.0253211
0.027899
0.0010291
0.00495821
-0.0343252
0.0255221
0.0308323
0.0034111
-0.000647579
-0.0294641
0.0265091
0.0487974
-0.0137554
0.00599621
-0.0450824
0.032807
0.0461049
0.0126973
0.0128164
0.0264516
0.0371417
0.0407465
0.0182925
0.00939807
-0.0356819
0.0190383
0.0466663
-0.0183618
0.0114605
-0.0525251
0.0117606
0.0564039
0.0279937
0.0265139
0.0693372
0.0260932
0.0549061
-0.0267099
0.00814847
-0.0427959
0.0146701
0.0378619
-0.0260951
0.0379134
0.0289407
0.00469496
0.0186714
0.0163568
0.0131957
-0.0451652
-0.0191061
0.0815517
-0.00343653
0.0268803
0.0526422
0.0178825
0.0249124
-0.0263998
0.0160141
-0.0163362
0.0178174
0.0385836
0.0015822
-0.00917423
0.0492259
0.0239197
-0.000133766
-0.013948
-0.0140924
0.0280676
-0.040714
-0.0251643
-0.0341758
-0.0116791
-0.00650731
0.0225534
-0.00759136
-0.00492533
-0.0114595
0.0152697
-0.00578025
7.69173e-05
-0.0186476
0.0215041
0.000349775
0.0307528
0.0295695
-0.00121733
0.0389589
0.0628933
0.00867865
0.0401167
0.0622115
-0.0187262
0.0345649
0.0498511
-0.00995614
0.0180155
0.0466053
-0.021359
0.00518787
0.0436542
0.0375682
0.0131908
0.0602755
-0.0396323
0.0148428
0.0473691
0.0211409
0.0282051
0.0384137
-0.0294177
0.0351257
0.00132253
0.0601602
0.0186114
0.0498797
0.032247
0.0510039
0.00358467
0.0218866
0.0588546
0.0110299
0.00555037
0.0115064
0.0437169
0.0263321
-0.0753895
-0.0377289
-0.0230184
0.0635464
0.0299631
0.0323128
-0.0211107
-0.0382207
-0.0528815
-0.0119524
-0.0431436
-0.00640817
0.0325562
-0.0380209
-0.058707
-0.0173504
0.0157694
-0.0518087
0.0380396
-0.0305845
0.0107625
-0.0156622
0.0128106
-0.0312208
0.0159892
-0.122937
0
0
0.0211448
0.0343759
0.0379209
0
0
0
0
0
0
0
0
-0.00479942
-0.016934
0.0417452
0.0145678
0.00808035
0.0366706
-0.00527381
-0.00988466
0.0123338
0.00734169
-0.00395757
0.00972961
0.02499
-0.0115963
-0.0157694
0.00745486
-0.01974
-0.00699784
0.051624
0.0352405
0.00903276
-0.00281556
-0.0176842
-0.0458176
-0.0106368
0.00848092
0.0247428
0.00515258
0.0212258
-0.0337362
-0.0173593
0.0138306
-0.0193629
0
0
0
0
0
0
0
0
-0.0265689
0
0.0454586
-0.0885967
-0.0608882
0.00619907
0.0490237
-0.0663951
0.0190382
0.0554974
0.0604739
0.0115635
0.0365563
0.0379867
0.0331848
-0.0184058
0.0935329
-0.0244859
-0.0225842
0.0500403
0.0269806
-0.0309762
0.00751076
-0.039196
-0.0319376
0.00661604
0.0398714
-0.0343846
0.011198
-0.0418309
-0.0391883
0.00197275
-0.02901
-0.0497421
0.0109717
0.0247691
-0.0377881
0.0128541
-0.0671422
0.024508
0.0496731
0.0216239
0.00290778
-0.00669825
0.0116021
-0.027659
0.019004
0.0141482
0.0474424
0.0291521
-0.0185279
-0.0154483
0.0188606
-0.0207226
-0.0320314
0.0297057
-0.0271332
0.0126033
0.055586
-0.0311968
0.0272491
-0.0272395
-0.010195
0.0205267
-0.035043
-0.0110001
-0.00335547
-0.0518247
-0.0786231
-0.0202598
0.0667436
-0.0175946
-0.0104261
0.00130374
-0.0168511
-0.00852299
0.0380058
0.0248228
-0.0253852
-0.109464
0.0258652
0.0216305
-0.0337655
-0.00999974
-0.00664358
-0.0274328
0.00402073
0.00183192
0.00380171
0.021567
-0.00225529
-0.0232596
0.0202419
0.0212338
-0.038463
-0.00218884
-0.00675109
-0.0156276
-0.0102893
-0.0083395
0.0154767
-0.00998315
0.000946428
-0.0286836
0.031419
-0.00307593
0.0465156
0.0492333
0.018153
0.0443237
0.0766627
-0.01015
0.0345125
0.0534333
-0.021195
0.0239586
0.0329742
0.0257912
0.0129749
0.04486
-0.0391029
0.00122617
0.0512134
-0.0582614
0.00694472
0.0526668
-0.0427678
0.0394057
0.0701476
0.0389674
0.0577089
0.078248
0.0560128
0.0659759
0.0219914
-0.0131245
0.0678176
0.0298714
-0.0485812
0.0213456
0.020081
-0.034932
0.0450501
0.0109954
-0.00979797
-0.0251483
0.0225795
0.0127189
-0.00458688
0.00149958
0.0113971
0.00161197
0.025164
0.0106189
0.000516835
0.008361
-0.00612906
-0.0144098
0.00640931
0.0194634
-0.0182095
-0.00352887
-0.00283297
-0.024496
0.205459
0.0164313
-0.0678755
-0.0191202
0.0036048
0.0763765
-0.00516906
0.110728
-0.00585961
-0.0128407
0.0424673
-0.030723
-0.0516916
0.0271219
0.0280307
0.0164068
-0.0236927
-0.0290278
0.00566183
0.00350178
-0.0135251
0.000274422
-0.00173949
-0.0241839
0.0234037
-0.00515217
-0.0326085
0.0238352
-0.0143799
0
0
-0.0180801
0
-0.085317
-0.0550208
0.0135156
-0.0885914
0
-7.12304e-05
-9.48524e-05
0
0
0
0
0
0
0
0
0
0
0
0.000328166
0.0227538
-0.0127359
0.0135208
0.0142266
0.0295665
-0.0238559
-0.00437956
-0.00676469
-0.0617748
0.00921688
0.0079194
-0.00197825
-0.000599378
-0.0221644
-0.0118444
0.00588582
-0.00288544
-0.00274562
0.00683324
-0.0138111
0.00502006
0.0237474
0.000522936
0.00704014
0.00177859
-0.00982328
-0.0185073
-0.00246705
0.0194882
-0.0176167
0.014704
0.0272676
8.54942e-05
0
2.89267e-05
0
0
1.07571e-05
4.24768e-05
-0.000103182
1.05168e-06
8.0444e-05
0
-7.22208e-05
0
0
0
0
6.75368e-05
-2.3602e-05
0
-4.56338e-06
0
0
0
0
0.0305919
0
-0.0282328
0.0287207
0.134107
0.00925588
-0.0557184
0.051076
0.00285184
-0.0657651
0.010222
0.0248454
0.0273364
-0.0635713
0.0192039
0.0338775
-0.030205
-0.011798
0.0266391
0.0619414
0.034012
-0.0260832
0.0154084
0.0370237
-0.00917147
-0.00277311
0.0103377
-0.0269114
0.00934495
0.0293208
-0.0245234
0.0168876
-0.0378669
-0.0204164
0.00717306
0.0305364
-0.0203116
-0.00249536
-0.03315
-0.0153616
0.00474311
-0.0175426
-0.0376406
0.0100469
0.0366528
-0.0315187
0.0253806
-0.00811594
-0.0144184
-0.0256498
-0.0157306
0.00943043
0.0165198
0.00787694
-0.0660029
0.00548368
0.0319051
-0.0614648
0.00496133
0.0127466
0.0657663
-0.0435459
0.0175356
0.0337343
-0.00819853
0.0544326
0.05539
-0.0185926
-0.0384282
0.0404987
-0.0642546
0.0134621
-0.0316729
-0.0426394
-0.00811217
0.0323013
-0.0063736
-0.0133475
0.0387674
0.00976382
-0.0391125
0.0248656
0.0219522
0.00913747
-0.00298021
0.0105905
-0.00115772
-0.0136129
-0.0243795
0.0221074
0.00566457
0.00874293
0.00455541
0.00501202
-0.00128135
-0.0294144
0.0131095
0.0126472
0.0346185
0.00609593
-0.00465827
0.0252697
0.00155112
0.005693
-0.00668646
0.00417791
-0.0268322
-0.0296052
0.0149866
-0.0289843
-0.0259383
0.00354586
0.0232101
-0.0268386
0.00450935
0.00734267
0.011979
-0.00700053
-0.00479889
0.02762
0.0019589
-0.0081176
0.061494
0.0534271
0.010325
0.0365354
0.0739119
0.0153605
0.0199372
0.0414669
-0.0309469
0.018951
0.0444349
-0.0474785
0.0163775
0.0518933
-0.0586959
0.0119163
0.0649378
-0.0623416
0.0116001
0.0688543
-0.0563046
0.0159172
0.0587856
0.0538451
0.0298817
0.0751535
-0.0499553
0.0190067
0.0814756
-0.0395789
0.0260676
0.0273483
0.0055057
0.0499158
0.00944667
0.0323504
0.0505342
-0.0151123
0.00781057
0.0368985
0.0173589
-0.00932239
0.00343134
0.0284812
-0.0133103
0.0155848
0.0225448
-0.00838059
0.00782903
0.0254669
0.0227297
0.0469229
0.0355548
-0.000836074
0.037695
0.0290803
0.0215853
0.0411728
0.0164721
0.0150747
0.0266326
0.00537915
0.0051109
0.0153514
0.00297449
-0.0888299
-0.0388062
-0.0340399
-0.0638848
-0.0250951
0.0223366
-0.027592
-0.0119585
0.0239891
-0.0221063
0.00941141
-0.0308807
-0.000635726
-0.0040102
-0.024065
0.0163122
-0.0349047
-0.0183615
0.0135771
-0.00255895
-0.0247729
-0.0047588
-0.00879146
0.00759075
0.00204396
-0.0180642
0.0111206
0
0
0
-0.0298212
0
0
-0.00671544
0.00596465
-0.0264033
0
0
0
0
0
0
0
0
0
0
0
0
0
0
0
0
0
0
0
0
0
0
0
0
-2.13562e-05
0
-4.30436e-06
0
-7.13796e-06
-1.20202e-05
4.95418e-06
0
2.66954e-06
-1.03053e-05
5.30176e-06
0
3.04438e-06
0
0
0
0
0
0
0
0
0
0
0
0
0
0
0
0
0
0.015461
-0.0429264
0.0086756
0.00719966
-0.0460854
0.0153092
0.0208509
0.0128558
0.00495754
-0.00575878
-0.016061
-0.00925652
0.0420752
0.0129229
-0.0355689
0.0159796
-0.00273833
-0.0305764
0.00875116
0.032544
-0.0165739
-0.0198558
-0.0292884
-0.00792469
-7.00214e-05
0.0325567
0.011014
-0.0220263
-0.00742202
-0.0239168
-0.0241386
-0.0234825
0.0146428
0
0
0
0
0
0
0
0
0
0
0
0
0
0
0
0
0
0
0
0
0
0
0
0
0
0
0
0
0
0
0
0
0
0
0
0
0
0
0
0.000186083
0.00024588
0
0
0
-0.0109435
0
-0.0385112
0.00665635
-0.0149132
0.037352
-0.0522196
0.0238525
-0.041053
-0.0335085
-0.00662975
0.0124645
0.0130912
0.00926199
-0.0416328
-0.0150621
-0.00117275
0.0112027
0.0252005
-0.00344697
-0.0030111
0.00206765
-0.0346885
0.0228067
-0.0129311
0.0453095
-0.0121322
0
0
0
-8.03255e-06
0
0
0
0
0
0
0
0
0
0
0
0
0
0
0
0
0
0
-0.0251191
0.0150821
0.0310471
-0.0146684
0.0105055
0.0334917
-0.0134847
-0.0104057
-0.0338233
-0.000514349
0.0247723
-0.0205674
0.0214542
0.0263087
-0.00601421
0.00606507
0.00614915
-0.00886778
0.0837928
-0.0116757
-0.0537345
-0.0115172
-0.0181424
-0.0463692
0.00387455
0.0119789
-0.00818407
-0.0114728
-0.022216
-0.0303876
-0.0155517
0.0398231
-0.026248
-0.0389441
0.0107404
0.0465811
-0.0531554
-0.00422916
-0.0288475
-0.0163524
0.0115104
-0.00208292
-0.00375635
-0.00509691
0.00429438
-0.0327339
-0.0282128
0.00572764
-0.0331143
0.0615782
0.0356412
-0.037827
0.0371541
-0.0104639
-0.0466005
-0.0122798
0.0234198
-0.0556635
0.0755344
-0.0500477
0.0190614
-0.0441779
-0.0289974
0.0309102
-0.0366495
-0.0160682
0.0377101
-0.00528962
-0.000670197
0.0433535
-0.0259303
-0.00415264
0.0214347
-0.00694554
0.0145964
0.0354014
0.0161367
-0.0117258
-0.0165312
-0.00184465
0.0156986
0.0143321
0.00988176
-0.0309269
0.020998
-0.00974363
0.00538125
-0.0201556
0.000969546
0.0174447
0.017018
-0.0149386
0.0147677
0.0246311
-0.00756709
0.00917257
0.000412381
-0.0124607
-0.00262029
-0.0344948
0.0254596
-0.00690879
-0.0363269
0.0793903
0.0425256
-0.0861163
0.110774
0.0601311
-0.0274915
0.00849575
0.0728688
-0.0963518
-0.00502429
0.0963948
0.0968089
0.00117739
0.0766837
-0.080309
0.0116852
0.07827
0.0770117
0.00854249
0.0891358
-0.0646722
0.0153835
0.0706554
0.0391772
0.022965
0.0686594
-0.0446675
0.017687
0.0703055
0.0330448
0.0250964
0.0613457
0.0348633
0.04064
0.0326372
0.0208632
0.0702806
0.0364935
-0.025426
0.0276687
0.00732996
0.00647989
0.0311305
0.0264093
0.0206933
0.0240066
0.0234003
0.00900197
0.0401408
0.0608055
0.00521594
0.0540667
0.0312821
0.0155864
0.021758
0.0118792
-0.0113567
0.0208261
0.0066582
-0.0204814
0.0298808
0.00410643
-0.0188273
0.0548446
0.00858234
0.0289645
0.0943172
0.0133743
0.00404965
-0.0351516
0.0514508
-0.0547452
0.107253
-0.0480246
0.0420989
0.0857026
0.0502774
0.0995363
0.0451891
-0.0487782
0.0756391
-0.0521219
-0.0344024
0.0399466
-0.035954
0.0732567
-0.0397778
0.0418646
0.0386558
-0.0222094
0.0526863
-0.0222902
0.0470197
0.0474852
0.0145166
-0.0188287
-0.00841836
0.0218938
0.035682
-0.000894945
-0.00211702
-0.00166757
0.010766
0.0113207
0.0161265
-0.0139457
0.00644135
0.00223698
0.00826062
0.0187224
0.00890353
-0.0200816
0.00506902
0.00959404
-0.0246374
-0.0161288
-0.0221626
0.0257665
-0.00716117
0.0470824
-0.0261386
0.0277953
0.0472435
0.00755674
-0.0113994
-0.0393259
0.0226901
0.00913666
-0.00863362
0.00723971
-0.013467
-0.00797599
-0.000435128
0.00865261
-0.0293247
-0.0227963
-0.00363094
0.0332271
-0.0322443
-0.0426753
0.0251903
-0.00599799
0.00234269
-0.0290702
0.0107091
-0.0134456
-0.0226743
0.00730442
0.0273772
0
-0.000101381
1.60508e-06
-0.00388974
0
0
-0.00664978
0
0
0
0
0
0
0
0
0
4.32588e-05
0.000109736
0
0
0
-0.00010002
0
0
0
0
0
0
0
0
0
-6.47704e-05
-8.33624e-05
0
0
0
0
0
0
0
0
0
0
0
0
-7.05125e-06
0
0
0
0
0
-7.96152e-05
0
0
0
0
-8.74619e-05
0
0
0
-0.000168848
0
-0.000259304
-0.000119583
8.31971e-05
0
-7.94222e-05
-6.25728e-05
-0.000126412
-0.000166315
-2.93368e-05
-2.12151e-05
-5.54864e-05
-5.83012e-05
-9.63739e-05
0
-9.86855e-05
-0.000167578
0
-6.89867e-06
0
0
0
0
0
0
0
0
0
0
0
0
0
0
0
0
-0.000128491
0
5.91625e-05
0
-6.9515e-05
0
-0.00164055
0.0206476
0.00630573
0.000831459
0.00329516
-0.0386768
0.061878
0.0152037
-0.05093
-0.0196504
-0.00219824
-0.0354914
0.00257655
0.0602548
0.0164595
0.00565766
0.00919238
-0.0190863
0.0149877
0.0172296
0.0222521
-0.0195695
-0.0306198
0.0198708
0.00731251
-0.0159463
0.00374722
-0.0321542
-0.013503
0.00449145
-0.0185816
-0.0181918
0.0135739
0
0
0
0.000161316
5.99283e-05
9.4991e-05
0
0
0
0
0
0
0.000177508
0
0
0
0
0
0
0
0
0
0
0
0
0
0
0
0
0
-5.98063e-05
0
0
6.6009e-05
7.60987e-05
5.14684e-05
0
-6.2656e-05
0
-0.0243197
0
0.0132617
-0.0176728
0.0104756
-0.00764666
-0.0216431
-0.000936096
0.00856764
0.000107367
-0.0281303
0.00941578
-0.00921821
-0.0417269
-0.0114059
-0.0162053
-0.00317059
0.0129489
0.0133888
-0.0103259
0.0131006
0.00214829
0.0469246
-0.0113865
0.0505867
-0.00879594
0.00423868
2.52947e-05
0
0
-3.13614e-07
0
2.56382e-05
0
-2.05576e-06
0
7.16231e-07
0
9.2129e-07
-1.65933e-06
0
0
0
0
0
0
1.06133e-05
0
0
0
0
0
0
0
0
0
0
0
0
0
0
0
7.65974e-05
0
-9.28099e-05
-0.0146508
0.0127704
-0.0332372
-0.0108717
0.000588105
-0.0266552
-0.0449199
-0.00292654
-0.0188857
-0.0553046
-0.00557052
0.0207143
-0.0179542
0.0238025
-0.0339367
-0.00513794
0.0109558
-0.0551011
-0.026632
0.0309024
-0.0238136
0.00904822
0.00473786
0.0585219
-0.0427808
-0.0149245
0.0729169
-0.0400548
-0.0541639
0.0468396
-0.0575239
-0.00669376
0
0.0182679
0.030159
-0.0314381
0.0233589
0.028516
0.00135673
-0.00995083
-0.0203561
0
0
0
0
-0.00046845
0
-0.000235236
-0.0649934
-0.0996283
-0.0242855
-0.0295635
-0.0684927
-0.0171536
-0.0174167
-0.0445192
-0.00905003
-0.0645623
-0.0441173
-0.0129324
-0.0531352
-0.0813145
0.0491605
-0.054439
-0.101625
-0.0490234
-0.0682119
-0.0473711
-0.0334171
-0.0650411
-0.0343783
0.0421944
-0.0392462
-0.0155143
-0.0266828
-0.0132255
-0.0104147
-0.00945311
0.00392085
0.000963132
-0.00747875
0.0130154
-0.00589094
-0.00834396
0.00806774
0.00418023
-0.0167804
0.0259443
-0.0133193
0.0011692
0.0218035
0.0205541
-0.0445973
-0.0200304
-0.0418855
-0.0621474
-0.0333063
0.0483331
0.00897324
0.00384622
0.0508543
-0.0156607
0.0144712
0.00800945
0.000975579
0.00937586
0.0454508
-0.0111159
-0.00671467
0.00160264
-0.000244118
-0.000346098
0.0202448
0.00308756
-0.00356992
0.0282468
-0.00195034
0.00551685
-0.0181634
-0.00998706
0.0165497
0.0166492
-0.0429089
-0.0260422
-0.0424316
0.0152181
0.0167886
0.00809075
-0.00993516
0.0118639
-0.00291703
0.0334586
0.0078639
0.442006
0.035309
0.306647
-0.307332
-0.112013
-0.0164351
0.173064
-0.00528912
0.138989
-0.1479
-0.0025056
0.105294
-0.070044
0.0171011
0.074822
0.0588708
0.0217447
0.0775392
-0.0411941
0.0203235
0.0516439
0.0384207
0.0194374
0.0366595
-0.0187201
0.0312921
0.0670556
0.0196477
0.0427706
0.0674067
-0.0215851
0.0379983
0.0583373
0.0288504
0.0417414
0.0275668
0.0124302
0.0760273
0.0414988
-0.00386849
0.0278979
0.026884
-0.00689444
0.0409256
0.0391599
0.0192119
0.0196987
0.0464538
0.0169891
0.0180117
0.021701
-0.00957867
0.0189067
0.00731086
-0.00452387
0.0197809
0.0144856
-0.020233
0.0117227
-0.00337919
0.0315528
0.0182967
-0.0117909
-0.0271021
0.079846
-0.00139024
-0.019613
0.0421398
0.0476698
0.0832189
0.0883951
0.0447281
0.0434921
0.080748
0.041506
-0.0344062
0.0721361
0.0441469
-0.0193912
0.0563922
0.0434876
-0.00961818
0.028846
0.031756
-0.00496628
-0.00431146
0.0154617
0.0117352
-0.0115815
0.00887748
0.0347451
-0.0116824
0.0186092
-0.0353331
-0.012427
0.0306447
0.039875
-0.0166774
0.00969575
0.0241199
0.0277181
-0.0100494
0.0277622
0.0158539
0.0254733
-0.037483
0.00532841
0.0315708
0.0177911
0.0399723
0.0292484
-0.0203831
-0.00726176
-0.0103592
-0.0103589
-0.0207412
0.000103398
0.0199757
-0.0199397
-0.0240657
0.0447401
0.00947622
0.0217479
0.0201542
0.0057848
-0.00876932
-0.0208556
-0.0427906
0.000122507
0.0179095
-0.00338304
-0.0197403
0.00805037
-0.0423129
0
0
-0.0247791
0
-0.120241
-0.0203264
0.0177165
0.00915973
-0.0493004
0.0497383
-0.0378539
-0.00636319
-0.0153276
-0.0258578
0
0
0
0
0
0
5.69903e-05
5.61692e-05
2.93164e-05
0
0
0
-5.28351e-05
0
0.000140786
0
-6.49965e-05
0
0
0
0
0
0
0
0
-0.000195957
-2.82066e-05
0
0
0
0
-0.000243235
0
0
0
0
0
0
0
0
-2.31474e-06
-5.05278e-06
0
0
0
0
-6.66054e-05
-2.7922e-05
0
0
0
-0.000136393
-3.02586e-05
0
0
0
0
6.45215e-05
0
0
-0.000142358
0
0
0
0
0
0
0
0
-0.000159811
0
8.99924e-05
-6.3228e-05
0
6.53123e-06
0
-5.65972e-05
0
0
0
0
0
0
0
0
2.74093e-06
0
0
0
0
0.029475
0.0026219
0.0155673
-0.0134328
0.0272425
-0.0149121
-0.0576264
-0.0117096
-0.0109052
0.0780472
-0.007332
-0.0144912
0.00433095
-0.00292713
0.0406473
0.0135542
0.0466383
0.0308202
0.000717331
0.00246618
0.01079
-0.0263566
-0.0171075
0.0277284
0.0109095
-0.0140493
-0.0139208
-0.006612
-0.00330406
0.0180338
-0.0277648
-0.0206481
0.0124749
-4.1925e-05
0
1.31862e-06
0
-4.01459e-05
-1.80129e-05
0
0
0
0
0
0
0
0.000189026
-0.000106404
0
0
0
0
0
0
0
0
0
0
0
0
0
0
0
-0.000103946
0
0
0
0
0
0
0
0
0.0401323
-0.04497
0.00730537
-0.0202496
-0.0102061
-0.0223058
0.000957536
-0.00754694
0.00351527
-0.027821
0.0222141
-0.00169808
0.0256934
-0.020064
-0.016393
-0.0462724
0.0213158
-0.0213723
0.0186298
0.000739732
-0.00237846
-0.0104621
0.022419
0.0206691
0.0173404
0.00642911
-0.0204212
0
0
0
0
0
0
0
0
0
0
2.34807e-06
0
0
0
0
0
4.92132e-05
0
6.10752e-06
0.000169291
5.53601e-05
0
0
-8.09063e-05
0
0
0
-1.83086e-06
0
1.39149e-05
0
-3.85441e-05
-1.8377e-05
0
0
0
0
0
0
0
0
0
0
0
0
-0.0178535
0.0125046
-0.0137482
-0.0197925
-0.0132362
0.0299063
0.000877159
3.93996e-06
-0.010937
-0.0104569
0.0146963
0.0229716
-0.0251597
0.0158354
0.00758006
0.0269302
-0.00916093
0.0110165
-0.0591163
-0.0381724
0.00791758
0
0.00278541
0.0105833
-0.00776246
-0.0226402
0.0162422
0.0637111
0.0378689
-0.0132905
0.0251531
-0.00866767
0.0324754
0.0572544
-0.00254045
-0.000233489
0
-0.0237969
0
0.00811306
0
0
0
0
0
0
0
0
0
0
0
0
-0.0240548
-0.0363438
0.0149522
-0.0413361
0.0437203
-0.0135761
-0.00469096
0.0291819
0.0446702
0.0491917
-0.0415345
0.0304452
-0.0377947
0.0260773
0.0465411
0.0498804
0.0174895
0.0396463
0.0313222
-0.046821
0.0301977
0.0114568
0.0268619
-0.0478321
0.0466073
0.0415609
0.0117488
0.0350191
-0.0465871
0.046704
-0.0531509
0.0299024
-0.0500386
0.0021092
0.0480331
0.0418232
0.0153537
0.0109245
-0.00183797
0.0122765
0.0193432
-0.0109585
0.0173437
0.0301316
0.0146028
-0.052288
-0.0925889
-0.0138935
-0.0223043
-0.0477589
-0.00615448
-0.0270837
-0.0434214
0.0228509
-0.0539359
-0.0295218
0.00127386
-0.0462486
-0.0780846
0.0535699
-0.0601338
-0.106864
0.040221
-0.0651342
-0.039703
0.0405711
-0.0361091
-0.0246865
0.0195005
-0.0158423
-0.0158049
0.000328813
-0.00692359
-0.0152051
-0.00696498
0.00191394
-0.0150681
-0.0113194
0.00923752
-0.00710583
-0.0123699
-0.00293262
0.0213279
-0.0181321
-0.00522685
0.0133516
-0.00964056
-0.00751762
-0.0555916
-0.00322086
0.00767383
-0.0228909
-0.0140546
-0.024927
-0.0697379
-0.0214982
-0.0400016
0.0329276
0.0167503
-0.0629888
0.00489675
-0.0196424
-0.0844375
-0.0132355
-0.00827648
0.0317109
0.0424228
-0.0277418
0.0296461
-0.0484024
-0.0218492
0.0181312
0.0479514
-0.0187363
0.0269929
0.0504929
-0.0263935
0.0331415
0.0540852
-0.031155
0.0219804
0.0472093
-0.0250892
0.0125412
0.0388086
0.0180009
-0.0222004
0.0090171
0.037376
0.00506784
-0.0172025
-0.0214239
-0.0172068
-0.00439286
0.000258586
-0.0317189
-0.011683
0.0200587
-0.0324894
0.00946865
-0.0148862
0.0118835
0.0122157
0.000459559
-0.0121776
0.01882
-0.0200291
-0.0328415
-0.000906326
0
0
0
0
-0.133557
0
0
-0.0150543
0
-0.051022
-0.018503
-0.00574679
0.00741736
0.0124691
-0.0141031
-0.0200133
0.0282346
-0.0269502
0.00463537
0.0115078
0.0168922
-0.00333264
0.0138819
0.0203118
-0.00633115
0.0139474
0.0147666
0.00893309
0.0326167
0.0430191
0.0221488
0.0332808
0.0477929
0.000299664
0.0417558
0.0350772
-0.02827
0.0400653
0.072764
-0.0189331
0.055169
0.0510054
0.00696371
0.0410212
0.0305183
0.0181988
0.0483922
0.013162
0.00678592
0.0724264
0.0408307
-0.0128991
0.0331988
0.036855
-0.000650664
0.0195798
0.021427
-0.018333
0.0278333
0.018835
0.0136057
0.0185815
0.00493099
0.0208948
0.020329
-0.0215184
-0.0336094
0.0649755
0.00409779
-0.0192205
0.033307
0.0533987
0.0737632
0.0697781
0.0357976
0.0372256
0.0811734
0.0451131
-0.033265
0.0765682
0.047
-0.0230278
0.0502989
0.043411
-0.0144295
0.0222981
0.0291737
0.00783208
-0.00100802
0.0129513
0.0114494
-0.0143203
0.00417819
-0.0314208
-0.00642292
0.0237213
-0.047788
-0.00455748
0.0353537
0.0455385
-0.00764989
0.0484224
-0.047819
-0.0095846
0.0393311
-0.0408122
-0.0416622
0.0307267
0.00945993
-0.0382798
-0.0225348
-0.0124225
-0.0172058
-0.0100516
0.0349271
-0.10987
-0.0487575
-0.0226396
0.0169388
-0.135647
0.0494683
-0.0303362
-0.0843847
0.00200126
-0.0228144
-0.0393549
0
-0.00334534
0
0.00129336
-0.0212403
-0.0578287
0
0
-5.86041e-05
0
0.0297504
0.016192
-0.071391
-0.0510673
-0.0649284
0
-0.0110291
0
0
0
0
0
0
9.90635e-05
0.000135318
-4.06848e-05
9.36184e-05
0
7.96765e-05
4.18011e-07
4.38065e-05
6.12503e-07
0
0
0
0
0
0
0
0
0
0
0
0
-0.000110126
0
-0.000290693
0
0
0
0
0
0
0
0
0
0
0.00319152
0.00191597
0
0
0
0
0
0
-3.87515e-05
0
0
0
0
0
0
0
0
0
0
0
0
-2.84667e-05
-1.78503e-05
-0.000149901
0
-0.000114338
0
-0.000264205
0
0
0
0
0
0
0
0
0
0
0
0
0
0
0
0
0
0
0
0
0
0
0
0
0
0
0
0
0.000294539
0
-0.000580998
0
0
0
-0.00343643
0
-0.00328093
0.0431959
0.0455358
-0.020864
0.0523348
0.0145434
-0.0395462
0.0121725
-0.0271819
0.0490903
-0.0934132
0.0220564
0.0438806
-0.00460377
0.00985347
-0.00155783
-0.0226455
-0.0479994
0.0404825
0.0533791
-0.0236729
0.00856258
-0.00699677
-0.00295836
0.00598045
0.0198365
-0.00302815
-0.00139684
0.0108084
0.0153645
-0.0163245
-0.0197296
-0.00365725
-0.00871117
-0.0162439
-0.00597744
0.012657
-0.0172366
3.91983e-06
0
0
0
0
0
0
0
0
0.000297105
0
0
0
0
0
0
0
0
0
0
0.00616124
-0.0392444
-0.00589535
-0.0109537
0
0
0
0
0
0
0
0
0
0
0
0
0
0
0
-0.0124213
0
-0.0285596
0.0174083
0.0251022
0.00107586
-0.0177935
-0.0102854
-0.0446476
-0.0433495
0.0207053
0.0247728
-0.00247969
0.00673335
-0.00094826
0.00874537
0.0394795
0.00797459
-0.0271821
-0.0412395
-0.0286321
-0.0118684
-0.0312503
0.0303445
-0.0020345
-0.0362651
0
0
2.2885e-05
-5.14242e-06
0
0
0
0
0
0
0
0
0
0
0
0
0
0
0
0
0
0
0
0
0
0.000157546
0
0
-8.36022e-05
4.94852e-05
0
0
0
0
0.000104732
0
-4.54391e-06
0
0
0
0
0
0
4.99533e-05
-1.91727e-05
0
0
0
0
0
0
0
0
0
-0.0190348
0.0136034
-0.01957
-0.0191093
-0.00475464
-0.00629664
0.00530487
-0.0163159
0.0204352
-0.00349813
-0.0157538
0.00828738
-0.010106
-0.0339366
-0.0230801
0
0.0232009
-0.00419733
0.00219193
0
0
0
-8.46747e-05
0
3.67138e-05
-0.0643105
-0.00730398
0
-0.0177508
0
-0.00271848
0.00487825
-0.0186663
0.00608698
0.0873407
-0.00573349
-0.0201111
0
0
0
0
0
0
0
-4.78551e-05
0
0
0
0
0
0
0
0
0
0
0.0269106
0.044025
0.0144699
0.017292
0.0394108
0.0388474
0.0162569
0.0395186
-0.0400616
-0.0432437
0.0490593
-0.0434221
0.000816315
0.0395829
-0.0337664
-0.0050846
0.044717
0.0555249
-0.00271238
0.0458605
-0.0520287
0.0260178
0.0486395
-0.0352579
0.0193803
0.00868877
0.00543944
0.0090768
0.0115056
0.0102246
0.00173032
0.029129
-0.023766
-0.0584805
-0.0800457
0.00840338
-0.0281644
-0.0503033
0.0013764
-0.0401538
-0.0689657
-0.0289722
-0.051681
-0.0469162
-0.0066888
-0.0635175
-0.0928087
0.0696065
0.0208589
-0.0719248
-0.0751941
0.00907455
-0.0330137
-0.0405088
-0.022231
-0.0536127
-0.0674085
0.0376458
-0.0189977
-0.0237437
7.97622e-05
-0.0100175
-0.0279718
-0.00897323
-0.00308025
-0.0165565
-0.0151673
-0.00396403
-0.0131966
0.00299055
-0.0171285
-0.010748
-0.0155269
-0.0157445
0.00583469
-0.0108967
0.00846678
-0.022555
0.0253972
0.0116103
-0.0285129
-0.0237631
-0.0391954
-0.0353306
0.0026866
-0.0205391
-0.0254524
-0.0302692
-0.0690004
-0.00945343
0.00509556
0.0762296
-0.0310319
-0.015049
0.00859586
-0.011724
0.0260141
-0.0159972
-0.0156039
0.0291655
-0.0406978
-0.0229503
0.0225293
-0.0446692
-0.0302446
0.0504385
0.0277122
-0.0151804
0.0194989
0.0496695
-0.00851239
0.0360419
-0.0535298
-0.030471
0.0413684
0.0510028
-0.0431739
0.00913758
-0.0439306
-0.0350269
-0.00735877
0.0339086
-0.0306268
0.00485663
-0.0403763
-0.0216237
0.0356586
-0.0230715
0.0518105
-0.0114163
0.00598069
0.0225888
0.0385149
-0.0134373
-0.00192518
0.00321447
0.0135991
-0.0194684
-0.0213393
0.0173422
0.000626763
-0.0146182
-0.0015373
-0.0245757
0
-0.025254
0
0
0
0
0
-0.000109676
0
4.16769e-05
0
-1.99318e-05
-2.42163e-05
0
0
0
0.00650603
7.85772e-06
6.00637e-06
-0.207302
-0.0360494
0.0076229
0.0148155
0.00372302
-0.0148129
-0.00377438
0.0177517
-0.0109237
0.0103892
0.035174
0.0108883
0.00694363
-0.0207124
0.0233603
0.0262264
0.0151587
-0.0231872
0.0255838
0.0252108
0.00370301
0.0515511
0.0129657
-0.0249872
0.0351208
0.0318926
0.0092693
0.0271036
0.0694957
-0.0110081
0.0499688
0.0446709
-0.0343232
0.0264381
0.0104534
-0.0199321
0.0453699
0.0318845
-0.0195713
0.0394897
0.0379253
0.0122406
0.0258095
0.0306751
-0.0114311
0.0153465
0.042002
-0.019661
0.0231029
0.041977
-0.0245121
0.0474217
0.00680323
-0.0165002
0.055528
0.0271776
-0.0256779
0.029803
0.0225523
0.0648374
0.0489582
-0.0283085
0.0781707
0.0400664
-0.026358
0.0742684
0.0542721
-0.023591
0.0513161
0.0450629
0.0196255
0.0216184
0.0286465
-0.00962061
-0.00201464
0.0109303
-0.00178678
-0.0139629
0.0126555
0.0269749
-0.0114278
0.0174698
0.0442301
-0.000276125
0.0357441
0.0501891
0.0014795
0.0398783
-0.0485724
-0.00691918
0.0435537
-0.045916
-0.0444314
0.0379183
-0.00985591
0
0
0
-0.0173288
0
0.018878
-0.00039806
-0.0293731
-0.00492809
-0.0646022
-0.0155997
0.050026
0
0
0
0
0
0
0
0
0
-0.015937
0
0
0
0
0
-0.0214491
-1.94232e-07
0
0
0
0
0
0
0
0
0
0
0
0
7.08742e-05
1.71171e-05
1.67597e-06
0
5.08021e-05
0
0
0
0
0
0
0
0
0
0
0
0
0
0
0
0
0
0.00161417
-0.00126709
-0.000115379
0
0
0
0
0
0
0
0
-0.0104278
0
0.041199
0
0.0256563
0
0
1.09829e-05
9.75525e-05
7.82255e-06
0
-3.55082e-05
0
0
0
0
0
0
0
0
0
2.08622e-05
8.92879e-06
5.59928e-05
0
1.72228e-06
0
-0.000312379
9.60289e-05
-0.000106629
0
-0.000263991
0
0
0
0
1.47899e-05
0
-7.9554e-05
0
-4.10934e-05
-4.20365e-05
0
0
0
8.29399e-06
-4.15237e-05
0
0
-0.000115248
0
-3.6202e-05
0
0
0
0
0
2.94208e-05
0
0
0
0
0
-1.05609e-05
0
1.11663e-05
0
0
0
-0.00760013
0
0
0
0
0
0
0
0
0.0419875
0.0293938
0.0768239
-0.0183996
0.0366725
-0.00335068
-0.0285368
0.0446235
0.051534
0.03679
0.0112749
-0.0324548
0.0276125
0.0198853
-0.0323498
0.0366132
0.0429284
0.000179345
-0.00590456
-0.0386792
0.000851142
0.00956098
0.0428417
0.023043
0.00316828
-0.00527232
0.0074805
0.026946
-0.00259409
-0.0037696
0.00843549
-0.00823504
-0.0142843
0.0113276
-0.0149969
-0.011057
-0.0195041
0.000711677
0.0141635
-0.0219311
0
0
0
0
0
0
0
0
0
0
0
0.022455
-0.0339593
0.0139421
-0.0221032
0
0
0
0
0
0
0
-0.00273144
0
0
0
0
-2.60748e-06
0
5.11152e-06
0
2.49823e-06
0
0
0
0
0
0
0.0243646
-0.0167517
0.017665
0.0421901
-0.0121016
-0.0210332
0.0246635
0.00079871
-0.00848133
0.0131497
0.00827689
-0.0389083
-0.00510829
-0.0295519
0.00404841
-0.013906
-0.00863568
-0.00235209
-0.0100788
0.0224737
0.0464321
0.0215957
0.0331227
0.0286863
2.48775e-06
0
0
6.73549e-06
7.33383e-05
-1.88034e-05
9.55585e-05
8.77653e-05
-2.2282e-05
2.48747e-05
5.57905e-06
0.000112462
-1.39731e-05
0
1.95795e-05
0
0
0.000126385
-0.000128879
0
0
0
7.41289e-05
0.00040635
3.30044e-05
0
6.97027e-05
1.07639e-05
-5.23875e-05
0
0
-2.28256e-05
0
-5.79918e-05
0
0
6.99731e-05
-7.08823e-05
0
0
0
0
0
0
0
0
0
0
0
3.0833e-05
0
0
0
0
0
0
0
0
0
0
0
0
0
0
0
0
0.0114074
0.0117862
-0.00366588
-0.0118346
-0.0315013
-0.002252
0.00401499
-0.0125226
-0.00403326
-0.00403544
-0.0374441
-0.0395862
0.0137521
0
-0.0105281
0
-4.03804e-05
-4.99175e-05
3.45051e-05
0.00221325
-0.0235107
-0.00953482
0
-2.55736e-05
0
0
0
0
0
0
0
-0.0223926
0
0
-0.000334436
0.0174688
-0.0055801
-0.0218439
0.03231
-0.00874293
0
0
0
-8.10977e-05
0
8.83861e-05
0
0
0
0
0
0
0
0
0
-7.99541e-05
0
5.39574e-05
0.00767898
0.0361292
-0.0114815
-0.0109959
0.0519441
-0.0136606
0.0265194
0.0507423
0.0499767
0.0325939
0.0631345
0.0457805
0.00173292
0.0500821
0.0714818
-0.0117881
0.0156641
-0.00533017
-0.0395352
0.00490578
-0.00502156
0.0391887
0.0466861
-0.00227187
0.0459486
0.0430134
0.0197467
0.0456528
0.0359248
0.0155859
0.0527267
0.0261421
0.0126371
0.0107592
-0.0188072
0.0186487
0.0298091
-0.029322
0.00548258
0.0353097
0.0163935
-0.0695708
-0.0568158
0.0234501
-0.0551919
-0.0584441
0.00970053
-0.0401557
-0.0670727
0.0123663
-0.0518102
-0.0515803
-0.00472231
-0.0652618
-0.0910563
0.0373157
-0.0795558
-0.0716256
0.00333165
-0.0375405
-0.0380537
0.022474
-0.0537918
-0.0640547
-0.0352604
-0.0141396
-0.0222842
0.00534474
-0.00648514
-0.0206524
0.00809438
-0.000558719
-0.0122566
-0.00398676
-0.00658715
0.0121652
0.00866851
-0.046757
0.00359007
-0.063186
0.0111226
-0.0112821
0.0461597
-0.0257511
-0.0557438
-0.0877676
0.0249497
0.000689129