/*--------------------------------*- C++ -*----------------------------------*\
  =========                 |
  \\      /  F ield         | OpenFOAM: The Open Source CFD Toolbox
   \\    /   O peration     | Website:  https://openfoam.org
    \\  /    A nd           | Version:  8
     \\/     M anipulation  |
\*---------------------------------------------------------------------------*/
FoamFile
{
    version     2.0;
    format      ascii;
    class       volScalarField;
    location    "19200";
    object      nut;
}
// * * * * * * * * * * * * * * * * * * * * * * * * * * * * * * * * * * * * * //

dimensions      [0 2 -1 0 0 0 0];

internalField   nonuniform List<scalar> 
526318
(
5.29237e-05
0.000155248
0.000132643
0.000200425
0.000204153
0.00019415
0.000327919
0.000374348
0.000327235
0.000408636
0.000232674
0.000235187
0.000213946
0.000217927
0.000251004
0.000207191
0.000242538
0.000165679
0.000290355
0.000151089
0.00021999
0.000200089
0.000284228
0.000322634
0.000350052
0.000255336
0.000180974
0.000426364
0.000355383
8.67701e-05
8.69861e-05
0.000111277
0.000118796
0.000248355
0.000246502
0.000314567
0.000258686
0.000188032
0.000166487
0.00030201
0.000250764
0.000301487
0.0003952
0.000292021
0.000179568
0.00029269
8.51177e-05
0.000460484
0.000404398
0.000197968
0.000331979
0.000311932
0.000244
0.000333522
0.000252921
0.000299233
0.000400298
0.000179422
0.000280349
0.000239175
0.000247225
0.000252587
0.000339084
0.000197976
0.000153577
0.000224497
0.000332233
0.000303419
0.000431441
0.000396629
0.000324929
0.000361187
0.000418945
0.000438279
0.000479961
0.000477463
0.00047068
0.00047606
0.000509312
0.000531186
0.000471781
0.000505039
0.000547223
0.000534728
0.000531576
0.000508162
0.000447325
0.000570292
0.000441624
0.000460422
0.000492407
0.000489724
0.000299354
0.000232843
0.000387725
0.000370236
0.000418074
0.000323877
0.000255678
0.000356976
0.000239568
0.000299226
0.000256685
0.000279954
0.000206468
0.000246553
0.000173664
0.000274555
0.00017827
0.000332249
0.000352495
0.000215711
0.000343534
0.000387385
0.000304268
0.000141331
0.000185455
3.97577e-05
4.13833e-05
0.000172117
0.000241422
0.000197469
0.000275983
0.000134911
0.000144703
0.000116584
0.000185006
9.26927e-05
0.000103885
0.000112508
0.000160173
0.000101597
6.00838e-05
6.90016e-05
5.83614e-05
8.27689e-05
0.000115806
3.84015e-05
5.95043e-05
6.1506e-05
4.39287e-05
6.28393e-05
9.47007e-05
3.73224e-05
7.47473e-05
3.11751e-05
8.886e-05
6.88978e-05
0.000100231
0.000149557
2.74429e-05
0.000155238
0.000146844
0.000129598
0.000110502
0.000176495
0.000113844
0.000191095
0.000119085
0.000131558
0.000205382
0.000116666
0.000275569
0.000313382
0.000353122
0.000277109
0.000322513
0.000457098
0.000459916
0.00054207
0.000519967
0.000563735
0.000566255
0.000568527
0.000545664
0.000435845
0.000479875
0.000446269
0.000392235
0.000380477
0.000385053
0.000308341
0.000323276
0.000189158
0.000325752
0.000243493
0.000141378
6.14535e-05
0.000148964
9.72405e-05
9.65559e-05
4.63884e-05
0.000114812
9.22983e-05
5.86452e-05
7.94068e-05
6.12259e-05
7.5258e-05
7.74444e-05
0.00014202
6.51842e-05
0.000184994
0.000249798
0.000190912
0.000187068
0.000217002
0.000205039
0.000238409
0.000199747
0.000241712
0.000212724
0.000378784
0.000272513
0.000273156
0.000191174
0.000279629
0.000132862
0.000301635
0.000253897
0.000539297
7.10407e-05
0.000192637
0.000483756
0.000431511
0.000376502
0.000424265
0.00033576
0.000276316
0.000387563
0.000285519
0.000206977
0.000136952
0.00041362
0.000226393
0.000145674
0.000322862
0.000195189
0.000255171
0.000285422
0.000182153
0.000257497
0.000143127
0.000137965
0.000233991
0.000347133
0.000410254
0.000362969
0.000435086
0.000427346
0.000460744
0.000443668
0.00046288
0.000432319
0.00040031
0.000428351
0.000295271
0.000394619
0.000224411
0.000283532
0.000185182
0.000204955
3.9165e-05
0.000122734
0.00025238
0.000130851
0.000191379
0.000323826
0.000291828
0.000116794
9.37555e-05
0.000312468
0.000119605
0.000336292
0.000351396
0.000235101
0.000360308
0.000253412
0.000119319
0.00024138
0.000120117
0.000104276
0.000121897
0.000150416
8.63888e-05
7.84102e-05
4.742e-05
5.8629e-05
3.91202e-05
1.78916e-05
2.32707e-05
5.25791e-05
2.08938e-05
3.03394e-05
0.000201271
0.000228566
0.000256378
0.000212951
0.000300684
0.000254702
0.000296842
0.000236464
0.000249877
0.000235057
0.00022984
0.00028191
0.000223232
5.58291e-05
3.56432e-05
0.000121062
6.23876e-05
9.42824e-05
8.4973e-05
0.000190116
0.000103773
0.000192548
0.000113533
0.0003111
0.000314519
0.000267738
0.000288131
0.00041196
0.000369403
0.000293583
0.000365013
0.000505011
0.000487349
0.00052828
0.000537129
0.000529226
0.00053002
0.000416481
0.000430481
0.000291264
0.000253183
0.000329842
0.000254453
0.000374837
0.00039437
0.00036406
0.000329908
0.000405857
0.000180227
9.59637e-05
0.000197586
9.35653e-05
0.000135815
0.000155735
7.06815e-05
7.21176e-05
6.66351e-05
5.78067e-05
5.42138e-05
4.63475e-05
1.47047e-05
6.89898e-05
9.1852e-05
0.000106854
9.35146e-05
0.000216304
0.000165057
0.000136388
9.72438e-05
0.000179076
0.000219702
0.000182501
0.000210115
0.000252008
0.000209812
0.000329726
0.00035074
0.000338942
0.000315391
0.000303115
0.000320665
0.0003662
0.000345177
0.00037469
0.000337035
0.000278846
0.000180679
0.000209931
0.000112743
4.92731e-05
0.000363768
0.000295649
0.000350564
0.000333632
0.000178036
0.000457785
0.000293333
0.000424628
0.000362603
0.000425012
0.000426146
0.000477439
0.000357217
0.000500083
0.000281397
0.000416282
9.7157e-05
0.000398332
0.000361632
0.000163548
0.0003271
0.000211423
2.53888e-05
3.04903e-05
1.28736e-05
2.99262e-05
0
0.000230545
0.000441078
0.000344479
0.000356823
4.68408e-05
0.000178883
0.00023302
0.00015489
0.000124594
0.000251085
0.000320217
0.000338457
0.000377835
0.000394222
0.000420875
0.000414195
0.00039453
0.000353609
0.000386931
0.000354725
0.000290702
0.000221336
0.00027121
0.000203718
0.000184068
0.000140615
0.000144054
0
9.14249e-12
1.07663e-10
0
0
0
0
8.42323e-11
1.095e-10
1.47142e-10
3.72909e-05
0
0
0
1.40379e-05
0
2.01539e-05
8.99473e-05
1.88312e-05
0.000168196
0.000263448
0.000151413
0.000323845
0.000184557
9.67704e-05
0.000314751
0.000317431
0.000103311
0.000317909
0.000137087
0.00020461
0.000324031
0.00028796
0.000219263
0.000213696
9.9138e-05
6.78603e-05
5.55935e-05
9.69236e-05
0.000107839
8.6122e-05
4.76301e-05
3.58826e-05
6.68007e-05
4.40632e-05
3.8461e-05
4.08707e-05
4.73759e-05
4.35986e-05
4.59548e-05
0.000201537
0.000221475
0.000223377
0.000271137
0.000275777
0.00035545
0.000299657
0.000275228
0.000221873
0.000208432
0.000172986
4.92496e-05
6.39763e-05
5.94095e-05
0.000127738
9.31067e-05
0.000139269
8.35994e-05
0.000126029
0.000365238
0.00033888
0.00035994
0.00039826
0.000410564
0.000408572
0.000434432
0.000397217
0.000340416
0.000351267
0.000347973
0.000364625
0.000322997
0.000359176
0.000417893
0.000445016
0.000364719
0.000451719
0.000394481
0.000430058
0.000488177
0.000455374
0.000458351
0.000491355
0.00033448
0.000352005
0.000200542
6.72714e-05
7.32598e-05
0.000216214
0.000316024
0.000242647
0.000431899
0.000362258
0.000355621
0.000307755
0.000367169
0.000179809
7.44761e-05
0.000262821
8.78582e-05
0.000112354
7.81141e-05
7.03253e-05
6.66067e-05
0.000133998
5.02718e-05
4.86743e-05
3.57232e-05
6.72223e-05
8.50505e-05
1.92791e-05
0.000138752
0.000140787
0.000175796
0.000190122
0.000168753
0.000200148
0.000195761
0.000247772
0.000203397
0.000202314
0.000277854
0.000251117
0.000360572
0.000320937
0.000314923
0.000317857
0.000345357
0.000336306
0.000391533
0.000344595
0.000464187
0.000400297
0.00040034
0.000258339
0.000150228
0.000314604
0.000167599
0.000181136
0.000259107
0.000125306
0.000425293
0.000154269
0.000398104
0.000237273
0.000369031
0.00035637
0.000411807
0.000401244
0.000467791
0.00042226
0.000364611
0.000485345
0.000289439
0.00042418
4.82914e-05
0.000232508
0.000140166
0.000104411
0.000206923
0.000261268
8.49108e-06
0
1.69424e-06
0
0.000200616
0
0.000287498
0.000167636
0.000271615
0.000112595
0
0
0
0
0
0
0
0
0
0
1.7511e-09
0
0
6.30597e-10
7.03576e-10
1.85314e-09
0
0
0
0
0
0
0
0
0
0
0
0
0
0
0.00020058
0.000174531
0.000120837
0.000107749
0.000231978
0.000307058
0.000329561
0.000332576
0.000363427
0.000358118
0.000352366
0.00034105
0.000299833
0.000334285
0.000252369
0.000285594
0.000255044
0.000224512
0.000184198
0.000194179
0.000132993
0.000139714
0
0
0
0
0
0
0
0
0
0
0
0
0
0
0
0
0
0
0
0
0
0
0
0
7.69101e-06
4.35613e-05
8.09786e-05
7.29439e-05
7.02747e-05
0.0001245
0.000261238
0.000180937
0.000272368
0.000204874
0.000153782
0.000269946
0.000163644
0.000286759
0.000261044
0.000157476
0.000248938
0.000214394
0.00021514
0.000221987
0.000130549
9.77188e-05
1.35151e-05
2.83095e-05
6.39459e-10
0
0
0
0
0
0
0
0
0
0
0
0
0
0
0
0
9.98881e-05
0.000104192
7.97419e-05
7.75477e-05
6.73686e-05
6.5697e-05
5.65974e-05
7.57977e-05
4.95482e-05
8.93568e-05
9.51267e-05
5.76348e-05
0.000205717
0.000246388
0.000244093
0.000183324
0.000315084
0.000283517
0.000312724
0.000376479
0.000162636
0.000193842
0.000236148
0.000184858
6.58629e-05
0.000102027
0.0001245
8.12193e-05
5.76096e-05
0.000154013
0.000167063
0.00011347
0.000435534
0.0004136
0.000496986
0.000433691
0.000461034
0.000430551
0.00047803
0.000483037
0.000517086
0.000477432
0.000374048
0.00041438
0.000453069
0.000461546
0.000354395
0.000399628
0.000368565
0.000345844
0.000384668
0.000349008
0.000263114
0.00033772
0.00038228
0.000354862
0.000451011
0.000413602
0.000398127
0.000451788
0.000386523
0.000252005
0.000278389
9.19513e-05
0.000120363
0.000194889
0.000277108
0.000133823
0.000334088
0.000266
0.000367726
0.000415035
0.000345142
0.000315598
0.000175888
0.000355691
0.000168997
6.0195e-05
7.50415e-05
0.000115336
0.000107136
8.66426e-05
5.28655e-05
3.96996e-05
6.4206e-05
3.52044e-05
4.29857e-05
6.61112e-05
0.000101246
0.000113375
6.57655e-05
0.000128016
0.000114056
0.000207627
0.000165409
0.000181415
0.000255956
0.00025741
0.000130883
0.000249959
0.000278945
0.00031682
0.000329992
0.000327478
0.000304322
0.000304382
0.000338376
0.000340172
0.000389057
0.000395411
0.00042372
0.000427332
0.000491104
0.000448669
0.000536361
0.00050986
0.000519441
0.000586421
0.00059804
0.000526105
0.000529098
0.000567598
0.000587667
0.000625547
0.00066533
0.000738625
0.000687761
0.000733311
0.000765701
0.000836889
0.000837953
0.000778279
0.000838038
0.000874455
0.000861482
0.000844454
0.00084144
0.000820986
0.000811774
0.00078304
0.000787013
0.000731988
0.000734994
0.00069609
0.000679951
0.000596625
0.000637359
0.000635678
0.000578323
0.000512857
0.000553889
0.000505465
0.000539555
0.000226072
0.00033713
0.000284222
0.000219014
8.41711e-05
0.000191435
0.000164785
0.000196898
0.000384631
0.000199889
0.000353911
0.000246022
0.000352859
0.000251122
0.000291802
0.000286612
0.000356758
0.000343058
0.00037205
0.000301269
0.00039598
0.000395537
0.000331789
0.000144439
4.2538e-05
0.000199343
0.00014132
0.000198393
5.27827e-05
0
0
0
0
0
0
0.000140016
0.000220372
0.000195718
0.000267018
0
0
0
0
2.95587e-09
0
0
0
0
0
0
0
0
0
0
0
0
0
0
0
0
2.73565e-10
0
2.38244e-10
0
0
0
0
9.07398e-10
0
8.86879e-10
2.54456e-09
0
6.71574e-10
1.00363e-09
1.51984e-09
0
0
0
0
0
0
0
0
0
0
0
0
0
0
0
0
0
0
0
0
0.000166616
0.000192934
9.39975e-05
9.65447e-05
0.000275952
0.000261196
0.000295869
0.000293783
0.000294387
0.00030916
0.000300757
0.000313573
0.000274095
0.000298491
0.000168996
0.000154299
0.000113093
0.000259815
0.000279704
0.000223482
0.00023994
0.000197691
0
0
1.02922e-09
7.58335e-10
0
0
0
0
1.82055e-09
0
0
0
0
0
0
0
0
0
0
2.28925e-06
0.000112285
0.000121702
1.25712e-06
0.000159681
0.000163739
5.76851e-05
0.000167823
0.000282101
0.000260363
0.000209091
0.000205144
0.000236411
0.000202015
0.000217642
0.000199689
0.000224679
0.000236113
0.000187779
0.000213786
0.000176389
0.000118254
8.45738e-05
5.53438e-05
3.12376e-05
0
0
0
0
0
1.87056e-11
0
0
1.02774e-11
0
0
0
0
0
0
0
0
0
0
0
0
0
0
0
5.95735e-07
6.59019e-07
8.42507e-05
0.000126404
6.99824e-05
0.000106413
6.77889e-05
0.000101281
0.000101876
7.14722e-05
6.29358e-05
0.000108176
7.46128e-05
0.000121573
0.000178382
0.000245752
0.00024863
0.000248719
0.000291907
0.000317196
0.000366718
0.000342908
0.000192037
0.000158154
0.00018258
0.00022476
8.78638e-05
0.000136225
0.000105485
0.000149095
0.000151255
0.000122523
0.00013151
0.000146129
0.000541733
0.000499985
0.000500149
0.000446726
0.000448195
0.00045511
0.000519622
0.000508288
0.000648055
0.000713501
0.000627483
0.000561136
0.000808015
0.000748897
0.000861322
0.000866051
0.000836178
0.000831681
0.000745496
0.000761396
0.000687009
0.000646187
0.000606183
0.000556268
0.000431333
0.000491345
0.000448262
0.000456019
0.000502505
0.000540567
0.000439823
0.000416143
0.000483179
0.000492782
0.000356035
0.000411597
0.000372119
0.000316535
0.000387728
0.0003664
0.000368127
0.000369346
0.000215058
0.000401015
0.000290033
0.000351791
0.000251303
0.0003962
0.000331676
0.000146428
0.000224367
0.000239357
0.000202915
0.000319792
0.00034913
0.000249806
0.000282131
0.000369124
0.000369812
0.000364718
0.000355584
0.000311516
0.000128886
0.000277804
9.92999e-05
9.5022e-05
0.000107102
8.22348e-05
5.70351e-05
5.88224e-05
4.72296e-05
4.70706e-05
5.32088e-05
6.36989e-05
3.11586e-06
4.03468e-05
9.27797e-05
0.000131224
0.000162
0.000184577
0.000231955
0.000251857
0.000160205
9.90419e-05
0.000285982
0.000200516
0.000233311
0.000264008
0.000284311
0.000295065
0.000323615
0.000339765
0.000340704
0.000300624
0.000328168
0.000383161
0.000426792
0.000380859
0.000429471
0.000477083
0.000487374
0.000529328
0.000511348
0.000634578
0.000549039
0.000559005
0.000671144
0.000697056
0.000733791
0.000747679
0.000808814
0.00079535
0.000825689
0.000800748
0.000792149
0.000719529
0.000703104
0.000600893
0.000506844
0.000573537
0.000468812
0.000441147
0.00039035
0.000385918
0.000376828
0.000368552
0.000342016
0.000319682
0.00032819
0.000281546
0.000323071
0.000283969
0.000302692
0.000219178
0.000201266
0.000312339
0.000218401
0.000256544
6.34844e-05
0.000224175
0.000288774
0.000303891
0.000346716
0.000152179
0.000354809
0.000153404
0.000299876
0.000329782
5.24878e-05
0.000110185
0.000123416
6.40395e-05
0.000206991
0.000122501
0.00010127
0.000258529
0.000225764
9.69876e-05
0.000315472
0.000189689
6.94568e-05
8.07487e-05
8.24403e-05
0.000213792
0
0
0
0
0
0
2.1596e-05
0
7.86595e-05
0
0
4.04338e-09
0
0
0
0
0
0
0
0
1.73199e-11
0
0
0
0
0
0
0
0
0
0
0
0
0
0
0
0
0
0
0
0
0
0
0
0
0
0
0
0
0
0
0
0
0
0.000198189
0.000159057
7.6869e-05
0.000101785
0.000250937
0.00022066
0.000266393
0.000254134
0.000269731
0.000255455
0.000276973
0.000283364
0.00027941
0.000270269
0.000180519
0.000176904
0.000127144
0.000197506
0.000231412
0.000262661
0.000245633
0.000219127
6.13241e-10
0
5.25533e-11
0
0
0
0
0
0
0
0
0
0
0
0
0
0
0
0
4.58957e-05
0.000117804
6.65596e-05
0.00011364
0.000136099
0.000136593
0.000248073
0.000174378
0.000317977
0.000301819
0.000171694
0.000167139
0.000299015
0.000155547
0.000250095
0.000270147
0.000147554
0.000159217
0.000260113
0.000161854
0.000200216
5.64237e-05
6.46753e-05
8.78255e-05
0.000139522
0
0
0
0
0
0
0
0
0
0
0
0
0
0
0
0
0
0
0
0
0
0
4.80732e-07
0
0
0
0
0
0
0
0
8.96013e-05
0.000150009
0.00012046
8.18647e-05
9.2494e-05
9.64371e-05
9.2399e-05
0.00010085
0.000193953
0.00018599
0.00013432
0.000108037
0.000100626
0.000116068
0.00011867
0.000201275
0.000239728
0.000256084
0.000277167
0.000323587
0.000319725
0.000342127
0.000341684
0.000160306
0.000152528
0.000196008
0.000191998
0.000133048
0.000128821
0.000132399
0.000144331
0.000143567
0.00015001
0.000158328
0.000135434
0.000247471
0.00029981
0.000315956
0.000297644
0.000382149
0.00028654
0.000454373
0.000346471
0.000329916
0.000442218
0.000532368
0.000449217
0.000333255
0.00046887
0.000261885
0.000293947
0.00026094
0.000247558
0.000266805
0.000265243
0.000248291
0.000239953
0.000249392
0.000241522
0.000305439
0.00024351
0.000215039
0.00024677
0.00027403
0.000439276
0.000393451
0.000344352
0.000384525
0.000319515
0.00029593
0.000531979
0.000519979
0.000480415
0.000473765
0.00048523
0.000479976
0.000508657
0.000516939
0.000699331
0.000756578
0.000614019
0.000631183
0.000820035
0.000834025
0.000874554
0.000852137
0.000842245
0.000775722
0.00074154
0.000669209
0.000652687
0.000589895
0.00057986
0.00054024
0.000490654
0.000447996
0.000518701
0.000497251
0.000449866
0.000439548
0.000396521
0.000410389
0.000388053
0.000468284
0.00050479
0.000386286
0.000263186
0.000326864
0.000359777
0.000275954
0.000243475
0.000249564
0.000233421
0.000224273
0.000250679
0.000254793
0.000266285
0.000293426
0.000288626
0.000309507
0.000417791
0.00041769
0.000468049
0.000536107
0.000496313
0.000456294
0.000640663
0.000396269
0.000187437
0.00040798
0.000401708
0.000210936
0.000227256
0.000355855
0.000186116
0.000262034
0.000325646
0.00032574
0.000277078
0.000372111
0.000234551
0.000264772
0.000355976
0.000360082
0.000260097
0.000321976
0.000336497
0.000331887
0.000245793
9.88774e-05
8.87652e-05
7.70562e-05
0.000100241
7.46663e-05
9.4241e-05
9.99247e-05
8.66822e-05
5.15224e-05
1.28173e-05
7.24373e-05
7.96336e-05
0.000122642
8.87669e-05
9.16283e-05
5.91068e-05
0.000182206
0.000158975
0.000127191
0.000211411
0.000140834
0.000262045
0.000298087
0.000239457
0.000181715
0.000276717
0.000263104
0.000327884
0.00032454
0.00039418
0.000353494
0.000308347
0.000420793
0.000370551
0.000380276
0.000439342
0.00041475
0.000494805
0.000483895
0.000591796
0.000513739
0.000514671
0.000619743
0.000689782
0.000690664
0.000737323
0.000751558
0.000768851
0.000775146
0.000786375
0.000793175
0.000750936
0.000671899
0.000768273
0.000547037
0.000652418
0.000526676
0.000445119
0.000377057
0.000422982
0.000321349
0.000340373
0.000278023
0.00023025
0.000109502
0.000221763
0.000359179
0.000157611
0.000195463
0.000340645
0.00034039
0.000112277
0.00026723
0.000193353
0.000115058
0.000314084
0.000406917
0.000126833
0.000114523
0.000163495
0.00017602
0.000160408
0.000127586
0.000331456
0.00016167
0.000189303
0.000169524
0.000103432
0.00010192
4.63903e-05
0.000127377
1.8827e-05
0.000194598
0.000167428
0.000407911
0.000275002
0.000227669
0
0
0
0
0
0
0
0
6.87163e-05
0
0
0
0
0
0
0
0
2.73628e-07
0
0
0
0
0
0
0
0
0
0
0
0
8.28324e-10
0
0
0
0
2.4175e-09
0
0
0
0
0
0
0
0
0
0
0
0
0
0
0
0
0
0
0
2.14441e-09
0
0
0
0
2.35482e-09
0.000549347
0.000661166
0.000554808
0.000382374
0.000517051
0.000690652
0.000146669
0.000111081
7.30418e-05
0.000147149
0.000212616
0.000163507
0.000229386
0.000237791
0.000238723
0.000226273
0.000247078
0.000226229
0.000233246
0.000268582
0.000243514
0.000211857
0.000220225
0.000266871
0.000230829
0
0
0
0
0
0
0
0
0
0
0
0
0
0.000270669
0.000188778
0.000330256
0
0
0
0
5.54082e-05
9.28726e-05
9.72928e-05
0.000141715
0.000161845
0.000143193
0.000135449
0.000186763
0.00034983
0.000309229
0.000123132
6.55679e-05
0.000117835
0.000131403
0.000108861
0.000277507
0.000124732
0.000283156
0.000240753
0.000145397
0.00017178
0.000142829
0.000154165
0
2.75375e-10
0
0
0
0
0
0
0
0
0
0
0
0
0
0
0
0
0
0
0
0
0
0
0
0
0
0
0
0
0
0
0
0
0
0
0
0.000175792
0.000212991
0.000214398
0.000104549
0.000151046
0.000111286
0.000119341
0.000114765
0.000104864
0.000102377
9.89303e-05
0.000175312
0.000128067
9.36681e-05
0.000105202
0.000123579
9.41867e-05
0.000229396
0.000242516
0.000276533
0.000268385
0.000310713
0.000313296
0.000324514
0.000331751
0.000177485
0.000164236
0.000206472
0.000208256
0.000116317
0.000114089
0.000139026
0.00015458
0.000150232
0.000193045
0.000154192
0.000209188
0.000343233
0.000289006
0.000378553
0.000312026
0.000350054
0.000482959
0.000454112
0.000462822
0.000255163
0.000305892
0.000274609
0.000253657
0.000247076
0.000292796
0.000298793
0.000320757
0.000390027
0.000439988
0.000373766
0.00033658
0.000292461
0.000328935
0.000561329
0.000527906
0.000546663
0.000491467
0.0004969
0.000523474
0.000570865
0.000501784
0.000738506
0.000800519
0.000785466
0.000660008
0.000692827
0.000833064
0.000891279
0.0008413
0.0008286
0.000891982
0.000803178
0.00077356
0.000699168
0.000667172
0.000620825
0.000572169
0.000615497
0.000521578
0.000556438
0.00043592
0.000456224
0.000481941
0.000465476
0.000380345
0.000363959
0.000486095
0.000446998
0.000403454
0.000429377
0.000521148
0.000458087
0.000356531
0.000397027
0.000376894
0.000373575
0.000249897
0.000273644
0.000273116
0.000237755
0.000242358
0.000243607
0.000249441
0.000281686
0.000288393
0.000344956
0.000352274
0.000347424
0.0003942
0.000440777
0.000419608
0.000567557
0.000536363
0.000689146
0.000575051
0.000267671
0.000289755
0.000300304
0.000652198
0.000555823
0.000774737
0.000399342
0.000445834
0.000158775
0.000156173
0.000366849
0.000153557
0.00028286
0.000251044
0.000349851
0.000298692
0.000272857
0.000416384
0.000281759
0.000423889
0.000324455
0.000251162
0.000204845
0.000290806
0.000147817
0.00020083
0.000154289
0.000125367
9.42385e-05
7.04486e-05
2.84893e-05
0.000106052
4.69344e-05
0.000145245
4.08908e-05
3.42683e-05
7.9927e-05
7.78881e-05
2.27066e-05
1.77561e-05
0.000141306
9.65859e-05
0.000127743
0.000164823
0.000170111
0.000153637
0.000261025
0.000199144
0.000171794
3.69305e-05
0.00026333
0.000302458
0.000272615
0.000278724
0.00030225
0.000323636
0.000361773
0.000395881
0.000315696
0.000377057
0.000377967
0.000424601
0.000442132
0.000478898
0.000417229
0.000540728
0.000535291
0.000551617
0.000635156
0.000630265
0.000701608
0.000758158
0.000698128
0.000740465
0.000771203
0.000752093
0.000757869
0.000771913
0.000726909
0.000724214
0.000650903
0.00061825
0.0005196
0.000394988
0.000510726
0.000318258
0.000389638
0.000309796
0.000193674
0.000351197
0.000139113
0.000119989
0.000222264
0.000304126
0.000268487
0.000513748
0.000549457
0.000146449
0.000247448
0.000165854
0.000307847
5.97218e-05
0.000334243
0.000411939
0.000170764
1.92073e-05
3.41235e-05
0.000418127
0.000382256
0.000276274
0.000141884
1.03343e-05
0.000109845
1.14291e-05
2.54514e-05
2.43412e-05
0.000100797
0.000129319
7.49541e-05
0.000226989
0.000147612
0.000301036
0.000171724
0.000150977
0
0
0
0
0
0
3.19986e-07
0
0
3.55357e-05
0
0
0
0
0
2.22826e-07
0
0
0
0
1.233e-09
0
0
0
0
0
0
0
4.66421e-10
1.1545e-09
0
0
1.13119e-09
1.27085e-09
0
0
0
0
2.8601e-09
0
3.71762e-09
0
0
0
0
0
0
0
0
0
0
0
0
0
0
0
0
0
1.34533e-09
0
0
0
0
0
0
0
0
0.000423959
0.000401898
0.000553428
0.000712265
0.000795276
0.000830677
0.00081473
0.000671926
0.000563523
0.000831397
0.000147814
0.000199261
0.000170059
9.46614e-05
0.000217277
0.000170803
0.000152129
0.00020265
0.000187992
0.000216067
0.000233161
0.000199298
0.000239972
0.000217529
0.000221812
0.000234366
0.000218178
0
0
0
0
0
0
0
0.000295125
0.000334572
0.000220115
0
0
0
0
0.000182624
0.000187629
2.77221e-05
0
4.22779e-05
0.000106404
5.32822e-05
0.000123495
8.25719e-05
0.000153645
0.000110715
0.000129793
0.000174324
0.000126834
0.000209058
0.000343417
0.000143074
0.000295339
0.000212405
0.000102597
0.000246606
0.000133846
0.000160685
0.000206924
0.000162835
0.000207828
0.000249001
0
0
2.60613e-10
0
0
0
0
4.94454e-10
0
0
0
0
0
0
0
0
0
0
0
0
0
0
0
0
0
0
0
0
0
0
0
5.97429e-09
0
0
0
0
0
0
0
0
0
0
0
0
0
0.000178097
0.000232467
0.000187862
0.000145542
0.000189691
0.00011212
0.000133866
0.000120452
9.73306e-05
7.51774e-05
0.0001127
7.99654e-05
0.000106615
0.000117676
0.000118264
9.06595e-05
0.000115614
9.65524e-05
0.000117264
0.000233665
0.000224617
0.000271809
0.000284266
0.00032916
0.000326196
0.000363837
0.000341096
0.000182564
0.00021465
0.0002237
0.000221402
0.000122848
0.000106915
0.000122814
0.000154842
0.000181193
0.000179465
0.000219231
0.000195583
7.13257e-05
0.000276174
0.000488085
0.000333766
0.000613846
0.000648397
0.000955657
0.000432584
0.00080244
0.000642208
0.000614055
0.000305423
0.00104527
0.000665968
0.000312409
0.000267053
0.000307284
0.000272348
0.000301122
0.000298691
0.000306469
0.000136021
0.000380713
0.000406555
0.00034793
0.000374114
0.000342034
0.000316817
0.00057025
0.000576225
0.000584344
0.000492808
0.000554837
0.000495056
0.000569027
0.000482954
0.000780729
0.000798977
0.000708839
0.000700787
0.000887875
0.000830478
0.00083029
0.000857699
0.000735896
0.000801218
0.000647879
0.000696185
0.000648771
0.000599775
0.000596293
0.000547909
0.000492094
0.00052586
0.00042381
0.000415658
0.000447522
0.000453856
0.000373062
0.000388052
0.000507199
0.000508837
0.000456108
0.000450001
0.000522965
0.000542071
0.000414915
0.00038963
0.000402776
0.000438256
0.000304709
0.00029773
0.000271696
0.000257029
0.000261894
0.000276077
0.000312336
0.000340637
0.000334129
0.000352875
0.000344148
0.000414129
0.000390713
0.000488694
0.00048346
0.000496788
0.000565085
0.000648075
0.000581246
0.000657546
0.000675962
0.000361556
0.000385825
0.000803514
0.00086201
0.00045098
0.00033789
0.000194898
0.000300896
0.000206365
0.000205131
0.000273708
0.000258261
0.000279174
0.000347984
0.00027125
0.000438514
0.000381142
0.00025767
0.000185685
0.000356922
0.000141908
0.000249385
0.000137408
0.000137381
0.000182035
4.98017e-05
8.61352e-05
0.000129114
2.87742e-05
0.000146036
0.000115495
0.000188044
9.47546e-05
7.03757e-05
6.23815e-05
4.60882e-05
7.51386e-05
7.22025e-05
7.20136e-05
8.661e-05
0.000125015
0.000150695
0.000266401
0.000130887
0.000204744
0.00020655
0.000241344
0.000232361
0.000317963
0.000307562
0.00022213
0.000328722
0.000291056
0.000383964
0.000334195
0.000363348
0.000319222
0.00035442
0.00044995
0.000371492
0.000467251
0.000459805
0.00052999
0.000544447
0.000596858
0.000602721
0.000674075
0.000658535
0.000730624
0.000720656
0.000737937
0.000729828
0.000714661
0.000742472
0.00073284
0.000688259
0.000676687
0.000595989
0.000589006
0.000480615
0.000365426
0.000471859
0.00033102
4.08512e-05
3.24876e-05
6.09407e-05
2.48457e-05
0.000187764
0.000385424
0.00013054
0.000327954
0.000351189
0.000422495
0.000140672
0.000231063
7.12857e-05
0.000155545
0.000352727
0.000390372
0.000113521
0.000281686
0.000500631
9.58091e-06
2.193e-05
0
0
3.67825e-05
8.54071e-08
3.07236e-05
3.2266e-05
9.34125e-06
1.31567e-05
0
0
0
0
0
0
2.35984e-07
0
0
0
0
0
0
6.53352e-07
0
0
0
0
0
0
0
0
0
0
0
0
0
0
0
0
0
0
0
0
0
0
0
0
0
0
0
0
0
0
0
0
0
0
0
0
0
0
0
0
0
0
0
0
0
0
0
0
0
0
0
0
0
0
0
0
0
0
0
0
0
0
0
0
0
0
0
0
0
1.58003e-11
0
0
0
0
0.00101783
0.000604291
0.000864353
0.00109367
0.000767971
0.00100302
0.000485562
0.00074429
0.000638614
0.000681115
0.000511204
0.000651011
0.0012711
0.000972145
0.000507863
7.61196e-05
0.000192129
0.000237591
0.000194342
0.000120519
0.000194158
0.000149403
0.000193545
0.000182871
0.000202747
0.000202063
0.000206823
0.000193711
0.000227643
0
0
0
0
0.000299461
0.000311317
0.000258838
0
0
0.000228948
0.000217638
0
3.48116e-05
0
0
0.000132431
0.000132485
4.76408e-05
2.33119e-05
4.88733e-05
1.73441e-05
3.70837e-05
3.9132e-05
8.25063e-05
0.000161432
0.000172818
0.000165819
0.000219465
0.000119917
0.000238974
0.000267783
0.000181014
0.000193469
0.000136001
0.000255617
0.000189862
0.000153502
0.000215955
0.000130904
0.000258308
0
9.08062e-07
0
0
0
0
0
0
0
0
0
2.46565e-06
0
0
0
5.00468e-05
0.000106189
2.95863e-05
0
0
4.86844e-05
0
0
0
0
0
0
0
0
0
0
0
0
0
0
0
2.12816e-09
0
7.68415e-10
0
0
0
0
0
0
0
0
0
0
0
0.000197963
0
0
0
0
0
0
0.000184069
0.000180799
0.000233175
0.000208597
0.000154156
0.000118112
0.000117395
9.91204e-05
8.08124e-05
9.87964e-05
7.42366e-05
0.000121127
8.24463e-05
0.000116535
0.000124243
0.000115647
6.15215e-05
0.000124317
0.00011178
0.000108011
0.000117644
0.000366755
0.000407987
0.000389965
0.000271869
0.000245702
0.000325795
0.000289641
0.000333795
0.000226949
0.000240024
0.000278428
0.000261172
0.000122928
0.000131768
0.000170491
0.000162309
0.000212216
0.000169942
0.00024063
0.000182346
0.000327311
0.000411131
0.000122311
0.00050425
0.00163561
0.000887629
0.00142089
0.000230765
0.000446437
0.00104125
0.000228219
0.000685291
0.000665255
0.000299238
0.000318541
0.000279883
0.000327248
0.000292393
0.000346409
0.00089246
0.000368052
0.000395511
0.000384367
0.000355303
0.000367975
0.000330116
0.000327774
0.000602052
0.000553458
0.000582956
0.000491836
0.000538919
0.000571914
0.000494545
0.000545999
0.000813645
0.000806931
0.00072356
0.00076769
0.00086498
0.000770026
0.000899738
0.000822306
0.000774139
0.000673529
0.000628213
0.000692038
0.000640894
0.000599761
0.000575774
0.000552116
0.000517231
0.000502849
0.000413603
0.000411665
0.000469311
0.00046587
0.000418317
0.000416451
0.000499603
0.00052313
0.000475528
0.000473043
0.000519124
0.000521268
0.000420471
0.000449042
0.000446639
0.000468863
0.0003953
0.000414928
0.000445878
0.000343989
0.000316251
0.000289465
0.000283726
0.000315701
0.000385558
0.000362024
0.000405376
0.000435912
0.000467695
0.00043649
0.000441839
0.000470253
0.000489797
0.000516808
0.000566149
0.000618879
0.000638951
0.000682916
0.000748418
0.00066296
0.000792574
0.000466676
0.000460111
0.000746689
0.000817214
0.000350349
0.000152444
0.000183435
0.000215605
0.000236886
0.000256632
0.000286228
0.000282855
0.000262845
0.000256911
0.000299121
0.00020121
0.000153375
0.000304532
0.000277952
0.000166164
0.000242327
0.000132951
0.000163072
8.42576e-06
0.000157249
6.46735e-05
0.00018899
7.44473e-05
9.36822e-05
0.000169733
0.000178241
0.000273637
6.74338e-05
0.000189595
0.000108439
4.39856e-05
0.000123888
0.000102427
0.000103853
7.03438e-05
8.43829e-05
9.74529e-05
0.000167899
0.000247561
0.000132842
0.000235161
0.00021434
0.000324054
0.000345206
0.000262935
0.000296217
0.000295656
0.000327492
0.00036547
0.000402848
0.000342859
0.000394499
0.000363185
0.000454303
0.000439377
0.000515553
0.000524459
0.000579416
0.000575912
0.000644184
0.000578846
0.000683954
0.000635825
0.000679037
0.000712211
0.000685533
0.000718005
0.000719932
0.000671432
0.000692615
0.000628542
0.00063916
0.000539445
0.000446069
0.00053828
0.000386674
0.00041911
1.67872e-07
0
1.16678e-05
4.34848e-06
5.35781e-06
4.80906e-06
8.04197e-06
0.000220207
6.43031e-06
0.000405687
0.000251513
0.000133936
0.000174434
0.000269702
0.000201524
0.000285216
0.000308128
0.000183933
0.000533037
0.000353605
0.000245337
0
0
0
0
0
1.71735e-06
0
0
0
0
0
0
0
0
1.65434e-07
0
0
0
3.90393e-08
0
0
0
0
0
0
0
0
0
0
0
0
0
0
0
0
0
0
2.71982e-08
0
0
0
0
0
6.55986e-10
8.56965e-10
1.40699e-09
0
0
0
0
0
0
0
0
0
0
0
0
0
0
0
0
0
0
0
0
0
0
0
0
0
0
0
0
0
0
0
0
0
0
0
0
0
0
0
0
0
3.016e-09
0
6.48266e-10
0
2.24878e-09
0
0
0
0.000867696
0.000855953
0.000929007
0.000606193
0.000738452
0.000617815
0.000972929
0.000818393
0.000743301
0.000440052
0.00106013